Title
81321
    1CHL1    C3    1   4.294   5.722  10.125 -0.0182 -0.5619  0.0778
    1CHL1    H3    2   4.384   5.778  10.092 -0.9635  2.9685  2.9040
    1CHL1    O3    3   4.261   5.769  10.258 -0.2465 -0.0746 -0.1245
    1CHL1   H3'    4   4.192   5.705  10.280  0.0155 -1.2487 -2.3829
    1CHL1    C4    5   4.173   5.753  10.039  0.4812  0.4963  0.1452
    1CHL1   H4A    6   4.084   5.707  10.087  1.3549 -0.2030  1.1639
    1CHL1   H4B    7   4.160   5.864  10.042  2.3755  0.7451  0.8275
    1CHL1    C5    8   4.187   5.692   9.903 -0.1096 -0.0949 -0.3621
    1CHL1    C6    9   4.186   5.772   9.797 -0.1918  0.6849 -0.1947
    1CHL1    H6   10   4.164   5.879   9.809 -0.6993  0.6453 -0.7673
    1CHL1    C7   11   4.217   5.730   9.657 -0.4626  0.1319  1.0037
    1CHL1   H7A   12   4.141   5.771   9.587  1.4225  0.7431 -0.7814
    1CHL1   H7B   13   4.316   5.772   9.629 -0.2485 -0.4914  0.8193
    1CHL1    C8   14   4.222   5.576   9.643 -0.3581 -0.0762 -0.1692
    1CHL1    H8   15   4.119   5.539   9.657 -1.9658  3.6293 -1.1488
    1CHL1   C14   16   4.291   5.529   9.517  0.1756 -0.4139  0.5041
    1CHL1   H14   17   4.393   5.574   9.512  0.0645 -0.2702 -0.8240
    1CHL1   C15   18   4.236   5.591   9.380 -0.3434 -0.1145 -0.1635
    1CHL1  H15A   19   4.127   5.573   9.373 -0.1063 -2.4773  1.2325
    1CHL1  H15B   20   4.272   5.693   9.352  1.2031 -0.6361 -0.1680
    1CHL1   C16   21   4.303   5.503   9.286  0.1156  0.3930 -0.3197
    1CHL1  H16A   22   4.242   5.473   9.199  0.8865 -3.0805  0.2065
    1CHL1  H16B   23   4.396   5.553   9.251  0.5288 -0.3613 -0.3209
    1CHL1   C17   24   4.354   5.377   9.354 -0.3690  0.3515 -0.0084
    1CHL1   H17   25   4.463   5.389   9.369 -0.5491  1.1862  0.6697
    1CHL1   C13   26   4.293   5.381   9.494  0.1708  0.6642 -0.2317
    1CHL1   C18   27   4.153   5.317   9.485 -0.3927  0.3226 -0.2380
    1CHL1  H18A   28   4.112   5.343   9.385  0.0784  1.3512 -0.1719
    1CHL1  H18B   29   4.147   5.206   9.479 -1.9106  0.3587  0.1630
    1CHL1  H18C   30   4.087   5.353   9.567 -0.3832 -2.3633  1.0517
    1CHL1   C12   31   4.376   5.316   9.611 -0.4357  0.4989 -0.5308
    1CHL1  H12A   32   4.375   5.205   9.606 -0.2532  0.1951  3.3846
    1CHL1  H12B   33   4.480   5.352   9.600 -0.3001  0.7150  1.2349
    1CHL1   C11   34   4.319   5.352   9.748 -0.4826 -0.5022  0.3980
    1CHL1  H11A   35   4.225   5.293   9.755 -0.6152 -0.1744  1.6429
    1CHL1  H11B   36   4.396   5.310   9.817 -0.3724 -2.0336 -0.5932
    1CHL1    C9   37   4.299   5.506   9.760  0.1101  0.1337 -0.2036
    1CHL1    H9   38   4.402   5.548   9.762  1.1871 -2.3245 -1.0803
    1CHL1   C10   39   4.241   5.542   9.901  0.5578  0.0791 -0.2107
    1CHL1   C19   40   4.110   5.473   9.943  0.5091 -0.1004 -0.2081
    1CHL1  H19A   41   4.086   5.484  10.050  2.0228 -1.2044  0.2848
    1CHL1  H19B   42   4.021   5.486   9.877 -0.9548 -0.4792  1.6259
    1CHL1  H19C   43   4.123   5.363   9.945  0.3058 -0.1167  1.1254
    1CHL1    C1   44   4.356   5.520  10.005 -0.2475  0.9133  1.0633
    1CHL1   H1A   45   4.381   5.412  10.010 -1.5681  0.3905 -1.5552
    1CHL1   H1B   46   4.448   5.570   9.969 -0.3058  1.6087  1.8324
    1CHL1    C2   47   4.326   5.574  10.136  0.1253 -0.7331 -0.1291
    1CHL1   H2A   48   4.412   5.552  10.203  0.9990 -0.1738 -1.0453
    1CHL1   H2B   49   4.234   5.536  10.186 -1.0908  0.5566 -1.3018
    1CHL1   C20   50   4.349   5.247   9.271 -0.4202 -0.4345  0.6146
    1CHL1   H20   51   4.241   5.241   9.249 -0.2819  1.0232 -0.6366
    1CHL1   C21   52   4.399   5.129   9.358  0.0566 -0.0039 -0.1351
    1CHL1  H21A   53   4.336   5.100   9.444  1.2006 -1.0273  0.4008
    1CHL1  H21B   54   4.500   5.155   9.396  1.3717 -2.4166 -1.6726
    1CHL1  H21C   55   4.411   5.033   9.303  0.6250  1.1252 -2.0543
    1CHL1   C22   56   4.439   5.243   9.143  0.0616 -0.2253  1.0155
    1CHL1  H22A   57   4.401   5.329   9.083  1.0095 -0.2856  0.3030
    1CHL1  H22B   58   4.542   5.260   9.182  0.1479 -0.4853  0.9024
    1CHL1   C23   59   4.438   5.121   9.060  0.1914  0.2189  0.5183
    1CHL1  H23A   60   4.475   5.024   9.100 -2.6594 -0.5643  1.5034
    1CHL1  H23B   61   4.334   5.090   9.035  0.1731 -0.6077  1.5496
    1CHL1   C24   62   4.504   5.156   8.924  0.3761 -0.5490 -0.0367
    1CHL1  H24A   63   4.439   5.236   8.883  0.2496  0.6987  2.4227
    1CHL1  H24B   64   4.594   5.219   8.944 -1.2226  1.7757  0.2400
    1CHL1   C25   65   4.537   5.043   8.830  0.7486 -0.7240  0.2647
    1CHL1   H25   66   4.601   4.967   8.879 -0.6569 -2.0887  0.0528
    1CHL1   C26   67   4.407   4.964   8.793  0.0443 -0.1191  0.0194
    1CHL1  H26A   68   4.438   4.874   8.736  1.9588  0.2405  0.4242
    1CHL1  H26B   69   4.359   4.916   8.881 -0.7962 -0.2237 -0.4864
    1CHL1  H26C   70   4.331   5.007   8.724  0.8194  0.5665 -0.4186
    1CHL1   C27   71   4.610   5.097   8.702  0.2812 -0.0685  0.3901
    1CHL1  H27A   72   4.644   5.012   8.639 -0.2206 -0.3288  0.4654
    1CHL1  H27B   73   4.533   5.149   8.641  0.6389 -0.8634 -0.7962
    1CHL1  H27C   74   4.699   5.160   8.725  1.3663 -2.0279  1.8613
    2CHL1    C3   75   3.855   0.740  10.135 -0.2939 -0.1098  0.0184
    2CHL1    H3   76   3.773   0.675  10.098 -1.4478  0.6400  1.1716
    2CHL1    O3   77   3.857   0.747  10.275  0.2553 -0.0497 -0.5096
    2CHL1   H3'   78   3.933   0.798  10.306 -0.0036  0.9106 -1.4030
    2CHL1    C4   79   3.992   0.676  10.094 -0.0043 -0.5235  0.3145
    2CHL1   H4A   80   4.067   0.729  10.156 -0.8818 -1.0472  1.8944
    2CHL1   H4B   81   3.990   0.577  10.147  0.4789  0.0091  1.3615
    2CHL1    C5   82   4.028   0.681   9.943 -0.1335 -0.2182 -0.8505
    2CHL1    C6   83   4.048   0.569   9.876 -0.2430 -0.0580  0.0659
    2CHL1    H6   84   4.038   0.468   9.918  1.9863 -0.0560  0.7550
    2CHL1    C7   85   4.072   0.573   9.729 -0.5310 -0.2720  0.4889
    2CHL1   H7A   86   4.147   0.498   9.696 -1.3795 -0.0229 -2.1997
    2CHL1   H7B   87   3.979   0.538   9.679  0.6943 -0.9053 -1.4632
    2CHL1    C8   88   4.114   0.712   9.675 -0.5201  1.1728  0.3099
    2CHL1    H8   89   4.221   0.718   9.704 -0.5350  0.6633  0.4806
    2CHL1   C14   90   4.113   0.719   9.518 -0.6140  0.5381 -0.2426
    2CHL1   H14   91   4.004   0.715   9.495 -0.9902  2.5240  0.9844
    2CHL1   C15   92   4.172   0.607   9.437  0.1912  0.4351  0.2363
    2CHL1  H15A   93   4.281   0.589   9.447 -0.0349 -1.1868  0.0844
    2CHL1  H15B   94   4.120   0.517   9.475  1.4590  0.9142  3.4512
    2CHL1   C16   95   4.145   0.665   9.291 -0.0620  0.7100 -0.5805
    2CHL1  H16A   96   4.223   0.641   9.215  0.2819  2.1984 -0.7222
    2CHL1  H16B   97   4.039   0.639   9.271 -1.5402  3.7527  2.3579
    2CHL1   C17   98   4.145   0.823   9.297 -0.5860  0.0432 -0.3794
    2CHL1   H17   99   4.041   0.858   9.280 -0.4153  0.4522 -0.5735
    2CHL1   C13  100   4.156   0.848   9.453  0.4462  0.0257  0.5331
    2CHL1   C18  101   4.306   0.873   9.485  0.6836 -0.0841 -0.2622
    2CHL1  H18A  102   4.314   0.861   9.595 -1.1645  0.4466 -0.0329
    2CHL1  H18B  103   4.375   0.803   9.432  1.1231 -0.7696  1.1736
    2CHL1  H18C  104   4.339   0.976   9.462  2.9324 -0.5929  0.3861
    2CHL1   C12  105   4.071   0.958   9.517 -0.0400 -0.2294 -1.0600
    2CHL1  H12A  106   4.098   1.053   9.467 -1.4753  0.0120 -1.4320
    2CHL1  H12B  107   3.966   0.936   9.486 -0.6636  1.0064  0.0727
    2CHL1   C11  108   4.073   0.960   9.674  0.4439  0.5516 -0.2741
    2CHL1  H11A  109   4.170   0.994   9.714  1.3863 -1.2525 -0.9088
    2CHL1  H11B  110   3.996   1.033   9.709  0.1032  0.1414 -0.1499
    2CHL1    C9  111   4.036   0.817   9.736 -0.1615 -0.2193 -0.5220
    2CHL1    H9  112   3.931   0.796   9.706 -0.0916 -0.9476 -0.2662
    2CHL1   C10  113   4.030   0.827   9.896 -0.0700 -0.0796 -0.6924
    2CHL1   C19  114   4.160   0.896   9.952  0.0834 -0.3501  0.1858
    2CHL1  H19A  115   4.247   0.838   9.913  1.6855  1.5548  0.7092
    2CHL1  H19B  116   4.176   1.002   9.922 -1.1397 -0.4191 -0.7675
    2CHL1  H19C  117   4.162   0.909  10.062  2.3278 -0.0673  0.1650
    2CHL1    C1  118   3.904   0.896   9.938  0.1720  0.3132  0.9125
    2CHL1   H1A  119   3.899   1.005   9.919 -1.0765  0.0708 -0.3065
    2CHL1   H1B  120   3.820   0.858   9.876  0.8414  1.6177 -0.8753
    2CHL1    C2  121   3.853   0.883  10.085  0.0412  0.1023 -0.5987
    2CHL1   H2A  122   3.751   0.926  10.091 -0.0628 -0.3399  1.4741
    2CHL1   H2B  123   3.911   0.944  10.159 -1.9876 -0.9977  2.0593
    2CHL1   C20  124   4.225   0.890   9.188 -0.1237  0.9646 -1.5738
    2CHL1   H20  125   4.328   0.859   9.215  0.3412  1.0637 -3.1240
    2CHL1   C21  126   4.218   1.044   9.209  0.0454 -0.1518 -0.3255
    2CHL1  H21A  127   4.231   1.081   9.313 -0.9335 -1.7331  0.3860
    2CHL1  H21B  128   4.116   1.083   9.188  0.2330  1.1979  1.0940
    2CHL1  H21C  129   4.293   1.100   9.149  1.7447 -1.0972  0.8326
    2CHL1   C22  130   4.196   0.845   9.046  0.2582  0.2855  0.2219
    2CHL1  H22A  131   4.158   0.741   9.038 -1.5841  0.9938 -0.7516
    2CHL1  H22B  132   4.106   0.898   9.010  0.3996 -0.3732 -1.1995
    2CHL1   C23  133   4.317   0.859   8.948  0.0197  0.4072  0.5558
    2CHL1  H23A  134   4.349   0.965   8.956  1.0691  0.3712 -2.1360
    2CHL1  H23B  135   4.394   0.786   8.981 -2.8302 -2.2407  1.8375
    2CHL1   C24  136   4.267   0.837   8.805  0.5971  0.6136 -0.2183
    2CHL1  H24A  137   4.221   0.739   8.783 -0.6430  1.1948 -0.3357
    2CHL1  H24B  138   4.193   0.915   8.775 -0.1697  0.1382  0.4106
    2CHL1   C25  139   4.386   0.847   8.700  0.4693  0.7167  0.2528
    2CHL1   H25  140   4.461   0.924   8.727  2.2761 -0.8658 -0.0144
    2CHL1   C26  141   4.463   0.713   8.694  0.6387  0.0062  0.1844
    2CHL1  H26A  142   4.526   0.696   8.784  0.5826  0.3552  0.2890
    2CHL1  H26B  143   4.385   0.635   8.688 -0.8769  1.5847 -1.8288
    2CHL1  H26C  144   4.528   0.693   8.606  0.1372 -0.4984 -0.0801
    2CHL1   C27  145   4.338   0.890   8.561  0.1904 -0.6045  0.4415
    2CHL1  H27A  146   4.426   0.922   8.501 -0.1815 -1.5269 -0.6176
    2CHL1  H27B  147   4.278   0.806   8.521  1.5227 -1.5767  0.4567
    2CHL1  H27C  148   4.272   0.980   8.561 -0.3006 -0.9570  0.4289
    3CHL1    C3  149   3.458   1.520  10.205  0.8139 -0.7581  0.1693
    3CHL1    H3  150   3.372   1.587  10.180 -0.0832 -2.1857 -0.7117
    3CHL1    O3  151   3.486   1.541  10.343  0.6109  0.1880  0.9053
    3CHL1   H3'  152   3.423   1.483  10.387 -0.6876  1.2761  0.5510
    3CHL1    C4  153   3.414   1.377  10.171  0.9421 -0.3193  0.2325
    3CHL1   H4A  154   3.502   1.317  10.203  0.2659 -0.8130  1.2191
    3CHL1   H4B  155   3.323   1.351  10.230  0.1569 -0.4429 -0.9893
    3CHL1    C5  156   3.384   1.369  10.024  0.4729 -0.4799  0.5309
    3CHL1    C6  157   3.261   1.331   9.986  0.4364  0.1699  0.7393
    3CHL1    H6  158   3.177   1.316  10.055 -0.2099  1.5231  0.2769
    3CHL1    C7  159   3.213   1.318   9.845 -0.5502 -0.3734 -0.4634
    3CHL1   H7A  160   3.161   1.220   9.839 -2.3412  0.3305  1.9948
    3CHL1   H7B  161   3.136   1.398   9.837  0.8811  0.9986 -0.9939
    3CHL1    C8  162   3.324   1.331   9.743  0.5688 -0.2703 -0.2696
    3CHL1    H8  163   3.371   1.231   9.751  2.3226  0.6343  2.0953
    3CHL1   C14  164   3.273   1.348   9.602 -0.7851 -0.0888  0.0995
    3CHL1   H14  165   3.231   1.449   9.619 -0.7539 -0.1705  0.6741
    3CHL1   C15  166   3.160   1.273   9.536  1.3482 -0.1823 -0.0025
    3CHL1  H15A  167   3.182   1.167   9.558 -0.8249 -0.4190  1.2680
    3CHL1  H15B  168   3.059   1.293   9.577  2.2268  1.4120  1.5562
    3CHL1   C16  169   3.169   1.306   9.384 -1.1059  0.2274  0.0894
    3CHL1  H16A  170   3.155   1.211   9.327  0.6611 -1.1197  1.7630
    3CHL1  H16B  171   3.082   1.372   9.361 -2.0453 -0.4328  1.5963
    3CHL1   C17  172   3.300   1.387   9.360  0.6152  0.4897 -0.4581
    3CHL1   H17  173   3.276   1.495   9.351 -0.2665  0.3721  0.2725
    3CHL1   C13  174   3.379   1.368   9.490  0.3541  0.4681 -0.8694
    3CHL1   C18  175   3.464   1.240   9.470 -0.2077 -0.1263 -0.1482
    3CHL1  H18A  176   3.495   1.188   9.564  0.9328 -2.6740 -1.8079
    3CHL1  H18B  177   3.418   1.164   9.403 -1.2557  1.3374 -1.1385
    3CHL1  H18C  178   3.561   1.266   9.422  0.5457 -0.4488  1.1278
    3CHL1   C12  179   3.473   1.483   9.528 -0.5070 -0.1964 -0.2046
    3CHL1  H12A  180   3.555   1.494   9.454 -0.2453 -2.2304 -0.2945
    3CHL1  H12B  181   3.420   1.580   9.529 -0.1389 -0.0010  0.2243
    3CHL1   C11  182   3.531   1.459   9.669 -0.1199 -0.3473  0.0706
    3CHL1  H11A  183   3.597   1.371   9.660  0.8832  0.5963 -3.1404
    3CHL1  H11B  184   3.585   1.555   9.688 -1.8505  0.8065 -0.5500
    3CHL1    C9  185   3.421   1.443   9.777  1.0096 -0.0152  1.1724
    3CHL1    H9  186   3.364   1.538   9.785  0.1592 -0.5005  0.9829
    3CHL1   C10  187   3.482   1.423   9.917 -0.4633  0.0004 -0.4042
    3CHL1   C19  188   3.591   1.311   9.914 -0.2077  0.3082 -0.1492
    3CHL1  H19A  189   3.552   1.214   9.878  0.5354  0.6647 -2.0652
    3CHL1  H19B  190   3.689   1.340   9.870  1.3575 -1.8270  1.6547
    3CHL1  H19C  191   3.615   1.297  10.022 -1.7378  2.3999  0.5226
    3CHL1    C1  192   3.537   1.565   9.963  0.1771  0.4652  0.6838
    3CHL1   H1A  193   3.629   1.589   9.904 -0.4104 -0.1667 -0.5275
    3CHL1   H1B  194   3.462   1.643   9.936  2.0069  1.5972 -1.6040
    3CHL1    C2  195   3.573   1.567  10.117 -1.1879 -0.1929  0.1879
    3CHL1   H2A  196   3.596   1.671  10.151 -3.1806 -0.2450  1.8859
    3CHL1   H2B  197   3.659   1.497  10.125 -1.6579 -0.7076  0.8029
    3CHL1   C20  198   3.364   1.357   9.222  0.2451  0.4470  0.1317
    3CHL1   H20  199   3.403   1.253   9.224 -0.7450  0.0686  1.3294
    3CHL1   C21  200   3.484   1.457   9.206  0.0223 -0.6311 -0.2097
    3CHL1  H21A  201   3.575   1.440   9.267  0.9528 -0.8810 -1.6272
    3CHL1  H21B  202   3.442   1.560   9.218  2.9099  0.7420 -1.0196
    3CHL1  H21C  203   3.517   1.452   9.100  0.8067 -0.4351  0.0223
    3CHL1   C22  204   3.261   1.382   9.108  0.3492 -0.1065 -0.4277
    3CHL1  H22A  205   3.184   1.302   9.119  1.1401 -0.7420  0.6595
    3CHL1  H22B  206   3.201   1.475   9.114  2.0658  0.9788  0.9579
    3CHL1   C23  207   3.315   1.384   8.959  0.0003 -0.0982  0.1391
    3CHL1  H23A  208   3.375   1.476   8.938  2.4033 -0.6385  3.7448
    3CHL1  H23B  209   3.376   1.293   8.939 -0.7845 -0.8525  1.1065
    3CHL1   C24  210   3.205   1.375   8.849 -0.0772  0.3738 -0.4882
    3CHL1  H24A  211   3.161   1.273   8.847  0.5388  0.1055 -2.6652
    3CHL1  H24B  212   3.133   1.459   8.859 -0.5260  0.0793 -1.1908
    3CHL1   C25  213   3.264   1.397   8.710  0.0842  0.1312  0.6034
    3CHL1   H25  214   3.299   1.502   8.707  0.9805 -0.1425  1.2059
    3CHL1   C26  215   3.391   1.307   8.686 -0.4041 -0.0655  0.0889
    3CHL1  H26A  216   3.370   1.203   8.719 -1.3511 -0.0423 -0.3931
    3CHL1  H26B  217   3.405   1.290   8.577  0.8156 -0.7933  0.3483
    3CHL1  H26C  218   3.484   1.348   8.730  0.5078 -1.6636 -0.2790
    3CHL1   C27  219   3.163   1.380   8.595 -0.4025  0.0608 -0.1515
    3CHL1  H27A  220   3.156   1.279   8.549 -0.6408 -0.7445  1.6066
    3CHL1  H27B  221   3.062   1.401   8.636  0.3639 -2.9304  3.8939
    3CHL1  H27C  222   3.191   1.452   8.514  1.8884 -0.7466 -0.1455
    4CHL1    C3  223   3.362   4.656  10.499 -0.4717 -0.2743 -0.6401
    4CHL1    H3  224   3.471   4.675  10.505 -0.1619 -2.2024  1.0330
    4CHL1    O3  225   3.324   4.621  10.634  0.2081 -0.1614 -0.2359
    4CHL1   H3'  226   3.398   4.572  10.670 -0.5473 -1.7908 -0.8054
    4CHL1    C4  227   3.281   4.778  10.453 -0.7452 -0.3952  0.4028
    4CHL1   H4A  228   3.174   4.755  10.472 -1.0615  1.3308  0.9195
    4CHL1   H4B  229   3.310   4.856  10.526 -2.6201 -0.3066  1.1075
    4CHL1    C5  230   3.310   4.825  10.309  0.2584  0.6866  0.5503
    4CHL1    C6  231   3.353   4.948  10.279  0.1986 -0.5606  0.4920
    4CHL1    H6  232   3.372   5.025  10.355 -0.0481 -0.4672  0.4605
    4CHL1    C7  233   3.374   5.000  10.140 -0.1964  0.1902  0.6316
    4CHL1   H7A  234   3.323   5.098  10.127  0.1237  0.5456  1.9037
    4CHL1   H7B  235   3.482   5.016  10.124 -0.3166  2.0014  1.4627
    4CHL1    C8  236   3.312   4.898  10.031 -0.1489 -1.1745 -0.1981
    4CHL1    H8  237   3.203   4.913  10.041  0.1198 -0.4685  2.3615
    4CHL1   C14  238   3.361   4.934   9.889  0.5081 -0.2049 -0.3797
    4CHL1   H14  239   3.470   4.918   9.895  0.0780 -3.3819  0.7922
    4CHL1   C15  240   3.351   5.079   9.832  0.8941 -0.2641 -0.6948
    4CHL1  H15A  241   3.260   5.125   9.876  2.3399  1.6244  0.5170
    4CHL1  H15B  242   3.428   5.147   9.874  0.8942  0.2950 -1.5558
    4CHL1   C16  243   3.352   5.074   9.683  0.1525  0.3198 -0.6821
    4CHL1  H16A  244   3.258   5.112   9.637 -0.9649  0.4658  1.5939
    4CHL1  H16B  245   3.438   5.132   9.644  2.5374 -4.0709 -2.7728
    4CHL1   C17  246   3.370   4.922   9.654  0.2823 -0.1486 -0.2387
    4CHL1   H17  247   3.480   4.912   9.653  0.2338 -0.7668 -0.0455
    4CHL1   C13  248   3.312   4.846   9.774  0.3186  0.0797 -0.0470
    4CHL1   C18  249   3.163   4.849   9.769  0.7481  0.0765  0.2320
    4CHL1  H18A  250   3.120   4.788   9.686 -1.2619  1.5738  0.0931
    4CHL1  H18B  251   3.116   4.818   9.865  0.2706  0.3891  0.1002
    4CHL1  H18C  252   3.126   4.950   9.742 -1.7664 -1.4256 -2.5641
    4CHL1   C12  253   3.370   4.703   9.812  0.6025 -0.1347 -0.1991
    4CHL1  H12A  254   3.343   4.629   9.733 -1.4536  0.6756 -0.3090
    4CHL1  H12B  255   3.479   4.726   9.812  0.3716  1.0557  0.6395
    4CHL1   C11  256   3.320   4.653   9.955  0.3335  0.1422  0.7513
    4CHL1  H11A  257   3.216   4.640   9.921  0.2346 -0.8471  1.3823
    4CHL1  H11B  258   3.360   4.549   9.962  0.4690 -0.0966 -2.2398
    4CHL1    C9  259   3.348   4.754  10.070  0.0426  0.6369  0.8484
    4CHL1    H9  260   3.459   4.750  10.075  0.0729  1.8322  1.5494
    4CHL1   C10  261   3.289   4.710  10.208  0.1446 -0.0640 -0.3622
    4CHL1   C19  262   3.138   4.697  10.192  0.4634 -0.0049 -0.2716
    4CHL1  H19A  263   3.085   4.789  10.158 -0.7575 -0.4330  0.4022
    4CHL1  H19B  264   3.114   4.625  10.110 -0.9967  1.6764 -1.3946
    4CHL1  H19C  265   3.088   4.668  10.287  1.3888  0.0094  0.2236
    4CHL1    C1  266   3.347   4.567  10.257 -0.6732  0.2715  0.1080
    4CHL1   H1A  267   3.308   4.503  10.175 -2.5062  2.0075 -0.4542
    4CHL1   H1B  268   3.457   4.576  10.245 -0.5811  2.5174  1.9842
    4CHL1    C2  269   3.325   4.538  10.409 -0.4668  0.7835 -0.3295
    4CHL1   H2A  270   3.385   4.451  10.442 -1.4472  0.8744  1.8327
    4CHL1   H2B  271   3.218   4.516  10.428 -0.2687  1.8265  2.4403
    4CHL1   C20  272   3.325   4.883   9.508 -0.2120  0.9160 -0.0870
    4CHL1   H20  273   3.219   4.907   9.488 -0.6596  0.1595  1.2440
    4CHL1   C21  274   3.342   4.735   9.476  0.1301  0.6931  0.3703
    4CHL1  H21A  275   3.282   4.716   9.385 -4.0866  0.3371  2.9511
    4CHL1  H21B  276   3.293   4.671   9.553  0.6722 -1.2986 -0.8780
    4CHL1  H21C  277   3.443   4.690   9.464 -0.3921  0.1411 -2.5529
    4CHL1   C22  278   3.401   4.975   9.403  0.1991 -0.5381  0.7070
    4CHL1  H22A  279   3.371   5.080   9.425 -0.6587 -0.4641 -0.6752
    4CHL1  H22B  280   3.509   4.949   9.405  0.0009 -2.4431 -2.9421
    4CHL1   C23  281   3.359   4.943   9.252 -0.6283  0.1231 -0.3084
    4CHL1  H23A  282   3.388   4.838   9.230 -1.6686 -0.2923  0.2191
    4CHL1  H23B  283   3.248   4.949   9.249 -0.6015  1.1094  0.1034
    4CHL1   C24  284   3.413   5.047   9.155 -0.3584 -0.8996  0.6519
    4CHL1  H24A  285   3.380   5.147   9.188 -1.8546 -1.1817  0.1008
    4CHL1  H24B  286   3.524   5.041   9.155  0.0029  3.2700  0.9304
    4CHL1   C25  287   3.362   5.032   9.007  0.1418  0.1408 -0.3986
    4CHL1   H25  288   3.252   5.017   9.012  0.3108 -0.8404  1.0568
    4CHL1   C26  289   3.383   5.153   8.916 -0.4820 -0.3307 -0.0036
    4CHL1  H26A  290   3.482   5.203   8.925 -0.4727 -0.5669  1.5340
    4CHL1  H26B  291   3.373   5.117   8.812 -0.7205 -2.4464  0.7106
    4CHL1  H26C  292   3.307   5.235   8.916  0.6545  0.7786 -1.2198
    4CHL1   C27  293   3.428   4.903   8.950  0.1785 -0.2670 -0.1176
    4CHL1  H27A  294   3.536   4.926   8.935 -0.0998  0.5315 -0.9490
    4CHL1  H27B  295   3.421   4.820   9.024 -0.6892 -1.0478 -1.0414
    4CHL1  H27C  296   3.385   4.880   8.850  1.1336 -1.3612 -0.3046
    5CHL1    C3  297   4.237   2.497   9.961 -0.8482 -0.9787  0.1729
    5CHL1    H3  298   4.179   2.413  10.005 -1.2799 -0.9857 -0.3871
    5CHL1    O3  299   4.263   2.586  10.065  0.3054 -0.2885  0.0201
    5CHL1   H3'  300   4.358   2.587  10.077  0.6527  1.2781 -2.0964
    5CHL1    C4  301   4.368   2.443   9.903 -0.9308 -0.2620  0.0110
    5CHL1   H4A  302   4.417   2.539   9.873 -2.9544  0.9645  0.4474
    5CHL1   H4B  303   4.433   2.405   9.985 -0.4881 -0.4114 -0.4000
    5CHL1    C5  304   4.361   2.355   9.789  0.1335  0.5276  0.0338
    5CHL1    C6  305   4.419   2.233   9.772  0.0654 -0.7324 -1.0415
    5CHL1    H6  306   4.470   2.195   9.862  0.1063 -1.1337 -1.2325
    5CHL1    C7  307   4.421   2.151   9.648  0.4872 -0.2832  0.1299
    5CHL1   H7A  308   4.520   2.117   9.611  0.9023  1.1693 -0.1703
    5CHL1   H7B  309   4.364   2.057   9.663 -1.7952  1.1053  0.6831
    5CHL1    C8  310   4.364   2.234   9.526 -0.1012  0.3297 -0.1424
    5CHL1    H8  311   4.451   2.294   9.491  1.6551 -2.2212 -0.3667
    5CHL1   C14  312   4.329   2.135   9.413 -0.1418 -0.1574  0.4203
    5CHL1   H14  313   4.249   2.068   9.451  0.0055 -0.5045  0.1300
    5CHL1   C15  314   4.438   2.034   9.365 -0.3897 -0.2934  0.4291
    5CHL1  H15A  315   4.542   2.073   9.362 -0.7699  0.8245  1.1584
    5CHL1  H15B  316   4.430   1.938   9.421  0.9406 -0.6077  0.1049
    5CHL1   C16  317   4.395   2.001   9.222  0.0291 -0.3718  0.1868
    5CHL1  H16A  318   4.471   2.036   9.149 -0.3322 -0.5077 -0.2650
    5CHL1  H16B  319   4.389   1.892   9.201 -1.0574 -0.3063  0.0697
    5CHL1   C17  320   4.262   2.072   9.193 -0.0511  0.4417  0.6423
    5CHL1   H17  321   4.192   2.000   9.241  1.0505 -1.2643 -0.2121
    5CHL1   C13  322   4.271   2.198   9.288  1.0855  0.3947 -0.2915
    5CHL1   C18  323   4.362   2.306   9.213  0.2860  0.3759  0.2007
    5CHL1  H18A  324   4.415   2.376   9.281  2.4267 -0.3408 -0.6219
    5CHL1  H18B  325   4.444   2.256   9.158  0.0204  1.0144 -0.7920
    5CHL1  H18C  326   4.303   2.353   9.132 -0.9002 -0.1468  0.7350
    5CHL1   C12  327   4.143   2.272   9.327  0.0316 -0.0691 -0.1651
    5CHL1  H12A  328   4.109   2.321   9.234 -1.8076  0.7382  0.8545
    5CHL1  H12B  329   4.068   2.195   9.357  1.7965 -2.0164 -0.5510
    5CHL1   C11  330   4.171   2.379   9.434 -0.3488 -0.0162 -0.3385
    5CHL1  H11A  331   4.241   2.455   9.392 -0.8873  1.7699  1.8078
    5CHL1  H11B  332   4.076   2.431   9.461 -0.5701 -0.4113 -0.3430
    5CHL1    C9  333   4.241   2.313   9.562 -0.0203  0.5758 -0.2849
    5CHL1    H9  334   4.163   2.245   9.602  0.7210  1.4388  2.9373
    5CHL1   C10  335   4.267   2.417   9.680 -0.1326 -0.1814  0.0234
    5CHL1   C19  336   4.344   2.536   9.631 -0.0115 -0.4937  0.9353
    5CHL1  H19A  337   4.307   2.583   9.538 -0.8583 -0.6199  1.2028
    5CHL1  H19B  338   4.342   2.621   9.703  1.1099  0.2224  0.1632
    5CHL1  H19C  339   4.450   2.505   9.615  0.3258 -0.0445  2.2067
    5CHL1    C1  340   4.132   2.473   9.741 -0.5786  0.1330  0.0661
    5CHL1   H1A  341   4.075   2.523   9.660 -0.3731  1.0388  0.4689
    5CHL1   H1B  342   4.072   2.383   9.768  1.0861 -1.1976 -0.5230
    5CHL1    C2  343   4.146   2.572   9.859 -0.5214  0.0374  0.5694
    5CHL1   H2A  344   4.046   2.589   9.903 -0.6227 -0.6354  0.6059
    5CHL1   H2B  345   4.197   2.669   9.838  4.2269 -2.0528  0.9807
    5CHL1   C20  346   4.221   2.092   9.048  0.0934 -0.5444  0.0557
    5CHL1   H20  347   4.266   2.186   9.011 -2.4279 -0.4716 -3.1687
    5CHL1   C21  348   4.059   2.100   9.044  0.1106  0.2537  0.0032
    5CHL1  H21A  349   4.013   1.999   9.041  0.1642  0.2278 -3.0391
    5CHL1  H21B  350   4.027   2.145   8.947  1.6774  0.4832 -0.4297
    5CHL1  H21C  351   4.023   2.151   9.136 -0.8721  0.7660 -0.6477
    5CHL1   C22  352   4.266   1.975   8.956  0.1057  0.7017 -0.2057
    5CHL1  H22A  353   4.373   2.002   8.942 -0.3205  1.9039 -1.3796
    5CHL1  H22B  354   4.255   1.880   9.013 -1.9156  1.5872  1.0230
    5CHL1   C23  355   4.196   1.961   8.815 -0.2469  0.8576  0.5520
    5CHL1  H23A  356   4.106   1.896   8.816  0.5810 -0.3197  0.8771
    5CHL1  H23B  357   4.173   2.059   8.768 -1.4921  0.0580 -0.5943
    5CHL1   C24  358   4.283   1.884   8.710  0.8911 -0.0326 -0.2347
    5CHL1  H24A  359   4.380   1.938   8.713  0.0671  1.5315 -0.5344
    5CHL1  H24B  360   4.290   1.776   8.733 -0.6308  0.1348  1.2151
    5CHL1   C25  361   4.219   1.886   8.565  0.1838 -0.0013 -0.5105
    5CHL1   H25  362   4.204   1.990   8.529 -0.8603 -0.1440 -0.4997
    5CHL1   C26  363   4.311   1.803   8.476  0.0376  0.3490  0.3689
    5CHL1  H26A  364   4.267   1.798   8.375  1.7861 -0.4288 -0.3901
    5CHL1  H26B  365   4.414   1.841   8.457  0.5151 -0.1517  1.7944
    5CHL1  H26C  366   4.304   1.696   8.505 -0.9449  0.7230  1.6218
    5CHL1   C27  367   4.075   1.824   8.560 -0.8978 -0.0597 -0.5547
    5CHL1  H27A  368   4.001   1.879   8.622  1.0888  1.6839  0.3858
    5CHL1  H27B  369   4.052   1.844   8.453  1.7844  0.9449 -1.0287
    5CHL1  H27C  370   4.061   1.719   8.594 -0.2940  0.7621  2.5311
    6CHL1    C3  371   5.308   5.957  10.362  0.0854 -0.2765 -0.3315
    6CHL1    H3  372   5.199   5.937  10.372  0.3607 -1.6807  0.1167
    6CHL1    O3  373   5.374   5.958  10.490  0.0075  0.3154  0.5660
    6CHL1   H3'  374   5.343   6.039  10.531 -1.1938  0.5311 -0.6961
    6CHL1    C4  375   5.379   5.855  10.281 -0.1897  0.0687  0.6283
    6CHL1   H4A  376   5.487   5.884  10.285  0.1748 -0.2304 -3.0123
    6CHL1   H4B  377   5.361   5.763  10.339  1.2577  0.1424  1.2381
    6CHL1    C5  378   5.334   5.852  10.134 -0.0168 -0.2705  0.7279
    6CHL1    C6  379   5.281   5.749  10.079  0.5917  0.2979  0.5888
    6CHL1    H6  380   5.281   5.655  10.137 -0.7650 -1.8863 -2.6581
    6CHL1    C7  381   5.236   5.750   9.939 -0.3288  0.5062  0.7274
    6CHL1   H7A  382   5.295   5.674   9.884  0.5954  1.4138  0.4402
    6CHL1   H7B  383   5.127   5.729   9.930 -0.3115  0.5547  0.3858
    6CHL1    C8  384   5.269   5.878   9.858  0.0137 -0.4180 -0.3869
    6CHL1    H8  385   5.376   5.859   9.831 -0.8312 -2.4860 -2.6922
    6CHL1   C14  386   5.189   5.888   9.728 -0.2125  1.1798 -0.0695
    6CHL1   H14  387   5.084   5.908   9.759  0.1008  0.1473  1.8313
    6CHL1   C15  388   5.201   5.763   9.641  0.0770 -0.0375 -0.0122
    6CHL1  H15A  389   5.299   5.711   9.652  1.7042  2.9652  0.5665
    6CHL1  H15B  390   5.119   5.689   9.650 -2.1949  1.8020 -3.3471
    6CHL1   C16  391   5.179   5.821   9.499 -0.0628 -0.0663  0.5493
    6CHL1  H16A  392   5.272   5.807   9.440 -0.2069  0.6152  0.1530
    6CHL1  H16B  393   5.100   5.769   9.440  0.2505  1.1231 -0.9472
    6CHL1   C17  394   5.157   5.972   9.514  0.3347  0.2045 -0.4696
    6CHL1   H17  395   5.047   5.972   9.529  0.1442 -1.3728 -1.6692
    6CHL1   C13  396   5.231   6.011   9.647  0.3230 -0.6551 -0.2107
    6CHL1   C18  397   5.384   6.001   9.622 -0.1306  0.4373  0.2340
    6CHL1  H18A  398   5.404   5.904   9.573  0.3537 -0.5257  2.2477
    6CHL1  H18B  399   5.418   6.083   9.555 -0.6625 -0.3573 -1.0396
    6CHL1  H18C  400   5.449   6.015   9.711 -2.8658  1.9457  2.1441
    6CHL1   C12  401   5.200   6.145   9.717 -0.7526 -0.0560 -0.4938
    6CHL1  H12A  402   5.233   6.239   9.667 -1.6943  0.9223  0.6571
    6CHL1  H12B  403   5.089   6.151   9.725 -0.6948 -0.2333  0.5196
    6CHL1   C11  404   5.256   6.141   9.862 -0.2916  0.3753 -0.3752
    6CHL1  H11A  405   5.364   6.161   9.845 -0.4698  0.9304 -0.8861
    6CHL1  H11B  406   5.196   6.217   9.917 -1.2147  0.6301 -1.6900
    6CHL1    C9  407   5.248   6.002   9.935  0.0987  0.0223 -0.2471
    6CHL1    H9  408   5.143   5.997   9.970  0.0639  1.6372 -0.0188
    6CHL1   C10  409   5.336   6.001  10.068  0.5523  0.1673 -0.3865
    6CHL1   C19  410   5.488   6.037  10.043  0.2792 -0.0116 -0.0900
    6CHL1  H19A  411   5.487   6.145  10.016 -3.1695 -0.0100 -0.4491
    6CHL1  H19B  412   5.545   6.020  10.136  0.2493  0.8912  0.0966
    6CHL1  H19C  413   5.535   5.986   9.956  1.9064 -1.9202  1.8208
    6CHL1    C1  414   5.281   6.116  10.164 -0.5334  0.2595  0.2524
    6CHL1   H1A  415   5.306   6.220  10.134  1.5316  0.3167  1.9781
    6CHL1   H1B  416   5.171   6.104  10.173 -0.5514 -0.3451 -0.6150
    6CHL1    C2  417   5.328   6.102  10.305  0.2142 -0.1435  0.4549
    6CHL1   H2A  418   5.266   6.167  10.371 -2.6386 -1.5733 -0.6663
    6CHL1   H2B  419   5.436   6.121  10.322  0.1729 -0.3738  0.9996
    6CHL1   C20  420   5.184   6.049   9.387 -0.3632 -0.3848 -0.3434
    6CHL1   H20  421   5.290   6.026   9.363 -0.8425 -2.7019 -0.4484
    6CHL1   C21  422   5.177   6.204   9.420  0.5396  0.4885  0.0894
    6CHL1  H21A  423   5.094   6.230   9.488 -0.0769 -0.4804 -0.2844
    6CHL1  H21B  424   5.171   6.263   9.326  1.0089  0.0807 -0.2019
    6CHL1  H21C  425   5.269   6.247   9.466  0.5783 -0.4725  0.9539
    6CHL1   C22  426   5.087   6.022   9.270 -0.3488  0.2158 -0.6801
    6CHL1  H22A  427   5.090   5.912   9.255 -0.2386  0.1529 -0.2030
    6CHL1  H22B  428   4.992   6.059   9.313  0.5568  1.9435 -0.0718
    6CHL1   C23  429   5.124   6.092   9.138 -0.2317 -0.2263  0.8556
    6CHL1  H23A  430   5.092   6.197   9.123 -1.4247 -1.0425 -3.8883
    6CHL1  H23B  431   5.234   6.092   9.128 -0.1013  2.2726  1.6215
    6CHL1   C24  432   5.062   6.025   9.013  0.0889  0.5424 -0.4369
    6CHL1  H24A  433   5.122   6.052   8.923 -0.1410  1.8826 -0.2062
    6CHL1  H24B  434   5.070   5.916   9.029 -1.0334  0.6051  0.7314
    6CHL1   C25  435   4.922   6.057   8.983  0.4806  0.0347 -0.1776
    6CHL1   H25  436   4.864   6.054   9.077 -0.9131 -3.8529 -0.9995
    6CHL1   C26  437   4.902   6.185   8.914 -0.4020  0.1674  0.3227
    6CHL1  H26A  438   4.960   6.173   8.820 -2.2333 -0.1545 -0.8198
    6CHL1  H26B  439   4.797   6.213   8.891 -0.2948 -0.4055 -0.9441
    6CHL1  H26C  440   4.944   6.269   8.973 -0.4657  0.6404 -0.2944
    6CHL1   C27  441   4.853   5.953   8.896  0.2290  0.2722  0.1800
    6CHL1  H27A  442   4.745   5.966   8.919  0.3747 -0.1964  1.2067
    6CHL1  H27B  443   4.877   5.956   8.788 -0.8537  2.2789 -0.0471
    6CHL1  H27C  444   4.883   5.855   8.940  0.7055  0.2559 -0.1773
    7CHL1    C3  445   0.628   0.639  10.290 -0.8125  0.0644 -0.2948
    7CHL1    H3  446   0.556   0.555  10.303  0.0711 -0.2535  3.9345
    7CHL1    O3  447   0.668   0.678  10.419  0.6532 -0.8738 -0.4301
    7CHL1   H3'  448   0.738   0.616  10.440  1.3650  0.9265  3.3316
    7CHL1    C4  449   0.755   0.594  10.217  0.1959 -0.6907 -0.7545
    7CHL1   H4A  450   0.835   0.671  10.209  1.1763 -1.7335 -1.1810
    7CHL1   H4B  451   0.803   0.508  10.266 -0.6335  0.4086  2.2141
    7CHL1    C5  452   0.727   0.552  10.080  0.1515  0.7222  0.1886
    7CHL1    C6  453   0.756   0.427  10.037 -0.2499  0.8058 -0.0816
    7CHL1    H6  454   0.805   0.358  10.107  0.9672  1.1135 -0.5860
    7CHL1    C7  455   0.716   0.364   9.904 -0.2610  0.5444  0.1476
    7CHL1   H7A  456   0.790   0.298   9.853 -0.1863  1.3603 -0.8409
    7CHL1   H7B  457   0.635   0.290   9.921  1.2662 -1.6725 -1.6521
    7CHL1    C8  458   0.684   0.466   9.791 -0.2027 -0.8022  0.1877
    7CHL1    H8  459   0.779   0.504   9.749 -0.1395 -2.7667 -1.6500
    7CHL1   C14  460   0.608   0.404   9.679  0.1795  0.4589 -0.2060
    7CHL1   H14  461   0.519   0.363   9.731 -1.3967  1.0921 -2.2748
    7CHL1   C15  462   0.674   0.287   9.598 -0.5290 -0.2094 -0.5220
    7CHL1  H15A  463   0.777   0.322   9.579  0.2960 -1.8527  0.7174
    7CHL1  H15B  464   0.674   0.189   9.650  1.2783  0.8601  1.6207
    7CHL1   C16  465   0.597   0.279   9.469 -0.8373 -0.1056 -0.0210
    7CHL1  H16A  466   0.672   0.284   9.388  1.8259  0.7571  2.3383
    7CHL1  H16B  467   0.546   0.180   9.467 -0.7940 -0.2698  2.7357
    7CHL1   C17  468   0.495   0.394   9.469  1.2163 -0.5468 -0.1905
    7CHL1   H17  469   0.401   0.356   9.514  1.2930  0.5839  0.9707
    7CHL1   C13  470   0.559   0.498   9.565  0.4543  0.6047 -0.0871
    7CHL1   C18  471   0.679   0.560   9.499  0.0129  0.1533 -0.1632
    7CHL1  H18A  472   0.746   0.482   9.457 -2.1365 -1.3700 -0.9691
    7CHL1  H18B  473   0.637   0.621   9.417 -2.3837 -0.8531  0.2385
    7CHL1  H18C  474   0.731   0.627   9.571 -0.3104  1.6000 -1.2408
    7CHL1   C12  475   0.468   0.607   9.636 -0.5129  0.0159 -0.6459
    7CHL1  H12A  476   0.446   0.695   9.572  1.1185  0.9799  0.0500
    7CHL1  H12B  477   0.376   0.566   9.682  0.3879  2.3787  3.7607
    7CHL1   C11  478   0.547   0.672   9.748 -0.0019 -0.1717 -0.0730
    7CHL1  H11A  479   0.631   0.731   9.706 -0.8623  1.7190  0.7264
    7CHL1  H11B  480   0.474   0.741   9.796 -1.4131 -0.9333 -1.0658
    7CHL1    C9  481   0.599   0.576   9.860  0.3961  0.2206 -0.1262
    7CHL1    H9  482   0.509   0.522   9.895  0.7426 -0.6901 -0.6007
    7CHL1   C10  483   0.662   0.654   9.982 -0.1970 -0.3504 -0.5834
    7CHL1   C19  484   0.770   0.757   9.939  0.1564  0.0626 -0.1802
    7CHL1  H19A  485   0.856   0.705   9.892  0.0400 -2.0093  1.7221
    7CHL1  H19B  486   0.722   0.841   9.884  1.2780 -0.2939 -1.7920
    7CHL1  H19C  487   0.811   0.809  10.028  0.5230 -0.3371 -0.1111
    7CHL1    C1  488   0.547   0.724  10.067  0.4495  0.2426 -0.3786
    7CHL1   H1A  489   0.524   0.816  10.008  1.2064  0.9326  0.3745
    7CHL1   H1B  490   0.446   0.678  10.071 -1.5552  4.2963  0.4244
    7CHL1    C2  491   0.580   0.763  10.221 -0.5913 -0.0928  0.3014
    7CHL1   H2A  492   0.488   0.798  10.272 -0.8718 -0.5797  0.1325
    7CHL1   H2B  493   0.660   0.840  10.218  0.4154 -1.1552 -1.9205
    7CHL1   C20  494   0.454   0.439   9.323  0.2439  0.3795  0.0208
    7CHL1   H20  495   0.535   0.496   9.272  0.4305  0.0316 -0.0735
    7CHL1   C21  496   0.327   0.521   9.331 -0.3699  0.5751 -0.4956
    7CHL1  H21A  497   0.246   0.453   9.364  1.5690 -0.5688  2.2693
    7CHL1  H21B  498   0.293   0.553   9.230 -2.1437 -1.2266 -0.5363
    7CHL1  H21C  499   0.340   0.604   9.403 -0.9805  1.2618 -1.1558
    7CHL1   C22  500   0.433   0.313   9.224 -0.7090  0.3553 -0.5074
    7CHL1  H22A  501   0.517   0.240   9.219 -1.3817 -0.3672 -1.9536
    7CHL1  H22B  502   0.343   0.260   9.262 -0.5510  2.7161  3.7651
    7CHL1   C23  503   0.409   0.349   9.080  0.5341  0.3297  0.6607
    7CHL1  H23A  504   0.302   0.380   9.084  0.0246 -0.8735 -1.6408
    7CHL1  H23B  505   0.489   0.416   9.042  0.5911 -0.9117 -1.5674
    7CHL1   C24  506   0.395   0.226   8.980 -0.2645  0.0212  0.6060
    7CHL1  H24A  507   0.483   0.160   8.988 -0.4154 -0.1302  1.0659
    7CHL1  H24B  508   0.300   0.170   8.991  0.6001 -2.1600 -2.1519
    7CHL1   C25  509   0.384   0.263   8.828  0.9698  0.4294 -0.2754
    7CHL1   H25  510   0.472   0.325   8.800  0.6058 -0.2344 -3.2953
    7CHL1   C26  511   0.386   0.132   8.753  0.7497  0.2789 -0.1045
    7CHL1  H26A  512   0.477   0.069   8.763 -0.4588 -1.2389  2.5370
    7CHL1  H26B  513   0.301   0.070   8.789  0.1878  2.3165  2.3529
    7CHL1  H26C  514   0.381   0.152   8.644  0.9923  1.1957  0.0402
    7CHL1   C27  515   0.247   0.331   8.799 -0.1158 -0.0952  0.0629
    7CHL1  H27A  516   0.246   0.346   8.689  2.8382  1.0650  0.1077
    7CHL1  H27B  517   0.155   0.277   8.831  0.1933 -0.4565  0.3534
    7CHL1  H27C  518   0.239   0.432   8.845  0.9271  0.2120 -0.3955
    8CHL1    C3  519   1.164   0.692  10.082 -0.2179 -0.8119 -0.6281
    8CHL1    H3  520   1.064   0.739  10.070 -0.0938 -0.2904  0.3103
    8CHL1    O3  521   1.187   0.652  10.221 -0.1463  0.2219 -0.1891
    8CHL1   H3'  522   1.268   0.602  10.210 -0.4040 -0.6410  1.5769
    8CHL1    C4  523   1.170   0.559   9.999 -0.3355 -0.4070  0.5934
    8CHL1   H4A  524   1.263   0.502  10.016  1.2855  1.5029 -1.3775
    8CHL1   H4B  525   1.083   0.493  10.023 -1.9685  2.0132  1.7140
    8CHL1    C5  526   1.157   0.597   9.851 -0.2440  0.2454 -0.4181
    8CHL1    C6  527   1.063   0.542   9.775 -0.4692 -0.0585 -0.2543
    8CHL1    H6  528   0.991   0.467   9.812 -1.2051  0.8034  0.1094
    8CHL1    C7  529   1.055   0.572   9.627  0.0448 -0.1582 -0.0489
    8CHL1   H7A  530   1.040   0.478   9.569  1.8367 -1.7514  1.8753
    8CHL1   H7B  531   0.963   0.633   9.612 -0.2028  0.0634  2.0661
    8CHL1    C8  532   1.175   0.650   9.570 -0.4151 -0.3281  0.2745
    8CHL1    H8  533   1.250   0.569   9.555  0.4627  0.4673  0.2816
    8CHL1   C14  534   1.138   0.706   9.433  0.6451  0.4454  0.3399
    8CHL1   H14  535   1.048   0.768   9.456 -0.8744 -0.8565 -1.6571
    8CHL1   C15  536   1.099   0.601   9.323 -0.3681  0.1253 -0.6785
    8CHL1  H15A  537   1.163   0.511   9.322 -1.2612 -0.5532  0.4650
    8CHL1  H15B  538   0.992   0.569   9.326  0.0051 -1.2987 -1.7452
    8CHL1   C16  539   1.121   0.664   9.188 -0.1521 -0.1886  0.0372
    8CHL1  H16A  540   1.196   0.606   9.129  0.6919  0.9203 -0.0259
    8CHL1  H16B  541   1.024   0.679   9.136 -0.1476 -0.1603  0.0366
    8CHL1   C17  542   1.192   0.792   9.219  0.3508  0.3958  0.0572
    8CHL1   H17  543   1.124   0.880   9.228  1.8578  1.6972 -0.8164
    8CHL1   C13  544   1.246   0.775   9.362 -0.3873 -0.1263 -0.3983
    8CHL1   C18  545   1.375   0.701   9.349 -0.6096  0.2152 -0.5646
    8CHL1  H18A  546   1.427   0.674   9.443 -1.3990  0.5605 -0.0212
    8CHL1  H18B  547   1.371   0.610   9.286  0.3291  0.7096 -1.3902
    8CHL1  H18C  548   1.453   0.767   9.303  1.2022 -0.4452  1.3969
    8CHL1   C12  549   1.259   0.904   9.448  0.4656  0.1476  0.3956
    8CHL1  H12A  550   1.320   0.984   9.401  0.6357  0.0075  0.3780
    8CHL1  H12B  551   1.162   0.953   9.470  0.4730  0.1540  0.4133
    8CHL1   C11  552   1.319   0.870   9.590  0.4874  0.0507 -0.6923
    8CHL1  H11A  553   1.424   0.834   9.592  0.6219  0.4639  1.4145
    8CHL1  H11B  554   1.300   0.961   9.651 -1.4577 -1.8652  1.7619
    8CHL1    C9  555   1.217   0.767   9.658 -0.1797 -0.1861  0.3316
    8CHL1    H9  556   1.126   0.828   9.671  0.1399 -0.2218  3.4976
    8CHL1   C10  557   1.259   0.709   9.796 -0.0867  0.2113  0.8278
    8CHL1   C19  558   1.396   0.647   9.788  0.0645  0.1695  0.3503
    8CHL1  H19A  559   1.395   0.595   9.690 -3.8659  2.2774 -0.9671
    8CHL1  H19B  560   1.486   0.712   9.784  0.7697 -0.8016  0.1367
    8CHL1  H19C  561   1.412   0.566   9.862 -0.7524 -2.0657 -1.7731
    8CHL1    C1  562   1.265   0.830   9.890  0.2666  0.5922  0.0610
    8CHL1   H1A  563   1.351   0.894   9.860  0.1638  1.3670  1.3688
    8CHL1   H1B  564   1.170   0.887   9.880 -0.2463  0.0686  1.6819
    8CHL1    C2  565   1.277   0.795  10.035 -0.5103  0.9681 -0.5728
    8CHL1   H2A  566   1.258   0.886  10.097 -1.9927  0.2813  0.0461
    8CHL1   H2B  567   1.384   0.776  10.058 -0.6838 -0.4840 -0.9138
    8CHL1   C20  568   1.286   0.834   9.105  0.6638 -0.5113  1.1740
    8CHL1   H20  569   1.362   0.754   9.098 -0.2014 -1.1973 -1.7050
    8CHL1   C21  570   1.360   0.962   9.127  0.1993  0.2925 -0.5811
    8CHL1  H21A  571   1.289   1.047   9.123 -1.2306 -0.8240 -0.0109
    8CHL1  H21B  572   1.435   0.979   9.047  1.9594  0.1227  0.9737
    8CHL1  H21C  573   1.419   0.962   9.221 -1.1484 -0.1323  0.2972
    8CHL1   C22  574   1.215   0.834   8.967  0.2930  0.2127  0.0504
    8CHL1  H22A  575   1.286   0.861   8.887 -1.5825 -0.3969 -1.9189
    8CHL1  H22B  576   1.174   0.736   8.934  0.3502  0.0522  0.4441
    8CHL1   C23  577   1.094   0.927   8.963  0.3193 -0.8063  0.0527
    8CHL1  H23A  578   1.003   0.880   9.006 -0.0399  2.0375  2.7461
    8CHL1  H23B  579   1.116   1.017   9.024 -1.3209 -0.6189  0.4234
    8CHL1   C24  580   1.070   0.981   8.827 -0.2602 -0.4093  0.2001
    8CHL1  H24A  581   1.165   1.023   8.785 -0.2900 -1.0182 -0.4969
    8CHL1  H24B  582   1.027   0.897   8.768 -1.5074 -1.2291  2.1757
    8CHL1   C25  583   0.972   1.105   8.825  0.0673 -0.1095 -0.3826
    8CHL1   H25  584   1.017   1.177   8.897 -1.3619 -0.4787  0.9410
    8CHL1   C26  585   0.956   1.162   8.682  0.1339 -0.0314 -1.0577
    8CHL1  H26A  586   0.895   1.097   8.616 -0.7465  1.8978 -2.2473
    8CHL1  H26B  587   0.897   1.256   8.692 -2.8188 -1.8533 -0.0280
    8CHL1  H26C  588   1.052   1.177   8.628  0.0708 -0.6969 -1.3622
    8CHL1   C27  589   0.834   1.077   8.874  0.7123 -0.1505  0.1703
    8CHL1  H27A  590   0.804   1.180   8.902  0.4328  0.3645 -1.8655
    8CHL1  H27B  591   0.769   1.017   8.806  3.2096 -2.1539 -0.6142
    8CHL1  H27C  592   0.840   1.019   8.969 -1.7519 -1.2280 -0.2348
    9CHL1    C3  593   2.386   0.906  10.016 -0.2822 -0.5334 -0.3490
    9CHL1    H3  594   2.437   1.004  10.002  0.6263 -0.8049  0.7978
    9CHL1    O3  595   2.362   0.874  10.154 -0.4384  0.2848  0.0107
    9CHL1   H3'  596   2.451   0.886  10.189 -0.4456  0.4355 -0.0213
    9CHL1    C4  597   2.256   0.904   9.941  0.2357  0.2245 -0.3895
    9CHL1   H4A  598   2.204   0.807   9.961  0.5176  0.3226  0.9152
    9CHL1   H4B  599   2.191   0.985   9.981 -0.6503 -0.9301  0.5967
    9CHL1    C5  600   2.253   0.906   9.795  0.4664 -0.3132  0.9996
    9CHL1    C6  601   2.169   0.997   9.736 -0.6252  0.3539 -0.6087
    9CHL1    H6  602   2.104   1.060   9.799 -0.9768 -0.3738 -0.2319
    9CHL1    C7  603   2.163   1.016   9.588 -0.3658  0.0453 -0.1056
    9CHL1   H7A  604   2.059   1.019   9.549 -0.2711 -2.1476 -0.7031
    9CHL1   H7B  605   2.221   1.110   9.578  3.4770 -1.7523  2.6485
    9CHL1    C8  606   2.239   0.904   9.509  0.3005  0.0746 -0.2471
    9CHL1    H8  607   2.165   0.821   9.512  0.0378  0.3340  1.4443
    9CHL1   C14  608   2.263   0.950   9.373 -0.0853  0.3356 -0.0734
    9CHL1   H14  609   2.314   1.049   9.378  0.4432  0.4149 -4.0652
    9CHL1   C15  610   2.140   0.990   9.290  0.4586  0.1711 -0.3914
    9CHL1  H15A  611   2.064   0.909   9.293  0.3821  0.2666  0.3309
    9CHL1  H15B  612   2.093   1.083   9.328  1.6884  0.9937 -0.8318
    9CHL1   C16  613   2.190   0.996   9.142  0.2003  0.0690 -0.3154
    9CHL1  H16A  614   2.112   0.936   9.090  0.6290  0.4184 -1.3956
    9CHL1  H16B  615   2.176   1.098   9.101  0.9234  0.8947  1.3902
    9CHL1   C17  616   2.330   0.943   9.149 -0.3522  0.2071  0.2567
    9CHL1   H17  617   2.394   1.031   9.172 -0.1164 -0.3682  1.9730
    9CHL1   C13  618   2.342   0.858   9.278 -1.2147  0.1537  0.1182
    9CHL1   C18  619   2.284   0.719   9.260  0.7378 -0.4661 -0.2044
    9CHL1  H18A  620   2.260   0.673   9.359  1.3756 -1.5478 -0.5319
    9CHL1  H18B  621   2.190   0.717   9.202 -1.0072 -1.5560  2.4763
    9CHL1  H18C  622   2.356   0.654   9.204  0.8397  0.0621 -0.6918
    9CHL1   C12  623   2.482   0.843   9.338  0.8282  0.2270  0.7560
    9CHL1  H12A  624   2.532   0.755   9.290  0.5680  0.2359  0.4666
    9CHL1  H12B  625   2.543   0.936   9.327  2.9574 -1.2063 -0.2806
    9CHL1   C11  626   2.475   0.795   9.487 -0.2197  0.1221 -0.3598
    9CHL1  H11A  627   2.434   0.692   9.489 -0.8429  0.3434 -1.1997
    9CHL1  H11B  628   2.574   0.788   9.536 -0.4043 -1.7275 -0.1676
    9CHL1    C9  629   2.368   0.874   9.575 -0.8974  0.2601  0.6672
    9CHL1    H9  630   2.413   0.976   9.582 -0.4103  0.2025 -1.3051
    9CHL1   C10  631   2.358   0.825   9.719 -0.1692 -0.1258 -0.6028
    9CHL1   C19  632   2.322   0.678   9.715  0.1810 -0.1567  0.2797
    9CHL1  H19A  633   2.228   0.669   9.656  0.8183 -0.2241 -0.7525
    9CHL1  H19B  634   2.405   0.617   9.675  0.2497  1.8936 -3.1265
    9CHL1  H19C  635   2.294   0.639   9.815  1.4771  2.0262  1.5819
    9CHL1    C1  636   2.495   0.829   9.793 -0.8770  0.2656 -0.3370
    9CHL1   H1A  637   2.571   0.761   9.748 -0.8120 -0.5216  0.8905
    9CHL1   H1B  638   2.535   0.932   9.785 -1.1818  0.6013  1.7830
    9CHL1    C2  639   2.479   0.798   9.945 -0.6004  0.1120 -0.0567
    9CHL1   H2A  640   2.576   0.805   9.999 -0.3304 -0.4437 -0.4529
    9CHL1   H2B  641   2.435   0.697   9.958  0.0174  0.0660  2.0443
    9CHL1   C20  642   2.392   0.888   9.012 -0.5545 -0.4494  0.4643
    9CHL1   H20  643   2.495   0.847   9.023  0.0205  0.5801 -0.7347
    9CHL1   C21  644   2.398   1.009   8.922 -0.8420 -0.1698 -0.1962
    9CHL1  H21A  645   2.466   1.088   8.960 -0.6604 -0.8235  0.9031
    9CHL1  H21B  646   2.299   1.060   8.917 -1.2612 -0.7311  1.6145
    9CHL1  H21C  647   2.440   0.993   8.820 -0.1997  0.6985 -0.0768
    9CHL1   C22  648   2.298   0.791   8.942 -0.4694  0.3927  0.0815
    9CHL1  H22A  649   2.279   0.702   9.005 -0.3100  0.2312 -0.0993
    9CHL1  H22B  650   2.198   0.836   8.925 -1.3539 -0.9726  1.4211
    9CHL1   C23  651   2.348   0.727   8.809  0.1621  0.6827  0.0984
    9CHL1  H23A  652   2.266   0.683   8.749  0.8610  0.3206 -0.6066
    9CHL1  H23B  653   2.388   0.797   8.732  0.6802 -0.9174 -1.1278
    9CHL1   C24  654   2.462   0.621   8.829  0.8601 -0.3765  0.3452
    9CHL1  H24A  655   2.552   0.679   8.858 -0.5675  1.5937  1.0466
    9CHL1  H24B  656   2.444   0.569   8.926  1.1409  1.6224  1.5234
    9CHL1   C25  657   2.470   0.517   8.715  1.3189  0.0207 -0.5260
    9CHL1   H25  658   2.363   0.500   8.690  1.7165  0.2078 -2.4969
    9CHL1   C26  659   2.523   0.558   8.575 -0.1789  0.4023 -0.0846
    9CHL1  H26A  660   2.475   0.499   8.494  2.1594  0.6108 -1.7087
    9CHL1  H26B  661   2.516   0.664   8.543  1.5955  0.2017 -1.2393
    9CHL1  H26C  662   2.630   0.531   8.582 -0.1198  0.7395  0.4263
    9CHL1   C27  663   2.542   0.394   8.766  0.0522  0.2045  0.5486
    9CHL1  H27A  664   2.495   0.361   8.861  0.9839 -0.1496  0.9033
    9CHL1  H27B  665   2.510   0.311   8.700 -3.2289  1.7139  0.0628
    9CHL1  H27C  666   2.652   0.400   8.781  0.2761 -1.2621 -0.2736
   10CHL1    C3  667   2.194   3.735  10.220 -0.2145  0.4850 -0.1206
   10CHL1    H3  668   2.156   3.839  10.231 -2.6394 -0.4344  0.7202
   10CHL1    O3  669   2.194   3.675  10.349 -0.0952  0.2399 -0.4288
   10CHL1   H3'  670   2.263   3.609  10.347 -0.4788 -0.2145  0.9517
   10CHL1    C4  671   2.092   3.667  10.133  1.0989 -0.0458  1.1999
   10CHL1   H4A  672   2.105   3.557  10.132  0.0701 -0.1788 -0.0333
   10CHL1   H4B  673   1.992   3.683  10.178  1.2981  0.6025  1.4220
   10CHL1    C5  674   2.093   3.726   9.989 -0.0261 -0.3411 -0.0856
   10CHL1    C6  675   1.982   3.772   9.936 -0.8404  0.4841 -0.4208
   10CHL1    H6  676   1.890   3.772   9.996 -0.5822  0.2714 -0.0257
   10CHL1    C7  677   1.977   3.817   9.792 -0.5100  0.3516  0.1336
   10CHL1   H7A  678   1.883   3.788   9.740  0.8052 -0.5603 -1.8679
   10CHL1   H7B  679   1.991   3.927   9.794  2.0504  0.1471 -1.3120
   10CHL1    C8  680   2.090   3.753   9.713  0.0873  0.3914  0.1740
   10CHL1    H8  681   2.062   3.646   9.701 -2.5614  1.1751 -1.5333
   10CHL1   C14  682   2.095   3.811   9.577  0.9433 -0.6065  0.1473
   10CHL1   H14  683   2.116   3.918   9.594 -1.0296  0.0296 -1.0180
   10CHL1   C15  684   1.968   3.810   9.490 -0.1752  0.6047 -0.4196
   10CHL1  H15A  685   1.910   3.717   9.508 -0.8287  1.0985  0.0994
   10CHL1  H15B  686   1.907   3.899   9.518 -0.2065  0.6597 -0.6565
   10CHL1   C16  687   2.011   3.832   9.345 -0.2664 -0.3641  0.4469
   10CHL1  H16A  688   1.966   3.757   9.277 -0.6630  2.0858 -2.1955
   10CHL1  H16B  689   1.980   3.933   9.311  0.2497 -0.6957 -1.0610
   10CHL1   C17  690   2.166   3.831   9.361 -0.0718 -0.1530  0.5055
   10CHL1   H17  691   2.194   3.934   9.393 -0.4156 -0.3919  1.6323
   10CHL1   C13  692   2.206   3.759   9.489 -0.3467  0.2055  0.1254
   10CHL1   C18  693   2.194   3.610   9.458 -0.1146  0.4406 -0.7342
   10CHL1  H18A  694   2.113   3.583   9.386 -0.2398 -0.5278 -0.2574
   10CHL1  H18B  695   2.279   3.559   9.408 -0.9873  0.0306 -1.8395
   10CHL1  H18C  696   2.185   3.555   9.554  0.8025 -0.3500 -1.0808
   10CHL1   C12  697   2.344   3.791   9.545  0.2149 -0.1538 -0.9824
   10CHL1  H12A  698   2.414   3.737   9.478  1.2935 -1.3192  1.0057
   10CHL1  H12B  699   2.373   3.898   9.540 -1.7646  0.4460 -0.6426
   10CHL1   C11  700   2.353   3.727   9.686 -0.9727 -0.1883  0.0023
   10CHL1  H11A  701   2.350   3.616   9.677  1.7474 -0.2524 -1.1855
   10CHL1  H11B  702   2.447   3.761   9.733 -1.5754  1.1649  0.2677
   10CHL1    C9  703   2.232   3.771   9.778  0.6943 -0.0752  0.7766
   10CHL1    H9  704   2.241   3.881   9.780  3.6830 -0.2494  1.4806
   10CHL1   C10  705   2.229   3.711   9.920  0.5667 -1.1981 -0.3113
   10CHL1   C19  706   2.273   3.566   9.909 -0.1275 -0.3746  0.7763
   10CHL1  H19A  707   2.206   3.502   9.848  0.9891  0.4652 -1.4705
   10CHL1  H19B  708   2.380   3.547   9.887 -0.5699 -2.1763 -0.0209
   10CHL1  H19C  709   2.270   3.526  10.012  2.2089 -1.7968  0.3664
   10CHL1    C1  710   2.325   3.784  10.021  0.8424 -0.0389 -0.4404
   10CHL1   H1A  711   2.427   3.775   9.978  1.0954 -0.6073  0.2704
   10CHL1   H1B  712   2.298   3.892  10.030 -0.6241 -0.3636 -0.6771
   10CHL1    C2  713   2.326   3.722  10.159 -0.1745  0.1174  0.2988
   10CHL1   H2A  714   2.397   3.780  10.222 -1.7026  1.4638  0.8602
   10CHL1   H2B  715   2.366   3.618  10.160 -0.9391 -0.3652 -3.6581
   10CHL1   C20  716   2.243   3.790   9.232  0.6427  0.1405  0.1203
   10CHL1   H20  717   2.334   3.733   9.261 -1.3963 -2.5679  1.6709
   10CHL1   C21  718   2.283   3.927   9.172 -0.3531 -0.0962 -0.2382
   10CHL1  H21A  719   2.352   3.966   9.250 -0.8594 -0.1163  0.2220
   10CHL1  H21B  720   2.203   3.999   9.148 -0.6070 -0.3037 -0.0177
   10CHL1  H21C  721   2.347   3.920   9.081  1.2617  0.1482  0.8379
   10CHL1   C22  722   2.166   3.703   9.132 -0.3611  0.5621  0.3098
   10CHL1  H22A  723   2.102   3.625   9.180  0.2846  0.0437  0.3438
   10CHL1  H22B  724   2.095   3.759   9.068  0.2643  0.5077 -0.4494
   10CHL1   C23  725   2.270   3.638   9.028  0.2706 -0.3490  0.1067
   10CHL1  H23A  726   2.332   3.707   8.966  1.5964 -0.9431  0.7179
   10CHL1  H23B  727   2.336   3.581   9.096 -0.4441  1.3406  2.3362
   10CHL1   C24  728   2.189   3.541   8.931  0.1095  0.0684  0.2823
   10CHL1  H24A  729   2.169   3.449   8.990  1.8597  0.3074  1.3083
   10CHL1  H24B  730   2.087   3.577   8.908 -0.6306 -1.4980  0.9598
   10CHL1   C25  731   2.249   3.502   8.793  0.5971  0.0935  0.0564
   10CHL1   H25  732   2.345   3.448   8.810 -1.3307 -2.7898  3.0848
   10CHL1   C26  733   2.165   3.383   8.729  0.4432 -0.3747 -0.1076
   10CHL1  H26A  734   2.056   3.395   8.748  0.2599 -0.5888 -1.0000
   10CHL1  H26B  735   2.189   3.366   8.622 -2.0656 -0.7892 -0.6640
   10CHL1  H26C  736   2.171   3.283   8.777 -0.1956 -0.0691  0.6375
   10CHL1   C27  737   2.261   3.613   8.696 -0.6122  0.4903 -0.8055
   10CHL1  H27A  738   2.157   3.641   8.672 -1.5568 -1.4842  0.7274
   10CHL1  H27B  739   2.307   3.697   8.753  0.7436 -0.3708 -0.5712
   10CHL1  H27C  740   2.323   3.586   8.607 -1.2180  0.1882 -1.1398
   11CHL1    C3  741   3.171   0.829  10.229  0.4171  0.4253 -0.7696
   11CHL1    H3  742   3.084   0.885  10.187 -0.0890  0.0698 -0.2063
   11CHL1    O3  743   3.148   0.806  10.365  0.1181 -0.5054 -0.0785
   11CHL1   H3'  744   3.161   0.713  10.381 -0.0084 -0.9224 -2.1368
   11CHL1    C4  745   3.189   0.685  10.167 -0.3030 -0.4655  0.0636
   11CHL1   H4A  746   3.268   0.631  10.222 -0.9821 -2.4686 -0.8440
   11CHL1   H4B  747   3.090   0.636  10.183 -0.2062 -1.3973 -1.9331
   11CHL1    C5  748   3.220   0.687  10.018 -0.3927  0.8879  0.0287
   11CHL1    C6  749   3.141   0.630   9.928 -0.3530 -0.3098 -0.0581
   11CHL1    H6  750   3.061   0.569   9.973 -0.7082  0.5120  0.4498
   11CHL1    C7  751   3.157   0.630   9.772  0.4221 -0.2448 -0.0422
   11CHL1   H7A  752   3.148   0.529   9.728 -0.9138 -0.6998  1.1920
   11CHL1   H7B  753   3.084   0.696   9.722  1.9789  2.6027  1.1881
   11CHL1    C8  754   3.309   0.668   9.745 -0.3671 -0.0898 -0.5790
   11CHL1    H8  755   3.365   0.577   9.775  1.2154  0.6987 -1.0612
   11CHL1   C14  756   3.325   0.697   9.599  0.7467 -0.2958  0.0674
   11CHL1   H14  757   3.248   0.775   9.584 -0.1411 -0.7792  1.7576
   11CHL1   C15  758   3.279   0.583   9.506 -0.5375  0.2574  0.0488
   11CHL1  H15A  759   3.321   0.490   9.550  1.0857  1.3336  0.8844
   11CHL1  H15B  760   3.169   0.573   9.501 -0.7634  2.4521 -0.0620
   11CHL1   C16  761   3.363   0.618   9.378  0.6651  0.3566  0.3090
   11CHL1  H16A  762   3.428   0.529   9.362  0.7424  0.2378  1.2224
   11CHL1  H16B  763   3.291   0.638   9.296  0.4852  2.2370  0.8677
   11CHL1   C17  764   3.443   0.744   9.411  0.0531 -0.1954 -0.2429
   11CHL1   H17  765   3.380   0.831   9.385 -0.4847  0.0847  1.8227
   11CHL1   C13  766   3.465   0.755   9.558  0.2277  0.5549 -0.3840
   11CHL1   C18  767   3.577   0.656   9.606 -0.2821  0.3889 -0.1007
   11CHL1  H18A  768   3.572   0.564   9.544  1.5627  0.4071 -0.3253
   11CHL1  H18B  769   3.678   0.701   9.590 -0.3004 -0.3317 -2.6665
   11CHL1  H18C  770   3.567   0.631   9.714 -1.0408  0.1655 -0.2137
   11CHL1   C12  771   3.489   0.889   9.626  0.1137  0.2446  0.0535
   11CHL1  H12A  772   3.582   0.945   9.603  0.2013  0.0360 -0.1159
   11CHL1  H12B  773   3.404   0.946   9.583 -0.6987 -1.2230 -0.3694
   11CHL1   C11  774   3.467   0.879   9.775  0.1231  0.3708 -0.0592
   11CHL1  H11A  775   3.559   0.829   9.814 -0.2643  0.7916  1.4729
   11CHL1  H11B  776   3.455   0.979   9.820  0.5819  0.2701  0.2988
   11CHL1    C9  777   3.340   0.797   9.824 -0.6713  0.0825 -0.1994
   11CHL1    H9  778   3.263   0.869   9.791  1.1414  1.6057 -1.2782
   11CHL1   C10  779   3.334   0.777   9.975 -0.5073  0.4539  0.1661
   11CHL1   C19  780   3.462   0.707  10.027  0.6115 -0.0427 -0.9658
   11CHL1  H19A  781   3.454   0.706  10.138  2.1715  1.8682 -0.7913
   11CHL1  H19B  782   3.487   0.600  10.009  2.5747 -0.0110  1.1822
   11CHL1  H19C  783   3.554   0.763  10.001  0.6639  0.7501  0.7796
   11CHL1    C1  784   3.321   0.915  10.044 -0.8746  0.8662  0.1590
   11CHL1   H1A  785   3.414   0.975  10.035 -0.2627 -0.0473  0.3799
   11CHL1   H1B  786   3.237   0.974  10.000  0.2922  1.6982 -1.0509
   11CHL1    C2  787   3.299   0.910  10.202 -0.1572  0.0474  0.4402
   11CHL1   H2A  788   3.289   1.010  10.248  2.2312  0.2793  0.5762
   11CHL1   H2B  789   3.384   0.867  10.259 -0.7110  0.9214  1.9527
   11CHL1   C20  790   3.568   0.750   9.320 -0.2213 -0.4095 -0.4108
   11CHL1   H20  791   3.641   0.671   9.349  0.8931  0.8413  0.3216
   11CHL1   C21  792   3.630   0.891   9.323  1.1447  0.1257  0.3120
   11CHL1  H21A  793   3.729   0.905   9.274  1.3467 -0.4191  0.5502
   11CHL1  H21B  794   3.648   0.935   9.424  0.9974  0.8270  0.0413
   11CHL1  H21C  795   3.548   0.957   9.287  1.4590 -0.1409 -0.9195
   11CHL1   C22  796   3.537   0.721   9.172  0.2572 -0.1967 -0.4745
   11CHL1  H22A  797   3.475   0.631   9.150  0.0750 -0.2384  0.2032
   11CHL1  H22B  798   3.483   0.806   9.126 -0.3510  1.1047  2.4388
   11CHL1   C23  799   3.663   0.701   9.081 -0.3222 -0.4714  0.2883
   11CHL1  H23A  800   3.728   0.791   9.089 -1.3349  0.4793 -1.5519
   11CHL1  H23B  801   3.708   0.608   9.124 -0.3551 -0.7269 -0.2272
   11CHL1   C24  802   3.618   0.690   8.939  0.1702 -0.5255 -0.1998
   11CHL1  H24A  803   3.539   0.612   8.931  0.4876 -0.8310 -0.4040
   11CHL1  H24B  804   3.562   0.784   8.923 -0.6062 -0.6547  1.5260
   11CHL1   C25  805   3.725   0.659   8.837 -0.1497  0.2916  0.2196
   11CHL1   H25  806   3.768   0.559   8.859  0.7352  0.5718 -0.1508
   11CHL1   C26  807   3.666   0.648   8.691 -0.5835 -0.0777  0.8529
   11CHL1  H26A  808   3.745   0.665   8.614 -1.3051 -0.7183 -0.0548
   11CHL1  H26B  809   3.617   0.550   8.671 -0.2232 -0.3925  1.4871
   11CHL1  H26C  810   3.602   0.736   8.669 -2.4030 -1.0254  2.1041
   11CHL1   C27  811   3.849   0.752   8.832 -0.2583 -0.2206  0.2151
   11CHL1  H27A  812   3.905   0.731   8.925 -0.6324 -0.5572  0.3680
   11CHL1  H27B  813   3.902   0.711   8.743 -1.9058 -1.6756 -0.1497
   11CHL1  H27C  814   3.829   0.859   8.811  1.0885  0.0040  0.0123
   12CHL1    C3  815   0.237   3.139  10.202  0.0881  0.1320  0.0037
   12CHL1    H3  816   0.139   3.192  10.205 -1.1715 -2.1098  0.3226
   12CHL1    O3  817   0.272   3.101  10.338  0.2289 -0.1154  0.0909
   12CHL1   H3'  818   0.360   3.139  10.349  0.2200 -0.5465  1.9082
   12CHL1    C4  819   0.213   3.014  10.112  0.1051  0.1713  0.1495
   12CHL1   H4A  820   0.298   2.945  10.129  1.4257  1.7403  0.0999
   12CHL1   H4B  821   0.119   2.970  10.153 -0.5934  0.5283 -1.0401
   12CHL1    C5  822   0.201   3.050   9.961  0.3232 -0.2386 -0.2213
   12CHL1    C6  823   0.095   3.019   9.890 -0.2575  0.2442 -0.1193
   12CHL1    H6  824   0.007   2.965   9.928  1.0477 -2.0401 -0.2115
   12CHL1    C7  825   0.076   3.056   9.743 -0.3669  0.8278 -0.9226
   12CHL1   H7A  826   0.045   2.960   9.698  0.8226 -1.2555  2.3287
   12CHL1   H7B  827  -0.002   3.135   9.738 -0.2729  0.9097 -1.0930
   12CHL1    C8  828   0.212   3.095   9.677 -0.0592  0.1048 -0.5438
   12CHL1    H8  829   0.276   3.006   9.657 -2.6471 -2.1753  0.7185
   12CHL1   C14  830   0.172   3.163   9.551 -0.0344 -0.0931 -0.9139
   12CHL1   H14  831   0.122   3.259   9.579 -2.9945 -1.3555 -1.4690
   12CHL1   C15  832   0.069   3.099   9.458  0.5380  0.2484 -0.2800
   12CHL1  H15A  833   0.071   2.988   9.455 -1.2546  0.1751  0.2710
   12CHL1  H15B  834  -0.027   3.126   9.507 -0.9559  0.7234 -3.2328
   12CHL1   C16  835   0.087   3.169   9.331 -0.0105  0.2296 -0.5482
   12CHL1  H16A  836   0.105   3.094   9.250 -0.1268 -1.4018  0.8843
   12CHL1  H16B  837  -0.001   3.232   9.305 -1.2923 -0.1112  2.6021
   12CHL1   C17  838   0.208   3.267   9.350  0.3736 -0.2862  0.4876
   12CHL1   H17  839   0.161   3.354   9.400 -0.3661 -0.6130  0.3729
   12CHL1   C13  840   0.293   3.213   9.465 -0.2945 -0.4670 -0.0635
   12CHL1   C18  841   0.387   3.103   9.424  0.0382  0.2862  0.1165
   12CHL1  H18A  842   0.446   3.062   9.509  0.9206 -0.9205 -1.0349
   12CHL1  H18B  843   0.332   3.018   9.378  1.9171 -0.0804 -1.6051
   12CHL1  H18C  844   0.456   3.141   9.345 -0.3676 -0.5692 -0.6577
   12CHL1   C12  845   0.352   3.318   9.558  0.5218  0.5155 -0.9584
   12CHL1  H12A  846   0.443   3.364   9.514  1.6910  2.0490  2.6618
   12CHL1  H12B  847   0.277   3.392   9.594 -1.8021 -2.3603  0.5641
   12CHL1   C11  848   0.395   3.263   9.697  0.4813  0.6413  0.1725
   12CHL1  H11A  849   0.481   3.195   9.677  0.3672  0.7909 -0.9176
   12CHL1  H11B  850   0.439   3.339   9.765  2.6662 -0.6843  0.3544
   12CHL1    C9  851   0.281   3.192   9.774 -0.3389 -0.3388  0.3554
   12CHL1    H9  852   0.205   3.272   9.791 -0.7745 -0.6711  0.0095
   12CHL1   C10  853   0.316   3.141   9.909  0.3270 -0.2097 -0.4568
   12CHL1   C19  854   0.450   3.058   9.889  0.3325 -0.7973  0.5943
   12CHL1  H19A  855   0.533   3.129   9.907 -0.2261  0.4652 -1.4728
   12CHL1  H19B  856   0.460   2.977   9.965  0.8926  0.1178  1.5350
   12CHL1  H19C  857   0.468   3.016   9.788 -0.4827 -1.8500  0.8697
   12CHL1    C1  858   0.334   3.261  10.006 -0.7129 -0.3360  0.4500
   12CHL1   H1A  859   0.428   3.314   9.979  0.4106 -1.3992  2.0915
   12CHL1   H1B  860   0.248   3.330   9.990  1.8261  2.6610 -1.5618
   12CHL1    C2  861   0.350   3.230  10.153 -0.6118 -0.5823  0.2642
   12CHL1   H2A  862   0.344   3.330  10.202 -0.8318 -0.0260 -0.8691
   12CHL1   H2B  863   0.446   3.177  10.171 -1.0490 -1.1076  1.1286
   12CHL1   C20  864   0.289   3.325   9.225  0.1506  0.4466  0.1816
   12CHL1   H20  865   0.385   3.367   9.261  1.5757 -1.3296 -1.3226
   12CHL1   C21  866   0.217   3.455   9.176 -0.2918  0.1668  0.4173
   12CHL1  H21A  867   0.279   3.502   9.097  1.8240 -1.5032  0.9798
   12CHL1  H21B  868   0.207   3.526   9.260 -0.9476 -0.6989  1.0960
   12CHL1  H21C  869   0.121   3.432   9.125 -0.2502  0.5528  0.1632
   12CHL1   C22  870   0.331   3.218   9.118 -0.3015 -0.3273 -0.4580
   12CHL1  H22A  871   0.408   3.149   9.159 -0.0287  1.0348  1.4285
   12CHL1  H22B  872   0.243   3.152   9.102  1.5880 -3.2961  0.4932
   12CHL1   C23  873   0.381   3.284   8.992  0.4745  0.6616  0.2736
   12CHL1  H23A  874   0.302   3.351   8.952  1.7311  1.8674 -0.2657
   12CHL1  H23B  875   0.471   3.347   9.009  1.8214 -1.2326  0.5529
   12CHL1   C24  876   0.404   3.170   8.889 -0.3140 -0.6671  0.1768
   12CHL1  H24A  877   0.497   3.120   8.924  0.1018 -0.4140 -0.5650
   12CHL1  H24B  878   0.326   3.091   8.901  1.5282 -2.8601 -1.4937
   12CHL1   C25  879   0.412   3.221   8.751  0.2901  0.0964  0.5074
   12CHL1   H25  880   0.324   3.284   8.725 -0.9501 -1.5709  0.5266
   12CHL1   C26  881   0.535   3.298   8.716  0.3689  0.8210 -0.8192
   12CHL1  H26A  882   0.536   3.363   8.626  0.2873  0.4015 -1.1223
   12CHL1  H26B  883   0.557   3.356   8.809  1.0599  0.4772 -0.7628
   12CHL1  H26C  884   0.623   3.233   8.699  0.5861  1.1590 -0.9926
   12CHL1   C27  885   0.403   3.099   8.659  0.2019  0.5089  0.2756
   12CHL1  H27A  886   0.316   3.041   8.698  1.3901 -0.2060  2.0043
   12CHL1  H27B  887   0.402   3.135   8.554 -0.5020  2.0489  0.7922
   12CHL1  H27C  888   0.492   3.035   8.678 -0.5128  0.0483  2.4455
   13CHL1    C3  889   0.528   2.545   9.920  0.0251  0.1255  0.4982
   13CHL1    H3  890   0.621   2.494   9.887  1.0359  1.0831  1.7643
   13CHL1    O3  891   0.527   2.549  10.053  0.2189  0.2516  0.3350
   13CHL1   H3'  892   0.432   2.546  10.067  0.3302 -2.3369  1.1060
   13CHL1    C4  893   0.521   2.687   9.868 -0.3498  1.0906  0.0093
   13CHL1   H4A  894   0.431   2.733   9.913 -1.8245  1.0019 -2.6456
   13CHL1   H4B  895   0.609   2.740   9.911  1.2415 -0.4312 -1.2078
   13CHL1    C5  896   0.521   2.681   9.725  0.6879 -0.2105  0.4288
   13CHL1    C6  897   0.623   2.741   9.657 -0.4919  0.7862 -0.1637
   13CHL1    H6  898   0.703   2.795   9.709 -0.4131  2.0216 -1.5066
   13CHL1    C7  899   0.620   2.749   9.505  1.5122 -0.2848  0.5371
   13CHL1   H7A  900   0.640   2.854   9.477  1.6655 -0.1659  1.0749
   13CHL1   H7B  901   0.696   2.690   9.451 -0.7833 -0.4630 -2.8070
   13CHL1    C8  902   0.480   2.716   9.447  0.1720  0.1897 -0.3528
   13CHL1    H8  903   0.407   2.797   9.468 -0.3327  0.0549 -1.5199
   13CHL1   C14  904   0.486   2.704   9.295 -0.7940 -0.6511 -0.9218
   13CHL1   H14  905   0.551   2.615   9.278  0.0825 -0.0602 -0.7337
   13CHL1   C15  906   0.544   2.820   9.217 -0.1984 -0.7497  0.1015
   13CHL1  H15A  907   0.513   2.921   9.253  0.6387 -0.4034 -0.1283
   13CHL1  H15B  908   0.655   2.816   9.222 -0.1205  0.6858  0.0615
   13CHL1   C16  909   0.493   2.804   9.080  0.0170 -0.0254  0.2916
   13CHL1  H16A  910   0.446   2.903   9.061 -0.5090 -0.7054 -2.4198
   13CHL1  H16B  911   0.564   2.797   8.994 -0.2862 -1.3201  0.1180
   13CHL1   C17  912   0.395   2.678   9.080  0.1493 -0.2492 -0.1511
   13CHL1   H17  913   0.463   2.592   9.063  2.5288  1.6141 -0.5796
   13CHL1   C13  914   0.358   2.655   9.231  0.0341 -0.2648  0.6360
   13CHL1   C18  915   0.236   2.755   9.252 -1.0034 -0.2287  0.5959
   13CHL1  H18A  916   0.154   2.730   9.181  0.5393  0.9052 -1.7164
   13CHL1  H18B  917   0.188   2.746   9.352 -1.5427 -2.5650  0.1907
   13CHL1  H18C  918   0.265   2.862   9.241 -0.4483 -0.1929  2.1950
   13CHL1   C12  919   0.318   2.511   9.268 -0.1229  0.2334 -0.3949
   13CHL1  H12A  920   0.225   2.473   9.222  0.2826 -0.1833 -0.8809
   13CHL1  H12B  921   0.396   2.444   9.227  2.4339  2.8289 -0.1571
   13CHL1   C11  922   0.308   2.512   9.428 -0.4016  0.1495  0.4798
   13CHL1  H11A  923   0.212   2.562   9.453 -0.4749  0.2733 -0.0383
   13CHL1  H11B  924   0.310   2.405   9.460 -1.6584 -0.1033 -0.2209
   13CHL1    C9  925   0.429   2.587   9.505  0.3131  0.3346 -0.1022
   13CHL1    H9  926   0.512   2.514   9.496 -0.0018 -0.2551  1.4262
   13CHL1   C10  927   0.406   2.605   9.658  0.0723  0.2599  0.3860
   13CHL1   C19  928   0.277   2.697   9.687 -0.6811 -0.3401  0.2687
   13CHL1  H19A  929   0.252   2.686   9.795  0.1765 -0.6065  0.4477
   13CHL1  H19B  930   0.297   2.804   9.667 -0.1742 -0.4288  0.2928
   13CHL1  H19C  931   0.195   2.676   9.615 -1.4830 -0.3992  1.1770
   13CHL1    C1  932   0.381   2.466   9.723 -0.0912 -0.1254 -0.5447
   13CHL1   H1A  933   0.274   2.442   9.704 -0.0084  0.0104 -1.1860
   13CHL1   H1B  934   0.454   2.394   9.681  0.5392  1.4260 -2.2276
   13CHL1    C2  935   0.402   2.467   9.873 -0.3405 -0.6612 -0.2216
   13CHL1   H2A  936   0.403   2.364   9.914 -1.1526 -0.5696  0.0540
   13CHL1   H2B  937   0.311   2.512   9.917 -2.1191 -3.4812 -0.7429
   13CHL1   C20  938   0.297   2.680   8.959 -0.2871  0.1557 -0.4055
   13CHL1   H20  939   0.215   2.612   8.991  0.3307 -1.1198 -1.4494
   13CHL1   C21  940   0.355   2.607   8.835 -0.4810 -0.5045 -0.0079
   13CHL1  H21A  941   0.403   2.509   8.857  2.3350  0.3312 -1.9424
   13CHL1  H21B  942   0.437   2.672   8.800 -0.9717  0.1942  0.1116
   13CHL1  H21C  943   0.275   2.588   8.760 -2.2825  1.9834  1.1465
   13CHL1   C22  944   0.224   2.811   8.921  0.4665 -0.2566  0.3219
   13CHL1  H22A  945   0.201   2.860   9.019  1.3675  0.1019  0.3620
   13CHL1  H22B  946   0.301   2.880   8.881  1.4078  0.7687  3.5895
   13CHL1   C23  947   0.092   2.807   8.837  0.2623  0.3586  0.2714
   13CHL1  H23A  948   0.116   2.762   8.738  1.3753  1.3259  0.0779
   13CHL1  H23B  949   0.023   2.742   8.895  0.4229 -1.0158 -1.0309
   13CHL1   C24  950   0.027   2.941   8.793  0.2664  0.0746 -1.3524
   13CHL1  H24A  951   0.075   3.002   8.713 -0.8363  0.1297 -2.0077
   13CHL1  H24B  952  -0.076   2.919   8.758 -0.2816  1.5271 -0.7492
   13CHL1   C25  953  -0.001   3.039   8.906 -0.1600 -0.3148  0.3070
   13CHL1   H25  954   0.086   3.056   8.973  0.3427  0.8179 -0.5822
   13CHL1   C26  955  -0.050   3.172   8.854  0.1895 -0.3033 -0.1813
   13CHL1  H26A  956  -0.052   3.248   8.934  1.2439 -0.6878  0.2168
   13CHL1  H26B  957   0.022   3.218   8.783  2.3462 -1.9747  0.8249
   13CHL1  H26C  958  -0.155   3.158   8.819  0.1308  0.6498 -0.4265
   13CHL1   C27  959  -0.116   2.985   8.992 -0.3873  0.7344 -0.5745
   13CHL1  H27A  960  -0.129   3.035   9.090  2.2386  0.9917 -0.2765
   13CHL1  H27B  961  -0.214   2.974   8.941  0.2794  0.0612 -1.7595
   13CHL1  H27C  962  -0.080   2.884   9.022  1.9072  1.1556 -1.6096
   14CHL1    C3  963   5.503   2.507  10.284  0.4433 -0.4436 -0.1235
   14CHL1    H3  964   5.587   2.580  10.284 -0.6149  0.8388 -1.1134
   14CHL1    O3  965   5.501   2.447  10.411 -0.0485  0.5963 -0.8854
   14CHL1   H3'  966   5.529   2.511  10.476  0.9478 -1.7028  1.1199
   14CHL1    C4  967   5.372   2.582  10.261 -0.0673 -0.5527  0.2887
   14CHL1   H4A  968   5.292   2.505  10.266 -0.7830 -0.1633 -2.8993
   14CHL1   H4B  969   5.349   2.657  10.339  0.2422  0.3245 -0.4446
   14CHL1    C5  970   5.368   2.648  10.124  0.2611  0.0601  0.0596
   14CHL1    C6  971   5.366   2.786  10.118 -0.0537 -0.4160 -0.1750
   14CHL1    H6  972   5.360   2.844  10.212  1.2012  0.6852 -0.7435
   14CHL1    C7  973   5.350   2.858   9.984 -0.0513 -0.4818  0.0226
   14CHL1   H7A  974   5.276   2.942   9.991  0.8619  0.2865  0.6202
   14CHL1   H7B  975   5.444   2.910   9.958 -0.6610  1.4507  1.4662
   14CHL1    C8  976   5.305   2.761   9.872 -0.4356 -0.1593  0.0060
   14CHL1    H8  977   5.197   2.736   9.881 -0.5240  0.8172  2.2741
   14CHL1   C14  978   5.336   2.834   9.742 -0.5298  0.1573  0.5784
   14CHL1   H14  979   5.444   2.858   9.742 -0.4243  0.3550 -3.4801
   14CHL1   C15  980   5.276   2.979   9.727 -0.6846 -0.2503 -0.4212
   14CHL1  H15A  981   5.172   2.977   9.766 -1.5131 -0.2410 -2.4914
   14CHL1  H15B  982   5.329   3.052   9.792 -1.3953  1.3177 -1.5364
   14CHL1   C16  983   5.291   3.006   9.579 -0.2946 -0.1152  0.5382
   14CHL1  H16A  984   5.192   3.023   9.531 -0.0274  1.0388  0.3703
   14CHL1  H16B  985   5.368   3.082   9.553  2.0037 -2.6267 -0.4340
   14CHL1   C17  986   5.350   2.879   9.510  0.0622 -0.1266 -0.4555
   14CHL1   H17  987   5.460   2.892   9.509  0.3139 -1.9033 -2.1438
   14CHL1   C13  988   5.317   2.764   9.607  0.1182  0.4054 -0.3556
   14CHL1   C18  989   5.165   2.721   9.592  0.3510  0.4366  0.6234
   14CHL1  H18A  990   5.088   2.799   9.610 -0.6530 -0.5504  0.8089
   14CHL1  H18B  991   5.131   2.675   9.496  0.8031 -3.0021  1.9597
   14CHL1  H18C  992   5.138   2.631   9.652 -3.2300 -0.5559 -2.1109
   14CHL1   C12  993   5.406   2.631   9.611 -0.4197 -0.2789 -0.0552
   14CHL1  H12A  994   5.400   2.566   9.522 -0.1135  1.4972 -1.4308
   14CHL1  H12B  995   5.512   2.663   9.616 -0.7694  0.7808  1.6924
   14CHL1   C11  996   5.378   2.550   9.738  0.5028  0.2909  0.0381
   14CHL1  H11A  997   5.279   2.501   9.729  1.1106 -1.1035  0.7362
   14CHL1  H11B  998   5.452   2.468   9.745  1.0202  0.7396 -0.1300
   14CHL1    C9  999   5.385   2.632   9.869  0.3375 -0.2079  0.0695
   14CHL1    H9 1000   5.492   2.663   9.863  0.7659 -1.2593  1.8242
   14CHL1   C10 1001   5.381   2.551  10.004  0.2360  0.3306  0.1029
   14CHL1   C19 1002   5.265   2.456   9.995 -0.4059 -0.3603  0.0819
   14CHL1  H19A 1003   5.272   2.398  10.089  0.9755  0.5374  0.5638
   14CHL1  H19B 1004   5.163   2.499   9.991 -0.4322 -0.3798  0.5129
   14CHL1  H19C 1005   5.279   2.391   9.905  1.8955  0.7980 -0.4856
   14CHL1    C1 1006   5.513   2.458  10.023 -0.2785 -1.0307 -0.3444
   14CHL1   H1A 1007   5.522   2.382   9.943  0.0994 -1.4118  0.0500
   14CHL1   H1B 1008   5.589   2.536  10.001 -0.0848  0.0772  3.4113
   14CHL1    C2 1009   5.527   2.407  10.172  0.2186 -1.1510 -0.0386
   14CHL1   H2A 1010   5.622   2.350  10.184  1.3391  0.2118 -1.9252
   14CHL1   H2B 1011   5.453   2.325  10.183 -1.0225 -0.3950 -2.2372
   14CHL1   C20 1012   5.304   2.872   9.358 -0.8074 -0.0349 -0.4602
   14CHL1   H20 1013   5.193   2.873   9.350 -0.6840 -0.2391 -2.8588
   14CHL1   C21 1014   5.351   2.741   9.284  0.6983  0.1096 -0.8396
   14CHL1  H21A 1015   5.460   2.721   9.282  0.5028 -1.3959  0.8605
   14CHL1  H21B 1016   5.325   2.735   9.176 -3.8845 -1.4610  0.1038
   14CHL1  H21C 1017   5.300   2.651   9.324  1.5314 -0.4214 -0.9574
   14CHL1   C22 1018   5.355   2.998   9.273 -0.4393 -0.3193 -0.6032
   14CHL1  H22A 1019   5.314   3.088   9.325 -2.8474 -2.1877  0.9392
   14CHL1  H22B 1020   5.466   2.988   9.272 -0.6460 -3.8366  0.1723
   14CHL1   C23 1021   5.312   3.006   9.131  1.3293  0.7627  0.3420
   14CHL1  H23A 1022   5.363   2.926   9.073  0.2868 -0.8389  1.5407
   14CHL1  H23B 1023   5.206   2.972   9.124  1.2840  1.1110 -1.0057
   14CHL1   C24 1024   5.338   3.132   9.061  0.1305 -0.4409 -0.5370
   14CHL1  H24A 1025   5.294   3.221   9.111  3.1626 -0.4885  2.6151
   14CHL1  H24B 1026   5.445   3.163   9.052 -0.0442 -0.2910 -2.4386
   14CHL1   C25 1027   5.288   3.146   8.916  0.7828  0.3373 -0.3586
   14CHL1   H25 1028   5.340   3.066   8.859  0.0671  0.3744 -1.0851
   14CHL1   C26 1029   5.135   3.115   8.901 -0.3237  0.9000 -0.1609
   14CHL1  H26A 1030   5.102   3.014   8.935 -0.9254  0.2830 -2.4540
   14CHL1  H26B 1031   5.080   3.189   8.963  0.1476  1.6332 -0.6161
   14CHL1  H26C 1032   5.101   3.120   8.796  4.3031  3.6438 -1.8394
   14CHL1   C27 1033   5.315   3.280   8.863  0.3528 -0.0479  1.1007
   14CHL1  H27A 1034   5.245   3.299   8.779  2.3700  2.1615 -0.1937
   14CHL1  H27B 1035   5.303   3.358   8.941  0.7256  2.6053 -1.3568
   14CHL1  H27C 1036   5.418   3.295   8.823 -0.1341  3.1981  0.8214
   15CHL1    C3 1037   6.385   4.610   9.978 -0.1006  0.1017 -0.8178
   15CHL1    H3 1038   6.364   4.506   9.944 -0.6931 -0.5990  1.4799
   15CHL1    O3 1039   6.429   4.608  10.112 -0.8511  0.1623 -0.4077
   15CHL1   H3' 1040   6.471   4.693  10.127  0.7142 -0.6013 -0.2584
   15CHL1    C4 1041   6.491   4.678   9.892 -0.3955 -0.2904 -1.1131
   15CHL1   H4A 1042   6.508   4.782   9.926  0.8716 -1.4604  2.2726
   15CHL1   H4B 1043   6.585   4.623   9.915  1.0672  2.2727 -0.6235
   15CHL1    C5 1044   6.450   4.677   9.752  0.7595  0.0579 -0.3336
   15CHL1    C6 1045   6.517   4.610   9.657  0.0765  0.0513 -0.4140
   15CHL1    H6 1046   6.605   4.549   9.681 -0.1602  0.4735  1.6967
   15CHL1    C7 1047   6.470   4.609   9.514  0.2248 -0.0124  0.1918
   15CHL1   H7A 1048   6.558   4.620   9.447 -0.1959 -0.1727 -0.3992
   15CHL1   H7B 1049   6.422   4.512   9.487 -0.8724  1.5389 -4.2903
   15CHL1    C8 1050   6.374   4.719   9.476 -0.3080  0.1223  0.5693
   15CHL1    H8 1051   6.425   4.818   9.476  2.7368 -1.2457  3.2100
   15CHL1   C14 1052   6.311   4.674   9.345  0.5738 -0.6837  0.5609
   15CHL1   H14 1053   6.250   4.585   9.373 -0.6985  0.4831  1.7282
   15CHL1   C15 1054   6.402   4.623   9.229  0.4842 -0.1799  0.5942
   15CHL1  H15A 1055   6.493   4.687   9.239  1.3781 -1.6992  3.0648
   15CHL1  H15B 1056   6.428   4.516   9.246 -0.9556 -0.6815 -0.2090
   15CHL1   C16 1057   6.300   4.641   9.117 -0.0094 -0.2994 -0.1114
   15CHL1  H16A 1058   6.347   4.701   9.036  0.1420  0.4755  0.5476
   15CHL1  H16B 1059   6.282   4.538   9.080 -0.4904 -0.1362 -0.3425
   15CHL1   C17 1060   6.173   4.711   9.157  1.2479 -0.9845 -0.3619
   15CHL1   H17 1061   6.091   4.640   9.183  0.7417 -0.8202 -1.4405
   15CHL1   C13 1062   6.219   4.778   9.289  0.9241 -0.1047 -0.4481
   15CHL1   C18 1063   6.286   4.912   9.262 -0.2178 -0.6934  0.3590
   15CHL1  H18A 1064   6.301   4.960   9.361 -0.9484  3.2600 -1.2506
   15CHL1  H18B 1065   6.383   4.886   9.213  0.2121 -1.0507  1.3914
   15CHL1  H18C 1066   6.232   4.991   9.205 -0.1692 -0.2303  0.9531
   15CHL1   C12 1067   6.101   4.793   9.392  0.3095  0.7142  0.3059
   15CHL1  H12A 1068   6.031   4.874   9.363  0.4691  0.6736 -0.2048
   15CHL1  H12B 1069   6.035   4.703   9.386  0.6947  0.3715  1.1055
   15CHL1   C11 1070   6.139   4.816   9.531 -0.4602  0.6263 -0.0198
   15CHL1  H11A 1071   6.172   4.922   9.521 -1.4362  0.9808  0.2970
   15CHL1  H11B 1072   6.050   4.821   9.598 -1.0577 -2.4859 -0.4414
   15CHL1    C9 1073   6.261   4.726   9.578  0.1667  0.0882 -0.2313
   15CHL1    H9 1074   6.230   4.620   9.583  1.4360 -0.2589  2.8605
   15CHL1   C10 1075   6.314   4.750   9.723 -0.2650  0.0638  0.1002
   15CHL1   C19 1076   6.335   4.902   9.739  0.1892  0.4075 -0.3788
   15CHL1  H19A 1077   6.400   4.933   9.654  0.3580  0.3093 -0.2856
   15CHL1  H19B 1078   6.238   4.956   9.737 -1.0886 -1.7827 -1.6752
   15CHL1  H19C 1079   6.380   4.930   9.837  0.1089  1.4035 -0.6143
   15CHL1    C1 1080   6.205   4.703   9.829  0.1141  0.4128  0.5321
   15CHL1   H1A 1081   6.120   4.774   9.825  0.2241  0.5666  0.9292
   15CHL1   H1B 1082   6.177   4.600   9.798  2.1122 -0.2765  0.8758
   15CHL1    C2 1083   6.255   4.699   9.974  0.6548 -0.3975  0.5063
   15CHL1   H2A 1084   6.169   4.669  10.037  1.6006 -0.1231  1.9787
   15CHL1   H2B 1085   6.288   4.801  10.003  1.0455 -0.7465  1.2928
   15CHL1   C20 1086   6.121   4.806   9.038 -0.2487  0.1957  0.1129
   15CHL1   H20 1087   6.199   4.880   9.008  1.0975 -1.3044 -0.2077
   15CHL1   C21 1088   5.987   4.876   9.093 -0.0918  0.1061  0.0719
   15CHL1  H21A 1089   5.961   4.954   9.018  0.4423  1.3843  1.1715
   15CHL1  H21B 1090   6.004   4.931   9.188 -0.2871 -2.1578  1.4910
   15CHL1  H21C 1091   5.904   4.805   9.111  0.0907 -0.9759 -2.8061
   15CHL1   C22 1092   6.098   4.722   8.915  0.0465  0.1060 -0.4861
   15CHL1  H22A 1093   6.183   4.655   8.890 -0.6049 -1.7089  1.8021
   15CHL1  H22B 1094   6.016   4.653   8.943  2.0936 -2.0007  0.5932
   15CHL1   C23 1095   6.039   4.793   8.787 -0.0543 -0.5290  0.3131
   15CHL1  H23A 1096   5.953   4.860   8.809  1.0952  1.5709 -1.1727
   15CHL1  H23B 1097   6.111   4.872   8.755 -2.4645  1.2590 -1.0381
   15CHL1   C24 1098   6.013   4.698   8.669  0.0906  0.1915  0.3186
   15CHL1  H24A 1099   6.097   4.629   8.646 -0.2433 -0.4781  1.0700
   15CHL1  H24B 1100   5.934   4.628   8.703  0.3142  0.0383  0.5292
   15CHL1   C25 1101   5.982   4.761   8.532  0.0261 -0.1344 -0.3282
   15CHL1   H25 1102   5.895   4.829   8.548  0.2998 -0.3599  2.7015
   15CHL1   C26 1103   6.101   4.844   8.484 -0.8210  0.2700  0.2258
   15CHL1  H26A 1104   6.190   4.778   8.494 -0.4224  0.7783  0.0430
   15CHL1  H26B 1105   6.082   4.883   8.381  3.3020 -0.5615 -1.0365
   15CHL1  H26C 1106   6.127   4.926   8.554  1.5018 -1.2921  1.3017
   15CHL1   C27 1107   5.947   4.642   8.438 -0.0317 -0.3646  0.3801
   15CHL1  H27A 1108   5.898   4.674   8.343  1.5678 -0.0827 -0.3899
   15CHL1  H27B 1109   6.041   4.593   8.406 -0.1056  1.2618 -2.8429
   15CHL1  H27C 1110   5.888   4.568   8.495  0.8594 -0.6377  0.9692
   16CHL1    C3 1111   4.037   2.202  10.093  0.0221  0.1811  0.2324
   16CHL1    H3 1112   4.011   2.282  10.021  2.2444  1.4007  0.7163
   16CHL1    O3 1113   4.072   2.251  10.219  0.3234  0.3828  0.1877
   16CHL1   H3' 1114   4.006   2.316  10.245  1.7068  2.9694 -2.2413
   16CHL1    C4 1115   3.909   2.104  10.102  0.1041  0.3540  0.5319
   16CHL1   H4A 1116   3.927   2.018  10.170 -0.5708  1.9850  2.8901
   16CHL1   H4B 1117   3.818   2.157  10.137  0.6981  1.3771  0.5450
   16CHL1    C5 1118   3.875   2.055   9.959 -0.4195  0.2968  0.7205
   16CHL1    C6 1119   3.756   2.077   9.900 -0.8823 -0.1015 -0.4050
   16CHL1    H6 1120   3.669   2.132   9.938  1.1905  1.8951  1.8097
   16CHL1    C7 1121   3.720   2.026   9.767 -0.3375 -0.0472  0.1960
   16CHL1   H7A 1122   3.624   1.971   9.776 -1.3049  1.8077  2.0292
   16CHL1   H7B 1123   3.708   2.099   9.683 -1.1259  0.3419  0.6348
   16CHL1    C8 1124   3.820   1.919   9.707  0.8948  0.0275 -0.2926
   16CHL1    H8 1125   3.806   1.818   9.752 -0.4614  0.6451  0.7519
   16CHL1   C14 1126   3.802   1.907   9.557  0.7345 -0.2704 -0.1784
   16CHL1   H14 1127   3.830   2.002   9.506  0.9640 -0.9449 -1.3446
   16CHL1   C15 1128   3.663   1.881   9.495  0.4589 -0.8116 -0.2994
   16CHL1  H15A 1129   3.599   1.809   9.551 -0.1348 -0.8226 -0.9620
   16CHL1  H15B 1130   3.595   1.969   9.491 -1.1155 -1.9665 -0.1413
   16CHL1   C16 1131   3.687   1.834   9.349  0.0528  0.3978 -0.1037
   16CHL1  H16A 1132   3.622   1.744   9.343 -0.7264  0.9729 -0.5352
   16CHL1  H16B 1133   3.650   1.909   9.276 -1.1095 -0.6511 -0.6282
   16CHL1   C17 1134   3.839   1.816   9.341 -0.7446  0.4111 -0.5893
   16CHL1   H17 1135   3.889   1.908   9.302  0.8073 -1.4326 -3.2833
   16CHL1   C13 1136   3.893   1.804   9.490  0.3445  0.1464 -0.1475
   16CHL1   C18 1137   3.867   1.662   9.542  0.0965 -0.5383 -0.1243
   16CHL1  H18A 1138   3.871   1.651   9.653 -2.3502 -0.1152  0.0699
   16CHL1  H18B 1139   3.765   1.628   9.517  0.2706 -0.7800 -0.4985
   16CHL1  H18C 1140   3.937   1.594   9.489 -1.0554 -0.4388 -1.8503
   16CHL1   C12 1141   4.039   1.853   9.510  0.6612 -0.3954  0.1579
   16CHL1  H12A 1142   4.110   1.789   9.454  1.7127  0.1844  0.7872
   16CHL1  H12B 1143   4.037   1.952   9.459  1.7415 -0.0825  0.6966
   16CHL1   C11 1144   4.060   1.860   9.661  0.0313  0.3085 -0.3603
   16CHL1  H11A 1145   4.057   1.759   9.706 -0.5823  1.1272  1.5695
   16CHL1  H11B 1146   4.164   1.896   9.678  0.1953 -0.4371  0.2546
   16CHL1    C9 1147   3.964   1.956   9.731 -0.0365 -0.3116 -0.0127
   16CHL1    H9 1148   3.979   2.057   9.687 -1.3041  0.6292  1.5686
   16CHL1   C10 1149   3.987   1.969   9.887  0.1300  0.2903  0.0338
   16CHL1   C19 1150   3.993   1.831   9.950  0.1794  0.2376  0.0171
   16CHL1  H19A 1151   4.090   1.780   9.936 -0.4281 -0.7188 -0.9325
   16CHL1  H19B 1152   3.969   1.829  10.058 -1.2661 -0.8383 -0.2961
   16CHL1  H19C 1153   3.907   1.768   9.919  1.2307 -1.9865  1.4243
   16CHL1    C1 1154   4.121   2.050   9.902 -0.0873  0.3155 -0.0719
   16CHL1   H1A 1155   4.204   1.980   9.878 -0.6851  0.4257 -2.7581
   16CHL1   H1B 1156   4.111   2.131   9.827  0.4091 -0.5865 -1.1518
   16CHL1    C2 1157   4.157   2.119  10.036  0.0369 -0.6214 -0.4541
   16CHL1   H2A 1158   4.238   2.193  10.023 -0.2103 -0.1322  0.6635
   16CHL1   H2B 1159   4.183   2.042  10.112 -1.9522  1.1417  2.1685
   16CHL1   C20 1160   3.876   1.709   9.245 -0.2618  0.3104  0.1265
   16CHL1   H20 1161   3.835   1.613   9.282  1.1036 -1.0815 -1.8040
   16CHL1   C21 1162   4.022   1.700   9.224  0.1121 -0.5126  0.3612
   16CHL1  H21A 1163   4.043   1.668   9.120 -2.6400  0.3265 -0.5299
   16CHL1  H21B 1164   4.062   1.622   9.292  1.5643 -0.7963 -0.7670
   16CHL1  H21C 1165   4.073   1.799   9.232 -0.1614 -0.3074 -0.3715
   16CHL1   C22 1166   3.813   1.746   9.105 -0.2061 -0.3161 -0.2774
   16CHL1  H22A 1167   3.729   1.817   9.119  1.2832  0.9111  3.7920
   16CHL1  H22B 1168   3.892   1.801   9.049 -0.4006 -2.4491 -2.8677
   16CHL1   C23 1169   3.767   1.629   9.011  0.7830 -0.0357  0.1927
   16CHL1  H23A 1170   3.862   1.592   8.968 -0.1540 -2.5228  0.0865
   16CHL1  H23B 1171   3.722   1.553   9.078 -2.3648  0.0301 -1.6487
   16CHL1   C24 1172   3.682   1.674   8.895  0.4890 -0.0883 -0.4838
   16CHL1  H24A 1173   3.588   1.716   8.936  0.0140 -0.2717 -1.3771
   16CHL1  H24B 1174   3.739   1.756   8.846  1.2646 -0.5904 -0.4435
   16CHL1   C25 1175   3.638   1.573   8.788  0.3025  0.6259 -0.4702
   16CHL1   H25 1176   3.576   1.493   8.834  0.2074  0.7720 -0.3451
   16CHL1   C26 1177   3.561   1.644   8.675 -0.0775  0.3772 -0.5461
   16CHL1  H26A 1178   3.637   1.711   8.631  0.7823  0.6436  1.2379
   16CHL1  H26B 1179   3.508   1.579   8.603  2.7371 -2.1385 -0.5245
   16CHL1  H26C 1180   3.475   1.709   8.705  1.4587  1.6465  1.3829
   16CHL1   C27 1181   3.760   1.500   8.723 -0.8633 -0.2079 -0.5699
   16CHL1  H27A 1182   3.823   1.588   8.697 -0.6188 -0.7274 -1.7943
   16CHL1  H27B 1183   3.806   1.429   8.795  1.2634  2.5051  0.9446
   16CHL1  H27C 1184   3.723   1.457   8.628  0.2183 -0.2937 -0.9712
   17CHL1    C3 1185   2.038   3.250  10.449  0.1229  0.6325  0.4029
   17CHL1    H3 1186   2.108   3.336  10.444 -0.3811  1.0249 -0.1853
   17CHL1    O3 1187   2.049   3.203  10.579 -0.1076 -0.1787 -0.2010
   17CHL1   H3' 1188   1.978   3.145  10.607 -0.4566 -0.1754 -1.0410
   17CHL1    C4 1189   1.896   3.291  10.424  0.6531  0.4230  0.6917
   17CHL1   H4A 1190   1.835   3.199  10.439 -0.8185  1.6954  3.1226
   17CHL1   H4B 1191   1.856   3.362  10.499  0.0824 -0.3484  1.1358
   17CHL1    C5 1192   1.869   3.331  10.279 -0.5094  0.4416 -0.3510
   17CHL1    C6 1193   1.799   3.443  10.243 -0.1209  0.3227  0.5310
   17CHL1    H6 1194   1.760   3.513  10.318 -0.8977  1.0335 -0.5057
   17CHL1    C7 1195   1.767   3.485  10.104  0.4208 -0.7962 -0.5013
   17CHL1   H7A 1196   1.659   3.513  10.107  0.9193  1.2576  0.3287
   17CHL1   H7B 1197   1.830   3.572  10.074  2.0113 -1.0014  1.9556
   17CHL1    C8 1198   1.790   3.373   9.991  0.4736  0.5301 -0.4811
   17CHL1    H8 1199   1.698   3.311   9.990 -0.1184  1.3773 -0.1682
   17CHL1   C14 1200   1.807   3.428   9.852  0.2292  0.8345  0.5218
   17CHL1   H14 1201   1.890   3.502   9.849 -1.1109  2.3681 -0.6090
   17CHL1   C15 1202   1.698   3.523   9.803 -0.4957 -0.4525  0.4416
   17CHL1  H15A 1203   1.600   3.472   9.814 -0.9531  0.6666  1.9979
   17CHL1  H15B 1204   1.692   3.623   9.852 -1.4062 -0.3745  0.2075
   17CHL1   C16 1205   1.714   3.532   9.652  0.1471 -0.4793  0.1130
   17CHL1  H16A 1206   1.613   3.521   9.607  0.5656  1.3217 -1.4260
   17CHL1  H16B 1207   1.751   3.628   9.610  0.9571 -1.2088 -0.8961
   17CHL1   C17 1208   1.820   3.417   9.623 -0.3866 -0.7704 -0.2597
   17CHL1   H17 1209   1.924   3.456   9.622  1.4764 -5.0495  1.1834
   17CHL1   C13 1210   1.818   3.326   9.746 -0.0340  0.8387 -0.1883
   17CHL1   C18 1211   1.696   3.240   9.735  0.0621  0.2847 -0.0570
   17CHL1  H18A 1212   1.689   3.164   9.654 -1.4069 -0.5452  0.8076
   17CHL1  H18B 1213   1.661   3.201   9.833  1.3242 -0.4734  0.1180
   17CHL1  H18C 1214   1.610   3.297   9.695  0.0085  0.4258  0.2538
   17CHL1   C12 1215   1.940   3.235   9.771 -0.0903 -0.2992 -1.0365
   17CHL1  H12A 1216   1.927   3.156   9.694 -1.9480 -0.1711 -0.8879
   17CHL1  H12B 1217   2.041   3.280   9.757 -0.1685  0.2170 -0.0360
   17CHL1   C11 1218   1.925   3.175   9.911 -0.6426  0.1086 -0.7986
   17CHL1  H11A 1219   1.832   3.114   9.911 -1.1013  0.7550 -2.6591
   17CHL1  H11B 1220   2.005   3.101   9.934  1.0641  0.9681 -3.4896
   17CHL1    C9 1221   1.918   3.286  10.022 -0.1931 -0.9954 -0.1400
   17CHL1    H9 1222   2.009   3.348  10.009 -0.2471 -0.9518 -0.3115
   17CHL1   C10 1223   1.923   3.232  10.170  0.1701 -0.6022  0.4926
   17CHL1   C19 1224   1.835   3.104  10.180 -0.1518 -0.7817 -0.6048
   17CHL1  H19A 1225   1.869   3.023  10.111  0.0722 -1.2716  0.0727
   17CHL1  H19B 1226   1.817   3.060  10.280  0.3723 -1.0754 -0.6334
   17CHL1  H19C 1227   1.735   3.134  10.142 -0.4888 -2.8822 -1.5032
   17CHL1    C1 1228   2.071   3.194  10.202 -1.0275  0.2512  0.3821
   17CHL1   H1A 1229   2.109   3.113  10.135 -2.4425  0.4301 -0.6955
   17CHL1   H1B 1230   2.142   3.279  10.196  0.2785 -0.5533  3.1401
   17CHL1    C2 1231   2.084   3.141  10.349  0.7531  0.5179 -0.8162
   17CHL1   H2A 1232   2.184   3.103  10.378  0.7589 -0.0175 -1.5053
   17CHL1   H2B 1233   2.016   3.053  10.360  4.1581 -2.4127 -1.4411
   17CHL1   C20 1234   1.808   3.357   9.477 -0.6974 -0.1367  0.0762
   17CHL1   H20 1235   1.714   3.299   9.483 -1.1324  0.6521  1.2303
   17CHL1   C21 1236   1.930   3.259   9.460  0.1834  0.3429 -0.9244
   17CHL1  H21A 1237   1.955   3.252   9.352  1.6074 -0.3228 -0.5770
   17CHL1  H21B 1238   1.911   3.155   9.494  2.7279  0.3893  0.9579
   17CHL1  H21C 1239   2.024   3.294   9.508 -0.6480  1.9065 -0.3671
   17CHL1   C22 1240   1.802   3.452   9.354 -0.6098  0.0253 -0.9921
   17CHL1  H22A 1241   1.729   3.528   9.390 -2.3368 -1.4493 -1.2750
   17CHL1  H22B 1242   1.896   3.511   9.350 -0.5901  0.1081  0.2260
   17CHL1   C23 1243   1.762   3.378   9.233 -0.7873  0.7832 -0.2217
   17CHL1  H23A 1244   1.854   3.334   9.190 -0.1511  2.1621 -0.3141
   17CHL1  H23B 1245   1.687   3.302   9.262  0.2031 -0.8588 -1.7748
   17CHL1   C24 1246   1.706   3.475   9.123  0.2784  0.3324  0.1541
   17CHL1  H24A 1247   1.603   3.510   9.149 -0.4428  0.6284 -2.7787
   17CHL1  H24B 1248   1.778   3.555   9.099 -0.4564  0.0937 -3.3581
   17CHL1   C25 1249   1.679   3.399   8.992 -0.3262  0.9196 -0.1755
   17CHL1   H25 1250   1.612   3.463   8.931 -1.4733 -0.1400 -0.0753
   17CHL1   C26 1251   1.808   3.357   8.917 -0.2133 -0.3040 -0.2909
   17CHL1  H26A 1252   1.869   3.449   8.906 -1.4045  0.8023  1.7860
   17CHL1  H26B 1253   1.865   3.286   8.981 -1.3733 -2.1257 -1.1874
   17CHL1  H26C 1254   1.791   3.311   8.818 -1.6096 -0.0685 -0.1828
   17CHL1   C27 1255   1.597   3.270   9.015 -0.1992 -1.4017  0.1134
   17CHL1  H27A 1256   1.660   3.202   9.075  1.7562 -0.5989 -0.9445
   17CHL1  H27B 1257   1.497   3.287   9.061  0.2633  1.2207  0.3205
   17CHL1  H27C 1258   1.579   3.213   8.921  1.3536 -1.5009 -0.1390
   18CHL1    C3 1259   2.554   4.803  10.262  0.6422  0.0165  0.6179
   18CHL1    H3 1260   2.446   4.823  10.246  0.9130  2.5784  1.6151
   18CHL1    O3 1261   2.564   4.805  10.400  0.6507  0.2131  0.0462
   18CHL1   H3' 1262   2.658   4.797  10.413  0.5413 -1.6031 -0.0553
   18CHL1    C4 1263   2.599   4.663  10.206 -0.0212 -0.7419  0.5729
   18CHL1   H4A 1264   2.700   4.633  10.242  0.2962 -1.5753 -0.9003
   18CHL1   H4B 1265   2.525   4.591  10.247 -0.6290  0.3144  1.3789
   18CHL1    C5 1266   2.598   4.656  10.055 -0.6604  0.0709 -0.2518
   18CHL1    C6 1267   2.526   4.562   9.982  1.0023  0.6260  0.1411
   18CHL1    H6 1268   2.462   4.484  10.026  0.9278  2.4217  3.5832
   18CHL1    C7 1269   2.525   4.567   9.832 -0.3280 -0.2660  0.4295
   18CHL1   H7A 1270   2.529   4.464   9.790 -1.0144  0.7489 -2.3458
   18CHL1   H7B 1271   2.434   4.616   9.791 -0.1630  1.1510  1.6544
   18CHL1    C8 1272   2.641   4.649   9.776 -0.4858 -0.1501 -0.0732
   18CHL1    H8 1273   2.733   4.593   9.803 -0.8111  0.4444  2.4892
   18CHL1   C14 1274   2.623   4.666   9.625  0.2364  0.0978 -0.4964
   18CHL1   H14 1275   2.526   4.719   9.619  0.1433  0.5209  2.7730
   18CHL1   C15 1276   2.595   4.526   9.547 -0.5418 -0.9396 -0.7154
   18CHL1  H15A 1277   2.674   4.460   9.590 -0.8731 -0.9249 -0.0635
   18CHL1  H15B 1278   2.494   4.489   9.576 -1.4018  0.7077 -1.5185
   18CHL1   C16 1279   2.613   4.567   9.406 -0.3121 -0.2958  0.2459
   18CHL1  H16A 1280   2.678   4.496   9.350  0.0658  0.3186 -0.1065
   18CHL1  H16B 1281   2.526   4.576   9.337  0.7985  0.9685 -1.0423
   18CHL1   C17 1282   2.673   4.716   9.412 -0.2941  0.8352 -0.2147
   18CHL1   H17 1283   2.581   4.779   9.418 -0.6184  0.2267  1.6812
   18CHL1   C13 1284   2.728   4.742   9.556  0.0602  0.1266  0.2570
   18CHL1   C18 1285   2.865   4.679   9.568  0.1547 -0.2878 -0.7872
   18CHL1  H18A 1286   2.857   4.569   9.556 -1.9813 -0.0889 -1.7440
   18CHL1  H18B 1287   2.946   4.724   9.507  1.4288 -1.1077  0.2355
   18CHL1  H18C 1288   2.915   4.687   9.667  0.7759 -0.9241 -1.0475
   18CHL1   C12 1289   2.723   4.888   9.598 -0.0338  0.5194  0.2027
   18CHL1  H12A 1290   2.806   4.946   9.551 -0.3056  0.2211 -0.6494
   18CHL1  H12B 1291   2.625   4.934   9.575 -0.0968 -0.4039 -1.5163
   18CHL1   C11 1292   2.743   4.897   9.751  0.1651  0.1168  0.2809
   18CHL1  H11A 1293   2.850   4.871   9.767  0.3220  0.8751  0.5033
   18CHL1  H11B 1294   2.708   4.998   9.782 -0.4671 -0.0296  0.0500
   18CHL1    C9 1295   2.651   4.792   9.833  0.4106 -0.3945  0.6281
   18CHL1    H9 1296   2.547   4.826   9.815  0.7818  0.2608 -0.3663
   18CHL1   C10 1297   2.675   4.777   9.984 -0.0792 -0.5403 -0.3068
   18CHL1   C19 1298   2.826   4.753  10.021  0.1353  0.6729 -0.8235
   18CHL1  H19A 1299   2.847   4.752  10.131 -0.7625  1.7046 -0.6289
   18CHL1  H19B 1300   2.861   4.652   9.991 -1.0603 -0.2627  0.7825
   18CHL1  H19C 1301   2.885   4.826   9.962 -0.0503 -0.0173 -1.8870
   18CHL1    C1 1302   2.618   4.911  10.040 -0.3732  0.0803 -0.3604
   18CHL1   H1A 1303   2.689   4.987  10.000 -0.9018  0.6492 -0.2316
   18CHL1   H1B 1304   2.515   4.922   9.999 -0.5231 -2.7920 -0.9106
   18CHL1    C2 1305   2.629   4.921  10.192  0.2411 -0.0426 -0.4925
   18CHL1   H2A 1306   2.586   5.019  10.221 -1.7650 -1.2128  0.7991
   18CHL1   H2B 1307   2.729   4.907  10.240  0.2273  0.2871 -0.3692
   18CHL1   C20 1308   2.756   4.760   9.293 -0.1679 -0.1410 -0.2862
   18CHL1   H20 1309   2.817   4.846   9.326  0.3539  0.3244 -2.2828
   18CHL1   C21 1310   2.668   4.828   9.180  0.5584 -0.1039 -0.2093
   18CHL1  H21A 1311   2.738   4.855   9.098  1.3085  0.7016  0.6624
   18CHL1  H21B 1312   2.618   4.917   9.223  0.4815  0.4221 -1.3534
   18CHL1  H21C 1313   2.582   4.771   9.140  1.1947 -1.7993  0.7424
   18CHL1   C22 1314   2.845   4.643   9.234 -0.1656 -0.1227  0.4387
   18CHL1  H22A 1315   2.888   4.573   9.309  2.7072 -1.4792 -2.2340
   18CHL1  H22B 1316   2.768   4.585   9.180 -1.5539  0.1340  2.0515
   18CHL1   C23 1317   2.954   4.697   9.144  0.1593  0.6559  0.3768
   18CHL1  H23A 1318   2.915   4.774   9.074  1.8816 -0.0328 -1.4314
   18CHL1  H23B 1319   3.042   4.739   9.197 -0.4455  2.5142 -0.0072
   18CHL1   C24 1320   3.015   4.587   9.049  0.7533 -0.4770 -0.3182
   18CHL1  H24A 1321   3.053   4.504   9.112  1.3277  0.8784  1.1757
   18CHL1  H24B 1322   2.927   4.545   8.996 -0.1506  0.9771 -0.0260
   18CHL1   C25 1323   3.132   4.627   8.960  0.4271  0.0609  0.8218
   18CHL1   H25 1324   3.214   4.677   9.015  1.0672  1.2104 -1.0791
   18CHL1   C26 1325   3.191   4.497   8.891  0.5547  0.2455  0.6309
   18CHL1  H26A 1326   3.099   4.455   8.844  0.5920  0.4081  0.4082
   18CHL1  H26B 1327   3.270   4.522   8.816 -0.7497  0.2026 -0.8140
   18CHL1  H26C 1328   3.241   4.428   8.961  1.3147  2.6766  2.6284
   18CHL1   C27 1329   3.085   4.735   8.854  0.2830 -0.3172  0.9863
   18CHL1  H27A 1330   3.047   4.826   8.905 -0.5045  1.1958 -2.0730
   18CHL1  H27B 1331   3.174   4.768   8.796 -0.4603 -0.6435 -0.3668
   18CHL1  H27C 1332   3.002   4.702   8.789 -0.8112  4.1185 -0.1616
   19CHL1    C3 1333   6.227   5.374  10.187  0.2975  0.8845  0.2362
   19CHL1    H3 1334   6.129   5.426  10.176  0.4495  1.1400  0.0742
   19CHL1    O3 1335   6.261   5.360  10.326 -0.8646 -0.7548  0.0938
   19CHL1   H3' 1336   6.226   5.443  10.358  1.4542  0.1159  0.6002
   19CHL1    C4 1337   6.230   5.233  10.129  0.3328 -0.1995  0.9917
   19CHL1   H4A 1338   6.330   5.187  10.144 -0.4839 -2.2912  0.3775
   19CHL1   H4B 1339   6.175   5.163  10.196  2.5880 -1.9436  1.1385
   19CHL1    C5 1340   6.191   5.239   9.982 -0.3641 -0.0334 -0.4547
   19CHL1    C6 1341   6.076   5.175   9.951  0.5607  0.6296  0.4882
   19CHL1    H6 1342   6.029   5.101  10.018 -1.0053  1.8698  0.8128
   19CHL1    C7 1343   6.015   5.172   9.810  0.0642  0.1183 -0.0143
   19CHL1   H7A 1344   5.996   5.065   9.782 -0.8825  0.0062  1.0116
   19CHL1   H7B 1345   5.916   5.222   9.802 -0.8545 -1.1442  2.5429
   19CHL1    C8 1346   6.108   5.241   9.705 -0.0840 -0.1235  0.8728
   19CHL1    H8 1347   6.192   5.172   9.681 -0.2853  0.6168 -2.4863
   19CHL1   C14 1348   6.036   5.274   9.575  0.5059  0.3490  0.7236
   19CHL1   H14 1349   5.953   5.341   9.605 -0.7559 -0.0560 -1.6276
   19CHL1   C15 1350   5.970   5.158   9.502 -0.1119  0.2208 -0.4800
   19CHL1  H15A 1351   6.045   5.078   9.485 -1.0068 -0.8983  0.6477
   19CHL1  H15B 1352   5.886   5.115   9.561  2.2464 -0.0106  2.9834
   19CHL1   C16 1353   5.937   5.213   9.364  0.2808 -0.1544  0.2530
   19CHL1  H16A 1354   5.980   5.147   9.286 -0.9969 -1.5369  0.6597
   19CHL1  H16B 1355   5.828   5.217   9.344  0.1408 -1.8730  0.5182
   19CHL1   C17 1356   6.006   5.352   9.360  0.1683  0.5641 -0.1334
   19CHL1   H17 1357   5.944   5.430   9.407  2.0120  1.2582  1.2332
   19CHL1   C13 1358   6.112   5.344   9.468 -0.3375  0.2812 -0.1137
   19CHL1   C18 1359   6.232   5.255   9.421  0.0131 -0.8579  0.3515
   19CHL1  H18A 1360   6.213   5.160   9.367  3.1493 -0.7133 -1.2790
   19CHL1  H18B 1361   6.293   5.307   9.344 -0.6581 -0.9182 -0.2301
   19CHL1  H18C 1362   6.301   5.223   9.502  0.8151 -1.7340 -0.6455
   19CHL1   C12 1363   6.162   5.474   9.532 -0.9082 -0.0468  0.6576
   19CHL1  H12A 1364   6.208   5.537   9.452 -0.5132 -1.3526 -0.1653
   19CHL1  H12B 1365   6.071   5.528   9.566 -0.7516 -0.0950  1.1732
   19CHL1   C11 1366   6.250   5.452   9.661 -0.2212  0.6646  0.4683
   19CHL1  H11A 1367   6.339   5.395   9.627 -1.3350  0.2671 -1.9826
   19CHL1  H11B 1368   6.272   5.548   9.712  1.1457  0.2266  0.7533
   19CHL1    C9 1369   6.169   5.375   9.765  0.2287  1.1478 -0.0791
   19CHL1    H9 1370   6.092   5.447   9.799 -0.0964  0.0376  1.6596
   19CHL1   C10 1371   6.262   5.344   9.886  0.5130 -0.1820 -0.2025
   19CHL1   C19 1372   6.404   5.287   9.853  1.3697  0.4402  0.3934
   19CHL1  H19A 1373   6.466   5.360   9.796 -0.3713  1.6664 -0.0320
   19CHL1  H19B 1374   6.460   5.270   9.947 -2.1145  3.0361  3.2671
   19CHL1  H19C 1375   6.395   5.194   9.793  1.1987  2.0401 -2.2207
   19CHL1    C1 1376   6.299   5.477   9.962  0.4002  0.2696  0.2076
   19CHL1   H1A 1377   6.376   5.536   9.907  1.4144  0.7964  2.0952
   19CHL1   H1B 1378   6.209   5.541   9.955  0.8788  1.0986  1.2660
   19CHL1    C2 1379   6.330   5.457  10.114 -0.1582  0.2176 -0.1455
   19CHL1   H2A 1380   6.350   5.552  10.167  1.0621  0.5570 -1.1842
   19CHL1   H2B 1381   6.422   5.394  10.118 -0.7724 -0.7154 -0.2850
   19CHL1   C20 1382   6.054   5.404   9.222  0.3914  0.5081  0.3322
   19CHL1   H20 1383   6.139   5.471   9.247  1.2265 -0.3164 -0.2262
   19CHL1   C21 1384   5.938   5.487   9.163 -0.6419  0.0674  0.3335
   19CHL1  H21A 1385   5.876   5.410   9.111  1.2742 -0.4923 -1.2605
   19CHL1  H21B 1386   5.980   5.554   9.085 -0.6753 -0.1273  0.1456
   19CHL1  H21C 1387   5.885   5.555   9.232  0.1608  1.3583 -0.2786
   19CHL1   C22 1388   6.100   5.299   9.120 -0.2942 -1.2028 -0.4396
   19CHL1  H22A 1389   6.170   5.228   9.169  0.7984  0.2906  0.2521
   19CHL1  H22B 1390   6.013   5.240   9.081 -1.7937  0.3422  0.4215
   19CHL1   C23 1391   6.177   5.360   8.998 -0.1868  0.9663 -0.6815
   19CHL1  H23A 1392   6.106   5.430   8.948 -0.2280  0.2587 -1.6492
   19CHL1  H23B 1393   6.271   5.408   9.032  1.4357 -2.2642 -0.2945
   19CHL1   C24 1394   6.207   5.240   8.906 -0.1705 -0.1805 -0.8747
   19CHL1  H24A 1395   6.284   5.177   8.958 -0.8621 -0.0635  0.3353
   19CHL1  H24B 1396   6.115   5.185   8.877 -0.7535  0.7840 -0.8735
   19CHL1   C25 1397   6.280   5.293   8.778  0.0038  0.3907 -0.0667
   19CHL1   H25 1398   6.214   5.375   8.742 -1.0076 -0.6056 -0.5315
   19CHL1   C26 1399   6.415   5.345   8.811  0.1154  0.6006  0.0869
   19CHL1  H26A 1400   6.469   5.270   8.873  0.6609  0.9672  0.0663
   19CHL1  H26B 1401   6.472   5.366   8.718 -1.0908 -0.4846 -0.9201
   19CHL1  H26C 1402   6.405   5.442   8.865  2.5094 -0.0530  1.8975
   19CHL1   C27 1403   6.295   5.180   8.674  0.0318  1.1870 -0.2643
   19CHL1  H27A 1404   6.367   5.207   8.593 -0.9831  0.2293 -1.5274
   19CHL1  H27B 1405   6.348   5.094   8.719 -0.8427  1.1449  0.7290
   19CHL1  H27C 1406   6.194   5.145   8.644  0.2717 -1.7609  1.9475
   20CHL1    C3 1407   0.453   5.582  10.173  0.9714 -0.5752 -0.2660
   20CHL1    H3 1408   0.380   5.665  10.159  0.5320 -1.1643 -1.6637
   20CHL1    O3 1409   0.472   5.565  10.314  0.7304  0.1577 -0.1071
   20CHL1   H3' 1410   0.552   5.511  10.319  1.0705  0.7919  2.4787
   20CHL1    C4 1411   0.399   5.451  10.109  0.2141  0.1352  0.1383
   20CHL1   H4A 1412   0.465   5.373  10.154  1.0001 -0.1389 -1.4407
   20CHL1   H4B 1413   0.294   5.438  10.143  0.7757 -0.3242  1.8018
   20CHL1    C5 1414   0.411   5.442   9.960  0.0970  0.1095 -0.6386
   20CHL1    C6 1415   0.305   5.422   9.888 -0.1921 -0.3520  0.3485
   20CHL1    H6 1416   0.211   5.394   9.938 -1.5505  3.3361  0.1905
   20CHL1    C7 1417   0.286   5.435   9.735 -0.8018 -0.2702 -0.0381
   20CHL1   H7A 1418   0.216   5.359   9.695 -0.2373 -0.9963  0.3210
   20CHL1   H7B 1419   0.247   5.536   9.714 -1.7592 -0.4697  0.7194
   20CHL1    C8 1420   0.429   5.436   9.666 -0.3937 -0.2952  0.7011
   20CHL1    H8 1421   0.471   5.333   9.675 -1.8117 -1.5058 -3.7725
   20CHL1   C14 1422   0.416   5.475   9.525 -0.6897 -0.3147  0.2517
   20CHL1   H14 1423   0.378   5.579   9.522  0.6287  0.1649 -0.7701
   20CHL1   C15 1424   0.320   5.402   9.435 -0.0983  0.0747  0.3485
   20CHL1  H15A 1425   0.339   5.292   9.439  0.5612  0.1517 -0.3589
   20CHL1  H15B 1426   0.211   5.410   9.453 -0.3831  1.1834 -1.6090
   20CHL1   C16 1427   0.365   5.446   9.297  0.1279  0.5459  0.0515
   20CHL1  H16A 1428   0.378   5.349   9.245 -0.4816  0.3867  0.1805
   20CHL1  H16B 1429   0.306   5.520   9.237  0.1507 -1.0278 -2.0359
   20CHL1   C17 1430   0.497   5.524   9.314 -0.6974  0.0521 -0.0046
   20CHL1   H17 1431   0.467   5.630   9.324  1.9172  1.1148 -2.0028
   20CHL1   C13 1432   0.552   5.483   9.449  0.7357  0.0608 -0.0118
   20CHL1   C18 1433   0.622   5.346   9.433  0.0319 -0.3580 -0.6595
   20CHL1  H18A 1434   0.582   5.274   9.359  0.9352  0.5452 -2.0857
   20CHL1  H18B 1435   0.732   5.361   9.433 -0.0040  0.3118  1.6532
   20CHL1  H18C 1436   0.603   5.291   9.527 -0.3191 -3.0057 -2.1876
   20CHL1   C12 1437   0.635   5.586   9.515 -0.2790 -0.5120  0.6439
   20CHL1  H12A 1438   0.735   5.597   9.469 -0.1385  0.7962  1.2230
   20CHL1  H12B 1439   0.577   5.678   9.493  0.0382 -0.2844  0.7615
   20CHL1   C11 1440   0.658   5.550   9.666 -0.0395  0.0343  0.1971
   20CHL1  H11A 1441   0.720   5.458   9.668  0.5016  0.3824 -0.2628
   20CHL1  H11B 1442   0.720   5.626   9.717 -0.1568 -0.1425  0.6015
   20CHL1    C9 1443   0.527   5.534   9.741 -0.4593 -0.6159 -0.9542
   20CHL1    H9 1444   0.473   5.631   9.731  1.8900  1.1250  1.6133
   20CHL1   C10 1445   0.536   5.511   9.899  0.0529  0.2681 -0.1217
   20CHL1   C19 1446   0.649   5.408   9.918 -1.1399  0.5742 -0.3998
   20CHL1  H19A 1447   0.644   5.310   9.865  0.6490 -0.6410  1.5255
   20CHL1  H19B 1448   0.746   5.461   9.905 -1.3742  1.1524  0.1385
   20CHL1  H19C 1449   0.648   5.377  10.024  0.5880 -0.3682 -0.6285
   20CHL1    C1 1450   0.558   5.642   9.968  1.0031  0.2914 -0.3237
   20CHL1   H1A 1451   0.638   5.699   9.916  2.1989 -1.9819 -1.0976
   20CHL1   H1B 1452   0.471   5.708   9.950  0.5437 -0.3831 -0.6003
   20CHL1    C2 1453   0.583   5.623  10.114 -0.7948 -0.9049 -0.0818
   20CHL1   H2A 1454   0.609   5.721  10.158  1.5967 -2.3746  2.0238
   20CHL1   H2B 1455   0.671   5.560  10.142  0.9142  1.2154 -0.4235
   20CHL1   C20 1456   0.590   5.514   9.187  0.7244 -0.4752 -0.0796
   20CHL1   H20 1457   0.582   5.407   9.157 -3.0744 -0.5690  0.7060
   20CHL1   C21 1458   0.735   5.558   9.212 -0.2945 -0.5067  0.2122
   20CHL1  H21A 1459   0.738   5.661   9.252 -0.7967 -0.4964  0.2379
   20CHL1  H21B 1460   0.797   5.555   9.120  0.7689  2.0712  0.7664
   20CHL1  H21C 1461   0.796   5.507   9.290  0.0773  0.3099  0.4644
   20CHL1   C22 1462   0.522   5.571   9.056 -0.0921  0.2419  0.4388
   20CHL1  H22A 1463   0.432   5.507   9.049  1.9160 -2.6410 -0.5608
   20CHL1  H22B 1464   0.503   5.680   9.066 -2.0465  0.3220 -2.6871
   20CHL1   C23 1465   0.601   5.539   8.931  0.9527  0.1449  0.1342
   20CHL1  H23A 1466   0.705   5.577   8.934  1.3769 -1.0484  0.6901
   20CHL1  H23B 1467   0.610   5.429   8.935  0.2488  0.1005  0.8255
   20CHL1   C24 1468   0.538   5.575   8.795  0.0079  0.0286 -0.1616
   20CHL1  H24A 1469   0.428   5.556   8.800 -0.0095  0.3443  0.9884
   20CHL1  H24B 1470   0.558   5.684   8.791 -1.9296  0.3827 -1.8203
   20CHL1   C25 1471   0.598   5.494   8.671  0.1593  0.7978 -0.4879
   20CHL1   H25 1472   0.604   5.384   8.684  1.3320  0.9897  0.8381
   20CHL1   C26 1473   0.532   5.533   8.542  0.3880  0.4277  0.4972
   20CHL1  H26A 1474   0.575   5.486   8.451 -1.2894  0.5908 -0.4310
   20CHL1  H26B 1475   0.423   5.513   8.550  0.3607  0.7748  1.0017
   20CHL1  H26C 1476   0.547   5.643   8.533  1.7900  0.3606  1.6937
   20CHL1   C27 1477   0.748   5.531   8.658  0.5926  1.5808  0.5985
   20CHL1  H27A 1478   0.812   5.483   8.736  2.4795  1.0041 -1.2012
   20CHL1  H27B 1479   0.791   5.500   8.561 -0.5800  1.2066  0.1878
   20CHL1  H27C 1480   0.743   5.641   8.673 -0.2331  1.3407  2.4107
   21CHL1    C3 1481   1.674   3.952  10.276 -0.3745 -0.4916  0.2369
   21CHL1    H3 1482   1.783   3.940  10.258 -0.2715  0.2647  0.3300
   21CHL1    O3 1483   1.649   3.972  10.413  0.2672 -0.3074 -0.0048
   21CHL1   H3' 1484   1.588   3.903  10.440  0.6263 -0.5277  0.2461
   21CHL1    C4 1485   1.635   4.084  10.198 -0.8906  0.4133 -0.4713
   21CHL1   H4A 1486   1.528   4.098  10.227 -0.1938 -1.0883  3.4164
   21CHL1   H4B 1487   1.703   4.162  10.237  0.5464 -0.2837 -1.4915
   21CHL1    C5 1488   1.644   4.069  10.046  0.6716 -0.4083 -0.1341
   21CHL1    C6 1489   1.724   4.148   9.980 -0.1184 -0.1318 -0.7341
   21CHL1    H6 1490   1.794   4.215  10.032  0.6833 -0.5170 -1.2899
   21CHL1    C7 1491   1.732   4.153   9.831  0.3427  0.2842 -0.4112
   21CHL1   H7A 1492   1.737   4.259   9.797 -1.0222  0.4797 -0.0294
   21CHL1   H7B 1493   1.829   4.113   9.795  0.0268 -1.9873  1.0686
   21CHL1    C8 1494   1.616   4.075   9.758  0.2137 -0.3819 -0.7810
   21CHL1    H8 1495   1.525   4.138   9.766  1.1692  1.1366 -1.1580
   21CHL1   C14 1496   1.638   4.057   9.609  0.6258 -0.8971  0.7592
   21CHL1   H14 1497   1.737   4.007   9.605  1.2003  0.1123  1.6745
   21CHL1   C15 1498   1.678   4.180   9.518  0.5347  0.2611 -0.3357
   21CHL1  H15A 1499   1.621   4.273   9.538 -0.2453 -0.4494  0.8391
   21CHL1  H15B 1500   1.786   4.206   9.517  0.4632  0.5737 -1.5685
   21CHL1   C16 1501   1.652   4.120   9.377  0.1790 -0.2284  0.0592
   21CHL1  H16A 1502   1.573   4.187   9.338  0.0645  1.1782  2.5591
   21CHL1  H16B 1503   1.743   4.116   9.313 -0.1516  2.0044 -0.6327
   21CHL1   C17 1504   1.593   3.979   9.396  0.7052 -0.1056  1.0411
   21CHL1   H17 1505   1.684   3.916   9.397  0.9540  0.0717 -2.2808
   21CHL1   C13 1506   1.536   3.979   9.538 -0.7727  0.2280  0.1977
   21CHL1   C18 1507   1.409   4.058   9.537  0.5679 -1.1183 -0.1572
   21CHL1  H18A 1508   1.330   4.022   9.467  0.2849  1.6031 -1.3862
   21CHL1  H18B 1509   1.368   4.080   9.638  1.3800  2.4247 -0.4698
   21CHL1  H18C 1510   1.424   4.160   9.495  1.5456 -1.9159 -1.8543
   21CHL1   C12 1511   1.512   3.842   9.608  0.3748  0.2025 -0.1883
   21CHL1  H12A 1512   1.435   3.787   9.550 -1.8735  1.5099  1.3998
   21CHL1  H12B 1513   1.610   3.789   9.611  2.2289  3.3215 -0.3651
   21CHL1   C11 1514   1.475   3.846   9.760  0.3076 -0.8160  0.1365
   21CHL1  H11A 1515   1.370   3.882   9.766  0.0611 -1.4639 -0.1332
   21CHL1  H11B 1516   1.465   3.746   9.807 -0.3944 -0.5911  0.4792
   21CHL1    C9 1517   1.579   3.943   9.834  0.0906  0.9301  0.0384
   21CHL1    H9 1518   1.674   3.885   9.825 -1.5923 -1.8609 -0.9306
   21CHL1   C10 1519   1.555   3.965   9.988  0.5115 -0.0422  1.0357
   21CHL1   C19 1520   1.409   4.006   9.992  1.0755 -0.0633  0.4070
   21CHL1  H19A 1521   1.365   4.083   9.926  0.8897 -1.4451 -1.1265
   21CHL1  H19B 1522   1.336   3.925   9.972  0.9947  0.4863 -1.7302
   21CHL1  H19C 1523   1.383   4.045  10.093 -3.5013 -1.6226  0.0430
   21CHL1    C1 1524   1.595   3.834  10.066  0.5202  0.5524 -0.3423
   21CHL1   H1A 1525   1.536   3.752  10.021  2.4217 -1.4255  0.5548
   21CHL1   H1B 1526   1.703   3.814  10.049  0.5981  0.3579  0.3541
   21CHL1    C2 1527   1.586   3.840  10.221  0.2586  0.1927 -0.2569
   21CHL1   H2A 1528   1.618   3.743  10.265  1.4872  1.6717  2.3109
   21CHL1   H2B 1529   1.480   3.863  10.244  0.8024  0.9825  1.6619
   21CHL1   C20 1530   1.508   3.924   9.275 -0.0330  0.4920  0.3885
   21CHL1   H20 1531   1.414   3.983   9.275  0.5409  1.4223 -0.2248
   21CHL1   C21 1532   1.483   3.771   9.295 -0.3305 -0.2800  0.2179
   21CHL1  H21A 1533   1.398   3.752   9.364 -0.6789 -1.8859 -0.6068
   21CHL1  H21B 1534   1.579   3.727   9.330 -0.1845 -0.2306 -0.1137
   21CHL1  H21C 1535   1.461   3.718   9.200  2.0656 -2.1517  0.6033
   21CHL1   C22 1536   1.579   3.947   9.137  0.7114 -0.0526 -0.3112
   21CHL1  H22A 1537   1.500   3.938   9.060 -0.4109  1.8913  0.5367
   21CHL1  H22B 1538   1.608   4.055   9.138  1.2275 -0.1729 -1.2548
   21CHL1   C23 1539   1.701   3.865   9.112 -1.1979  0.0773  0.6471
   21CHL1  H23A 1540   1.773   3.882   9.194 -1.8442  1.7848  0.9080
   21CHL1  H23B 1541   1.669   3.759   9.108  0.6716 -0.5382  1.0470
   21CHL1   C24 1542   1.782   3.886   8.979  0.2199 -0.6071 -0.5799
   21CHL1  H24A 1543   1.781   3.994   8.953  0.7822 -1.0528 -2.5560
   21CHL1  H24B 1544   1.887   3.863   9.004 -0.8756 -2.6241  2.9159
   21CHL1   C25 1545   1.745   3.815   8.846  0.5227  0.0699 -0.3933
   21CHL1   H25 1546   1.722   3.711   8.879  0.3942  1.2631  3.9886
   21CHL1   C26 1547   1.626   3.868   8.772  0.4536 -0.0326 -0.3331
   21CHL1  H26A 1548   1.530   3.855   8.827 -0.0867  0.3779 -1.1556
   21CHL1  H26B 1549   1.643   3.978   8.772  2.9515 -0.3262  1.1725
   21CHL1  H26C 1550   1.622   3.826   8.670  2.3159 -0.2373 -0.3593
   21CHL1   C27 1551   1.865   3.822   8.751 -0.3193  0.3093 -0.9285
   21CHL1  H27A 1552   1.957   3.776   8.791  1.3583  3.2413 -1.1490
   21CHL1  H27B 1553   1.848   3.784   8.648  0.8496 -0.0041 -1.0094
   21CHL1  H27C 1554   1.893   3.929   8.738  2.1304 -0.0452  0.9031
   22CHL1    C3 1555   1.948   5.179  10.039  0.0478  0.2026  0.1462
   22CHL1    H3 1556   1.915   5.077  10.064 -3.1083  0.8951 -0.7888
   22CHL1    O3 1557   1.937   5.261  10.151 -0.4316 -0.3928  0.2070
   22CHL1   H3' 1558   1.967   5.347  10.120  0.2018  0.4362  2.8288
   22CHL1    C4 1559   2.093   5.187   9.989 -0.8634 -0.3792 -0.1679
   22CHL1   H4A 1560   2.115   5.295   9.977  0.6413 -0.3972  1.9044
   22CHL1   H4B 1561   2.165   5.153  10.067  1.1909  1.7655 -1.0287
   22CHL1    C5 1562   2.106   5.111   9.863  0.0421 -0.3858 -0.1959
   22CHL1    C6 1563   2.195   5.006   9.858  0.0892 -0.3583  0.2587
   22CHL1    H6 1564   2.262   4.986   9.943  0.4728 -0.8813 -0.1556
   22CHL1    C7 1565   2.223   4.933   9.735 -0.0398 -0.5756  0.3978
   22CHL1   H7A 1566   2.333   4.913   9.731  0.0429 -0.7873  2.4873
   22CHL1   H7B 1567   2.173   4.834   9.744  2.8838 -2.2100 -0.0810
   22CHL1    C8 1568   2.173   5.009   9.609  0.0655 -0.3090  0.1815
   22CHL1    H8 1569   2.241   5.095   9.593 -3.6144  2.7059 -0.7387
   22CHL1   C14 1570   2.171   4.917   9.485 -0.0468  0.0742  0.9350
   22CHL1   H14 1571   2.082   4.852   9.498 -0.1493 -0.2565 -1.1672
   22CHL1   C15 1572   2.289   4.823   9.452 -0.5148  0.4932 -0.2034
   22CHL1  H15A 1573   2.376   4.889   9.471  0.7014 -1.2803  0.6858
   22CHL1  H15B 1574   2.297   4.735   9.519  1.8526  0.2087 -0.7824
   22CHL1   C16 1575   2.280   4.786   9.301  0.2631  0.2248  0.0358
   22CHL1  H16A 1576   2.377   4.817   9.258  1.2461  0.8264  2.5033
   22CHL1  H16B 1577   2.255   4.679   9.281 -2.6715  1.0233 -1.0827
   22CHL1   C17 1578   2.169   4.884   9.244  0.0034  0.6013 -0.3215
   22CHL1   H17 1579   2.072   4.832   9.226 -0.8526  2.5199 -1.5481
   22CHL1   C13 1580   2.144   4.989   9.349  0.1010 -0.2503  0.2086
   22CHL1   C18 1581   2.247   5.103   9.335  0.5515  0.1679 -0.4329
   22CHL1  H18A 1582   2.221   5.150   9.238  1.0989 -1.7162 -1.5480
   22CHL1  H18B 1583   2.250   5.183   9.412  1.3787  0.3113 -0.6068
   22CHL1  H18C 1584   2.346   5.053   9.328  1.1120  1.1813  0.0844
   22CHL1   C12 1585   1.997   5.043   9.358 -0.2529  0.0205 -0.3921
   22CHL1  H12A 1586   1.979   5.093   9.260  0.0978 -1.7068 -1.3661
   22CHL1  H12B 1587   1.921   4.964   9.373 -1.4665  1.4041  1.1468
   22CHL1   C11 1588   1.975   5.124   9.491 -0.3674 -0.3497 -0.1717
   22CHL1  H11A 1589   2.039   5.214   9.490  0.3941 -0.6580  3.9086
   22CHL1  H11B 1590   1.866   5.140   9.508 -0.5653 -2.3506  0.7461
   22CHL1    C9 1591   2.028   5.063   9.626 -0.5244  0.2001 -0.0716
   22CHL1    H9 1592   1.964   4.977   9.656 -1.2418 -0.4352 -3.0885
   22CHL1   C10 1593   2.020   5.162   9.748  0.7061  0.2979  0.6348
   22CHL1   C19 1594   2.065   5.307   9.709 -0.3607 -0.7696 -0.0911
   22CHL1  H19A 1595   2.067   5.369   9.801  1.0797  1.1557 -1.3347
   22CHL1  H19B 1596   2.169   5.324   9.674 -1.0046  1.6484 -1.0519
   22CHL1  H19C 1597   2.001   5.360   9.635 -0.4634  0.5135  0.8729
   22CHL1    C1 1598   1.875   5.163   9.799  0.7645 -0.4585 -0.1933
   22CHL1   H1A 1599   1.810   5.216   9.727  0.1452 -0.2280  0.5181
   22CHL1   H1B 1600   1.827   5.063   9.805 -0.1228  0.0008  0.8001
   22CHL1    C2 1601   1.852   5.236   9.935  0.1978  0.5281  0.1430
   22CHL1   H2A 1602   1.746   5.219   9.962 -0.2968  0.8501 -1.4962
   22CHL1   H2B 1603   1.866   5.345   9.921  1.1229  0.1400 -2.3790
   22CHL1   C20 1604   2.201   4.930   9.103 -0.8764  0.3906  0.2133
   22CHL1   H20 1605   2.276   5.012   9.110  0.6380 -1.1276  3.0266
   22CHL1   C21 1606   2.075   4.997   9.045 -0.5936  0.0476 -0.1113
   22CHL1  H21A 1607   2.074   5.105   9.072  3.1830  0.3018 -0.4199
   22CHL1  H21B 1608   1.987   4.938   9.079  0.1415 -0.7612  0.4579
   22CHL1  H21C 1609   2.086   5.004   8.935  0.7884 -0.2666 -0.0114
   22CHL1   C22 1610   2.262   4.821   9.011  0.6508  0.3829 -0.8860
   22CHL1  H22A 1611   2.339   4.759   9.062  1.4275  1.5290 -0.6359
   22CHL1  H22B 1612   2.179   4.751   8.986  0.0781  0.2959  1.0951
   22CHL1   C23 1613   2.332   4.885   8.893  0.5260  0.0052  0.2810
   22CHL1  H23A 1614   2.267   4.944   8.825  0.8585  1.3103  1.0576
   22CHL1  H23B 1615   2.411   4.955   8.927  0.3554 -0.3205  1.4097
   22CHL1   C24 1616   2.407   4.787   8.807  0.0737 -0.2039 -0.1658
   22CHL1  H24A 1617   2.485   4.728   8.860 -0.2231  0.3118  0.8795
   22CHL1  H24B 1618   2.338   4.712   8.762  0.7157 -0.8032 -0.1741
   22CHL1   C25 1619   2.469   4.854   8.684 -0.0783 -0.7619 -0.4765
   22CHL1   H25 1620   2.393   4.925   8.645  1.1229  1.9091  1.7912
   22CHL1   C26 1621   2.594   4.939   8.718  0.1686  0.2417 -0.1461
   22CHL1  H26A 1622   2.628   4.997   8.630 -0.4328 -0.9612 -1.1968
   22CHL1  H26B 1623   2.583   5.016   8.797  1.3606  0.8346 -0.5391
   22CHL1  H26C 1624   2.678   4.869   8.742  0.3560 -0.0793 -1.6175
   22CHL1   C27 1625   2.514   4.747   8.573 -0.2095 -0.0757  0.0351
   22CHL1  H27A 1626   2.591   4.674   8.606  0.1081  0.4496  0.4739
   22CHL1  H27B 1627   2.427   4.700   8.522 -1.9398  2.3737  0.5451
   22CHL1  H27C 1628   2.575   4.803   8.498 -0.6680  0.9942  0.4432
   23CHL1    C3 1629   4.801   6.288  10.159  0.3243  0.5580 -0.0027
   23CHL1    H3 1630   4.697   6.260  10.133 -0.3647  0.7561  2.3106
   23CHL1    O3 1631   4.814   6.255  10.297 -0.3624 -0.1832 -1.0405
   23CHL1   H3' 1632   4.908   6.268  10.312  0.1360 -3.2365 -0.7221
   23CHL1    C4 1633   4.892   6.216  10.057 -0.1080 -0.6047  0.6037
   23CHL1   H4A 1634   4.998   6.238  10.085  0.0581  0.1158 -0.5227
   23CHL1   H4B 1635   4.884   6.107  10.076 -0.6529 -0.4801  1.1442
   23CHL1    C5 1636   4.867   6.252   9.904 -0.4388 -0.3431 -0.0164
   23CHL1    C6 1637   4.853   6.160   9.811 -0.2848 -0.8621  0.0512
   23CHL1    H6 1638   4.857   6.053   9.835  0.1840 -0.7156  0.6441
   23CHL1    C7 1639   4.838   6.195   9.666  0.1108 -0.2864  0.1533
   23CHL1   H7A 1640   4.913   6.136   9.608  0.0899 -0.5344  0.3796
   23CHL1   H7B 1641   4.732   6.176   9.639 -0.2279 -1.2254  1.9947
   23CHL1    C8 1642   4.848   6.346   9.635  0.2389  0.0066  0.3360
   23CHL1    H8 1643   4.956   6.369   9.633 -0.1037  1.7805 -1.4156
   23CHL1   C14 1644   4.776   6.370   9.506 -0.3773  0.7072  0.4918
   23CHL1   H14 1645   4.669   6.359   9.536 -0.1457  0.4087  1.2394
   23CHL1   C15 1646   4.800   6.275   9.391 -0.0557  0.4064 -0.0638
   23CHL1  H15A 1647   4.906   6.244   9.387 -0.2112 -0.7922  2.7030
   23CHL1  H15B 1648   4.733   6.187   9.400 -0.1744  0.3456 -1.3484
   23CHL1   C16 1649   4.763   6.363   9.270  0.5775  0.9957 -0.6557
   23CHL1  H16A 1650   4.854   6.370   9.207  0.5573  1.6162 -0.6183
   23CHL1  H16B 1651   4.683   6.319   9.206 -0.6571 -0.8480  1.9489
   23CHL1   C17 1652   4.719   6.504   9.319  0.0674  0.0873 -0.1349
   23CHL1   H17 1653   4.609   6.505   9.332  0.1552  1.5926  0.7964
   23CHL1   C13 1654   4.795   6.519   9.454  0.8399 -0.0172 -0.7627
   23CHL1   C18 1655   4.935   6.558   9.426 -0.4342 -0.1469 -0.5823
   23CHL1  H18A 1656   5.001   6.550   9.515 -0.0530  0.1223 -0.8333
   23CHL1  H18B 1657   4.991   6.489   9.359  1.2762 -0.1535  0.7764
   23CHL1  H18C 1658   4.942   6.665   9.396 -0.8935  0.0076 -0.1377
   23CHL1   C12 1659   4.736   6.612   9.565  0.2265  0.7105 -0.6198
   23CHL1  H12A 1660   4.743   6.721   9.541 -2.6810  0.8335 -1.3420
   23CHL1  H12B 1661   4.627   6.589   9.574  0.0171  1.5138 -0.9972
   23CHL1   C11 1662   4.797   6.580   9.703  0.0931 -0.9460  0.4457
   23CHL1  H11A 1663   4.902   6.614   9.696 -0.8805  2.2092 -0.4073
   23CHL1  H11B 1664   4.749   6.643   9.781  1.4435  3.0863 -1.6710
   23CHL1    C9 1665   4.795   6.431   9.743 -0.9452 -0.0336  0.0790
   23CHL1    H9 1666   4.690   6.397   9.755 -1.2855  0.9944  0.1275
   23CHL1   C10 1667   4.856   6.401   9.885  0.0698 -0.3880  0.2184
   23CHL1   C19 1668   5.005   6.456   9.882 -0.0549 -0.9958  0.0363
   23CHL1  H19A 1669   4.996   6.567   9.890 -0.6948 -1.1471  1.9669
   23CHL1  H19B 1670   5.060   6.416   9.970  1.1393 -0.2447 -0.3424
   23CHL1  H19C 1671   5.069   6.427   9.795 -1.4336  1.6091 -2.0047
   23CHL1    C1 1672   4.777   6.477   9.993 -0.0381 -0.1120 -0.1928
   23CHL1   H1A 1673   4.799   6.586   9.989  1.3485 -0.3798 -0.2286
   23CHL1   H1B 1674   4.672   6.460   9.960  0.4369 -5.1241  0.1080
   23CHL1    C2 1675   4.805   6.437  10.139  0.0231 -0.7584  0.9180
   23CHL1   H2A 1676   4.729   6.490  10.200 -0.0356  0.5115 -0.1897
   23CHL1   H2B 1677   4.908   6.473  10.163  1.1990 -0.3370 -3.8014
   23CHL1   C20 1678   4.742   6.617   9.209  0.3795  0.1917 -0.8628
   23CHL1   H20 1679   4.848   6.626   9.177  0.2540  0.4741 -1.2117
   23CHL1   C21 1680   4.702   6.759   9.262  0.3244 -0.0446 -0.0129
   23CHL1  H21A 1681   4.767   6.793   9.345 -0.5667  1.0092  0.2733
   23CHL1  H21B 1682   4.598   6.753   9.302  0.6350  1.4765  1.1193
   23CHL1  H21C 1683   4.705   6.831   9.177 -1.5132 -0.4697 -0.5052
   23CHL1   C22 1684   4.656   6.589   9.079  1.1362  0.4384 -0.6397
   23CHL1  H22A 1685   4.662   6.482   9.050 -0.0296  0.0303  0.5273
   23CHL1  H22B 1686   4.551   6.612   9.109  0.9361  0.1933 -1.1378
   23CHL1   C23 1687   4.698   6.664   8.955 -0.5002  0.2765 -0.0056
   23CHL1  H23A 1688   4.692   6.774   8.971  1.6699  0.1425  2.4636
   23CHL1  H23B 1689   4.804   6.639   8.933 -0.8528 -0.4197 -0.9815
   23CHL1   C24 1690   4.605   6.613   8.839  0.0020 -0.7420 -0.0353
   23CHL1  H24A 1691   4.630   6.507   8.820  2.5993 -0.5477  1.7067
   23CHL1  H24B 1692   4.504   6.630   8.881 -1.6172 -2.2044 -3.0788
   23CHL1   C25 1693   4.621   6.683   8.711  0.2057 -0.1595 -0.5013
   23CHL1   H25 1694   4.554   6.625   8.644  0.0238  0.8767 -1.2315
   23CHL1   C26 1695   4.566   6.823   8.709  0.6279 -0.5582  0.1176
   23CHL1  H26A 1696   4.638   6.887   8.764  3.1532 -2.1331 -1.1733
   23CHL1  H26B 1697   4.550   6.879   8.614  0.4915 -0.0714  0.4241
   23CHL1  H26C 1698   4.463   6.822   8.751 -0.7202 -1.2596 -2.8622
   23CHL1   C27 1699   4.767   6.674   8.659 -0.7287  0.0326  0.3418
   23CHL1  H27A 1700   4.843   6.718   8.727  0.3023 -0.6827 -0.3122
   23CHL1  H27B 1701   4.792   6.566   8.658  0.8208  0.3649  0.3324
   23CHL1  H27C 1702   4.764   6.719   8.557 -3.0541 -1.2440 -0.2112
   24CHL1    C3 1703   3.650   0.243  10.209 -0.3885 -0.1932  0.5098
   24CHL1    H3 1704   3.625   0.135  10.211 -2.2915  0.1890 -0.2349
   24CHL1    O3 1705   3.653   0.301  10.335  0.2340  0.4703  0.1472
   24CHL1   H3' 1706   3.738   0.269  10.365  0.1926 -1.9049 -1.8933
   24CHL1    C4 1707   3.786   0.273  10.149  0.0160  0.2509  0.1526
   24CHL1   H4A 1708   3.816   0.380  10.151 -1.2707  0.6715 -1.1265
   24CHL1   H4B 1709   3.854   0.213  10.213 -1.3910 -2.8013 -1.0327
   24CHL1    C5 1710   3.798   0.240  10.005 -0.6396 -0.1307  0.1709
   24CHL1    C6 1711   3.904   0.166   9.960  0.7172  0.8348 -0.2699
   24CHL1    H6 1712   3.987   0.140  10.026 -0.7889 -0.5958  1.1603
   24CHL1    C7 1713   3.927   0.127   9.814  0.0116  0.5412 -0.2609
   24CHL1   H7A 1714   4.032   0.130   9.778  0.7449 -1.8999  1.4338
   24CHL1   H7B 1715   3.884   0.025   9.808 -0.3484  0.5897  1.1321
   24CHL1    C8 1716   3.839   0.215   9.719  0.3792  0.6549 -0.5590
   24CHL1    H8 1717   3.880   0.319   9.713 -2.1912  1.7275 -0.7083
   24CHL1   C14 1718   3.849   0.160   9.582 -0.4490 -0.0252 -0.3223
   24CHL1   H14 1719   3.793   0.064   9.581 -0.8709  0.1995  0.5458
   24CHL1   C15 1720   3.993   0.152   9.518  0.2690 -0.1070  0.0926
   24CHL1  H15A 1721   4.060   0.230   9.558 -0.4852 -0.5302  2.2917
   24CHL1  H15B 1722   4.026   0.049   9.545 -0.7961 -0.3282  0.5998
   24CHL1   C16 1723   3.964   0.166   9.366 -0.6845 -0.7242 -0.8368
   24CHL1  H16A 1724   4.018   0.261   9.348  0.4415 -1.1510  0.1658
   24CHL1  H16B 1725   4.006   0.079   9.312 -0.3731  0.2039 -2.1349
   24CHL1   C17 1726   3.812   0.187   9.346  0.3716 -0.6445  0.0381
   24CHL1   H17 1727   3.758   0.091   9.338 -2.9888  1.0550  0.5238
   24CHL1   C13 1728   3.759   0.247   9.482 -0.3108  0.0581  0.1792
   24CHL1   C18 1729   3.798   0.396   9.487  0.3014 -0.0257 -0.4977
   24CHL1  H18A 1730   3.720   0.458   9.439 -1.2289 -0.7879  0.8984
   24CHL1  H18B 1731   3.787   0.438   9.590 -3.4938  2.5055 -1.7107
   24CHL1  H18C 1732   3.904   0.412   9.459  0.4069 -0.4677 -0.3612
   24CHL1   C12 1733   3.621   0.218   9.524 -0.1428  0.1582 -0.5451
   24CHL1  H12A 1734   3.553   0.266   9.451  2.4008  0.5794 -2.7724
   24CHL1  H12B 1735   3.595   0.111   9.512  1.2724 -0.1006 -1.5066
   24CHL1   C11 1736   3.600   0.272   9.667 -0.1357 -0.5920  0.0593
   24CHL1  H11A 1737   3.600   0.383   9.662 -0.0300 -0.4533  2.2864
   24CHL1  H11B 1738   3.495   0.248   9.693 -1.4844  3.1374 -1.3177
   24CHL1    C9 1739   3.693   0.219   9.770 -0.2162 -0.3694 -0.0339
   24CHL1    H9 1740   3.664   0.112   9.784  1.3349 -0.9762 -1.2240
   24CHL1   C10 1741   3.682   0.286   9.910 -0.3654  0.5544 -0.1113
   24CHL1   C19 1742   3.699   0.439   9.906 -0.2785  0.6581 -0.8001
   24CHL1  H19A 1743   3.704   0.489  10.005  0.9334  1.4189 -1.2243
   24CHL1  H19B 1744   3.797   0.466   9.860 -0.8083  0.9288 -1.8141
   24CHL1  H19C 1745   3.613   0.490   9.856  0.2127  0.1549 -2.2098
   24CHL1    C1 1746   3.546   0.255   9.981  0.6482 -0.0277 -0.0945
   24CHL1   H1A 1747   3.470   0.309   9.921 -2.0218 -1.0999  2.1248
   24CHL1   H1B 1748   3.537   0.144   9.981 -0.4949  0.0360  1.6059
   24CHL1    C2 1749   3.539   0.302  10.134 -0.3004  0.3689  0.7985
   24CHL1   H2A 1750   3.438   0.276  10.173 -0.2375  0.1715  0.8285
   24CHL1   H2B 1751   3.545   0.413  10.144 -1.0800  0.5034 -0.0543
   24CHL1   C20 1752   3.789   0.251   9.207  0.2206  0.0754 -0.2502
   24CHL1   H20 1753   3.846   0.347   9.207  0.1392  0.1293  0.3625
   24CHL1   C21 1754   3.644   0.291   9.191 -0.4746 -0.1912  0.0486
   24CHL1  H21A 1755   3.576   0.206   9.211  0.2260 -0.8985 -0.5252
   24CHL1  H21B 1756   3.636   0.347   9.095  1.5371  0.6870  0.3316
   24CHL1  H21C 1757   3.616   0.363   9.271 -0.3547  0.4595 -0.4880
   24CHL1   C22 1758   3.834   0.158   9.092  0.0669  0.1343  0.7499
   24CHL1  H22A 1759   3.929   0.113   9.129  0.9625  1.7467  0.5013
   24CHL1  H22B 1760   3.766   0.070   9.090 -0.5541  0.5975 -1.8333
   24CHL1   C23 1761   3.839   0.225   8.955 -0.9333  0.7358 -0.0034
   24CHL1  H23A 1762   3.761   0.302   8.936 -0.0235  1.5014 -0.7753
   24CHL1  H23B 1763   3.936   0.280   8.956 -0.4511  0.0792 -2.7279
   24CHL1   C24 1764   3.835   0.122   8.841 -0.0533  0.3903 -0.0100
   24CHL1  H24A 1765   3.930   0.065   8.835  0.2057  0.7974  0.1605
   24CHL1  H24B 1766   3.751   0.057   8.875 -2.9005  3.4620 -0.6295
   24CHL1   C25 1767   3.786   0.177   8.708  0.8227  0.0371 -0.1604
   24CHL1   H25 1768   3.676   0.191   8.710  0.3018 -2.6837 -2.4213
   24CHL1   C26 1769   3.837   0.315   8.665  0.2929 -0.4033  0.5676
   24CHL1  H26A 1770   3.769   0.362   8.590  2.0166 -0.1136 -0.8943
   24CHL1  H26B 1771   3.839   0.386   8.750  1.1004 -0.9560  1.0181
   24CHL1  H26C 1772   3.939   0.306   8.622  0.3920  0.3347  0.6278
   24CHL1   C27 1773   3.791   0.070   8.592  0.4369  0.8982  0.8427
   24CHL1  H27A 1774   3.742  -0.024   8.627  0.4536  0.6173  0.1342
   24CHL1  H27B 1775   3.750   0.090   8.491  1.4592 -1.7947 -0.1819
   24CHL1  H27C 1776   3.898   0.046   8.582  0.3499  0.4102  1.0605
   25CHL1    C3 1777   6.785   0.572  10.375  0.1947 -0.6089 -0.4249
   25CHL1    H3 1778   6.864   0.637  10.332  0.9533 -0.3129  1.3298
   25CHL1    O3 1779   6.810   0.572  10.514  0.5600 -0.5315 -0.1222
   25CHL1   H3' 1780   6.754   0.500  10.544 -1.0552  0.7317  0.0161
   25CHL1    C4 1781   6.645   0.624  10.340 -0.4069 -0.2833 -0.6242
   25CHL1   H4A 1782   6.567   0.561  10.387 -1.3617  2.0360  1.1415
   25CHL1   H4B 1783   6.632   0.723  10.390  1.7439 -0.1094 -0.3033
   25CHL1    C5 1784   6.634   0.637  10.187  0.0237  0.0628 -0.4377
   25CHL1    C6 1785   6.602   0.753  10.127  0.4345 -0.2615  0.6196
   25CHL1    H6 1786   6.585   0.841  10.190 -0.5694  0.2152 -0.2861
   25CHL1    C7 1787   6.577   0.763   9.977  0.2137  0.6158 -0.1232
   25CHL1   H7A 1788   6.485   0.822   9.958 -0.3471 -0.4192 -0.7433
   25CHL1   H7B 1789   6.654   0.819   9.920 -1.3253  0.6811 -2.2723
   25CHL1    C8 1790   6.559   0.621   9.909  0.5802 -0.1103 -0.2306
   25CHL1    H8 1791   6.454   0.587   9.925  1.4396 -2.3846  1.1550
   25CHL1   C14 1792   6.589   0.630   9.759 -0.4318  0.4712  0.4327
   25CHL1   H14 1793   6.696   0.659   9.747  0.6861 -3.4176 -0.4306
   25CHL1   C15 1794   6.497   0.722   9.674 -0.6111 -0.4986 -0.3994
   25CHL1  H15A 1795   6.391   0.719   9.706 -1.4488  1.3333 -2.8009
   25CHL1  H15B 1796   6.518   0.831   9.680 -2.0867 -0.1624 -1.0766
   25CHL1   C16 1797   6.524   0.681   9.532  0.1211 -0.1292 -1.1628
   25CHL1  H16A 1798   6.422   0.670   9.489 -0.4495  1.6096 -0.3383
   25CHL1  H16B 1799   6.572   0.759   9.470 -0.8613  0.6040 -1.0199
   25CHL1   C17 1800   6.615   0.555   9.536  0.3665  0.2496  0.2344
   25CHL1   H17 1801   6.719   0.594   9.537  0.1663  0.7903 -0.0419
   25CHL1   C13 1802   6.597   0.500   9.673  0.4099 -0.5265 -0.2430
   25CHL1   C18 1803   6.459   0.441   9.678  0.8909  0.4783 -0.0577
   25CHL1  H18A 1804   6.420   0.439   9.782  0.7392  1.8816 -0.0718
   25CHL1  H18B 1805   6.378   0.489   9.618 -1.3007  0.0213  2.3637
   25CHL1  H18C 1806   6.459   0.337   9.638  1.4225  0.7417 -0.7731
   25CHL1   C12 1807   6.711   0.424   9.734  0.1954  0.6957 -0.1211
   25CHL1  H12A 1808   6.730   0.334   9.672 -0.6979  0.5012 -0.1298
   25CHL1  H12B 1809   6.806   0.480   9.726  0.4152  0.0532 -2.9781
   25CHL1   C11 1810   6.672   0.389   9.882  0.5582 -0.3376 -0.1277
   25CHL1  H11A 1811   6.572   0.342   9.887  0.2592  0.2354 -0.6183
   25CHL1  H11B 1812   6.758   0.328   9.918 -1.3663 -2.1463  1.6632
   25CHL1    C9 1813   6.660   0.515   9.966  0.7846 -0.3124 -0.1348
   25CHL1    H9 1814   6.759   0.563   9.948 -0.8009  2.6962 -1.5534
   25CHL1   C10 1815   6.659   0.492  10.121 -0.5655 -0.3982 -0.1373
   25CHL1   C19 1816   6.541   0.400  10.152  0.4468  1.0075  0.1863
   25CHL1  H19A 1817   6.451   0.439  10.099 -0.2803 -1.7241 -0.7387
   25CHL1  H19B 1818   6.564   0.308  10.095  0.7173 -0.1666  2.0883
   25CHL1  H19C 1819   6.521   0.370  10.257  2.8815 -1.2313  0.1174
   25CHL1    C1 1820   6.791   0.422  10.169  0.0888 -0.9528 -0.1239
   25CHL1   H1A 1821   6.786   0.318  10.131  1.6421 -1.1423  0.1277
   25CHL1   H1B 1822   6.868   0.482  10.117 -1.5317  0.4441 -1.0232
   25CHL1    C2 1823   6.813   0.433  10.322  0.3307  0.1570  0.0726
   25CHL1   H2A 1824   6.913   0.396  10.352  0.1062 -1.1930 -0.7636
   25CHL1   H2B 1825   6.743   0.358  10.364  0.3526  0.6887  1.0915
   25CHL1   C20 1826   6.593   0.463   9.415 -0.0495 -0.6489 -0.7870
   25CHL1   H20 1827   6.486   0.433   9.408 -0.0783 -1.1217  1.0671
   25CHL1   C21 1828   6.677   0.337   9.409  0.2160 -0.1887  0.1721
   25CHL1  H21A 1829   6.664   0.274   9.318 -0.1739 -2.0021  1.4233
   25CHL1  H21B 1830   6.637   0.271   9.489  3.4432 -2.5401  0.0512
   25CHL1  H21C 1831   6.785   0.354   9.426  0.2143 -1.0878  1.1892
   25CHL1   C22 1832   6.614   0.554   9.290  0.1795  0.4563 -0.2216
   25CHL1  H22A 1833   6.571   0.657   9.290  0.0498  0.4032 -0.1681
   25CHL1  H22B 1834   6.721   0.579   9.277  0.2759  0.2839  0.2346
   25CHL1   C23 1835   6.564   0.490   9.159 -0.3720 -0.9625 -0.3244
   25CHL1  H23A 1836   6.621   0.396   9.144 -0.3611 -0.9315 -0.4751
   25CHL1  H23B 1837   6.456   0.477   9.181 -0.1656  0.4261  1.8173
   25CHL1   C24 1838   6.585   0.587   9.042 -0.0580 -0.0305  0.0508
   25CHL1  H24A 1839   6.502   0.660   9.058 -0.7355 -0.9632  0.9740
   25CHL1  H24B 1840   6.686   0.630   9.025 -0.9312  1.6391 -1.2249
   25CHL1   C25 1841   6.533   0.512   8.923  0.1741 -0.0039  0.7583
   25CHL1   H25 1842   6.442   0.456   8.950  0.3658 -0.6254  0.1300
   25CHL1   C26 1843   6.497   0.595   8.803 -0.1049  0.1128  0.0553
   25CHL1  H26A 1844   6.588   0.606   8.741  0.1405 -0.5826  0.2867
   25CHL1  H26B 1845   6.421   0.538   8.746 -2.3063 -0.1894  3.0239
   25CHL1  H26C 1846   6.469   0.696   8.841  2.6298 -0.3131  3.7641
   25CHL1   C27 1847   6.646   0.406   8.881 -0.0090 -0.2446 -0.5439
   25CHL1  H27A 1848   6.740   0.463   8.865  1.6713 -2.5128  0.5318
   25CHL1  H27B 1849   6.670   0.341   8.968  0.1550 -0.5461 -0.8144
   25CHL1  H27C 1850   6.613   0.339   8.799  0.1568 -1.0228  0.0119
   26CHL1    C3 1851   6.408   3.842  10.196  0.1522  0.8542  0.7234
   26CHL1    H3 1852   6.516   3.835  10.172  0.1443 -1.8165  1.1678
   26CHL1    O3 1853   6.373   3.805  10.327  0.1117 -0.4678 -0.1147
   26CHL1   H3' 1854   6.369   3.709  10.335 -2.4885 -0.3005  2.1179
   26CHL1    C4 1855   6.377   3.989  10.168  0.2581 -0.3309 -0.5410
   26CHL1   H4A 1856   6.274   4.012  10.206 -0.2352  0.6387 -2.3573
   26CHL1   H4B 1857   6.444   4.051  10.232 -0.3436 -2.1755  2.0714
   26CHL1    C5 1858   6.387   4.033  10.021  0.3978  0.0389 -0.5033
   26CHL1    C6 1859   6.461   4.142   9.987  0.4162 -0.0001 -0.3512
   26CHL1    H6 1860   6.505   4.205  10.067 -0.8807  1.0277 -0.4032
   26CHL1    C7 1861   6.475   4.195   9.849 -0.0138 -0.2525 -0.0492
   26CHL1   H7A 1862   6.453   4.304   9.844 -1.1357 -0.4031  1.0343
   26CHL1   H7B 1863   6.581   4.174   9.823  0.3992  0.1489  1.2401
   26CHL1    C8 1864   6.395   4.101   9.747 -0.5464  0.6118  0.0295
   26CHL1    H8 1865   6.291   4.140   9.742 -0.6975  0.0892 -1.3951
   26CHL1   C14 1866   6.456   4.113   9.612 -0.4321  0.2213 -0.1414
   26CHL1   H14 1867   6.551   4.057   9.623 -0.9946 -0.7369 -0.0028
   26CHL1   C15 1868   6.480   4.256   9.559  0.5714  0.9771  0.6730
   26CHL1  H15A 1869   6.392   4.317   9.589 -0.6374 -0.1585 -0.4441
   26CHL1  H15B 1870   6.573   4.301   9.599  0.7850  1.9014 -0.7892
   26CHL1   C16 1871   6.476   4.237   9.405 -0.1365 -0.3965  0.2881
   26CHL1  H16A 1872   6.394   4.307   9.376  0.7892  0.3938 -0.4713
   26CHL1  H16B 1873   6.566   4.286   9.363 -0.3713  0.2389  0.5025
   26CHL1   C17 1874   6.454   4.091   9.372  0.4401  0.1964  0.2336
   26CHL1   H17 1875   6.551   4.035   9.370  0.1681 -0.2613 -0.8086
   26CHL1   C13 1876   6.383   4.035   9.498  0.2042 -0.1096 -0.3044
   26CHL1   C18 1877   6.229   4.078   9.495 -0.4497  0.3570  0.4065
   26CHL1  H18A 1878   6.188   4.009   9.418  2.7176 -0.4077 -0.7477
   26CHL1  H18B 1879   6.182   4.047   9.591 -0.7280  1.9754  0.8221
   26CHL1  H18C 1880   6.225   4.188   9.480 -1.9235  0.4072  0.9739
   26CHL1   C12 1881   6.398   3.884   9.533 -0.3032  0.6217 -0.3494
   26CHL1  H12A 1882   6.337   3.820   9.465  0.4510 -0.9890  0.4394
   26CHL1  H12B 1883   6.506   3.862   9.523 -0.0543  1.5118  0.2736
   26CHL1   C11 1884   6.351   3.854   9.672  0.1670  0.0356 -0.2635
   26CHL1  H11A 1885   6.240   3.856   9.673  0.1025 -1.4403  1.8118
   26CHL1  H11B 1886   6.380   3.753   9.707 -0.4431  0.7532  2.5109
   26CHL1    C9 1887   6.401   3.949   9.782  0.7220 -0.3224 -0.0049
   26CHL1    H9 1888   6.507   3.917   9.793  0.6785 -0.4687  0.0001
   26CHL1   C10 1889   6.333   3.929   9.915 -0.2905 -0.6316 -0.1417
   26CHL1   C19 1890   6.180   3.954   9.907 -0.2921  0.7487  0.0225
   26CHL1  H19A 1891   6.128   3.948  10.006  2.1744 -0.9240  1.3148
   26CHL1  H19B 1892   6.157   4.048   9.853  2.1947  1.5614  0.2600
   26CHL1  H19C 1893   6.138   3.869   9.850  0.7824  1.4836 -1.9506
   26CHL1    C1 1894   6.360   3.783   9.956  0.3365 -0.7324 -0.5938
   26CHL1   H1A 1895   6.307   3.712   9.888 -1.2882 -0.3944  0.2925
   26CHL1   H1B 1896   6.469   3.765   9.945  0.5240 -1.2252  1.6887
   26CHL1    C2 1897   6.330   3.751  10.105 -0.2341  0.4736  0.5337
   26CHL1   H2A 1898   6.366   3.649  10.128 -2.1429 -0.1552  0.8918
   26CHL1   H2B 1899   6.221   3.741  10.120 -0.0168 -1.1592  1.2461
   26CHL1   C20 1900   6.388   4.064   9.232 -0.0546 -0.5331 -0.0082
   26CHL1   H20 1901   6.287   4.109   9.243  0.6527  1.1598 -0.1484
   26CHL1   C21 1902   6.356   3.913   9.216  0.3345  0.6173 -0.0717
   26CHL1  H21A 1903   6.329   3.879   9.113 -1.8718  0.3026  0.5486
   26CHL1  H21B 1904   6.282   3.879   9.292  1.3231 -0.2035  0.5341
   26CHL1  H21C 1905   6.449   3.857   9.235  0.1964 -0.6311 -2.5542
   26CHL1   C22 1906   6.457   4.124   9.110  0.2227 -0.2036  0.2135
   26CHL1  H22A 1907   6.462   4.232   9.133 -2.3211 -0.3184  1.6349
   26CHL1  H22B 1908   6.562   4.088   9.102  0.8443  1.4783  0.5269
   26CHL1   C23 1909   6.379   4.102   8.976 -0.0758  0.2085 -0.7986
   26CHL1  H23A 1910   6.433   4.148   8.891  0.7222  0.6131 -0.0861
   26CHL1  H23B 1911   6.354   3.996   8.954 -4.0280  0.4165  1.6700
   26CHL1   C24 1912   6.240   4.176   8.972 -0.2698  0.2125 -0.4449
   26CHL1  H24A 1913   6.184   4.145   9.062 -0.6179 -2.7289 -1.5499
   26CHL1  H24B 1914   6.259   4.285   8.969  0.1427  0.1341 -0.9238
   26CHL1   C25 1915   6.152   4.139   8.852 -0.2481 -0.0265  0.9586
   26CHL1   H25 1916   6.105   4.039   8.859 -0.5798  0.0907  0.4783
   26CHL1   C26 1917   6.034   4.244   8.834  0.2708 -0.2084 -0.1398
   26CHL1  H26A 1918   6.077   4.346   8.845  2.0070 -0.9767  0.5949
   26CHL1  H26B 1919   5.995   4.236   8.730 -0.0118 -1.2163  0.0341
   26CHL1  H26C 1920   5.954   4.222   8.908 -1.3279  1.2554 -1.3523
   26CHL1   C27 1921   6.228   4.121   8.718  0.0366  0.4103  0.2899
   26CHL1  H27A 1922   6.284   4.215   8.700 -0.6361  0.4618 -1.8199
   26CHL1  H27B 1923   6.300   4.037   8.711  0.9246  1.2306 -0.7724
   26CHL1  H27C 1924   6.162   4.117   8.629  1.0759  2.3511 -0.6324
   27CHL1    C3 1925   0.427   6.094  10.350 -0.4769 -0.1416  1.2512
   27CHL1    H3 1926   0.322   6.131  10.339  0.0463  1.3598  1.0756
   27CHL1    O3 1927   0.457   6.078  10.486  0.4834 -0.1239 -0.3668
   27CHL1   H3' 1928   0.431   5.991  10.517 -0.2898  0.3776  0.4360
   27CHL1    C4 1929   0.441   5.959  10.284  1.2430 -0.0054 -0.0191
   27CHL1   H4A 1930   0.541   5.914  10.300  1.0506  0.1171  1.7350
   27CHL1   H4B 1931   0.376   5.886  10.337  1.2694 -2.9634 -3.6280
   27CHL1    C5 1932   0.403   5.972  10.141 -0.0421  0.1264 -0.0331
   27CHL1    C6 1933   0.301   5.899  10.084 -0.5926 -0.5348  0.4678
   27CHL1    H6 1934   0.236   5.841  10.150  1.0470 -2.1611  0.7292
   27CHL1    C7 1935   0.258   5.903   9.940  0.3931 -0.3578  0.0704
   27CHL1   H7A 1936   0.236   5.801   9.904  2.0534 -0.1512 -1.6776
   27CHL1   H7B 1937   0.174   5.975   9.925  1.4224  0.6740 -1.0256
   27CHL1    C8 1938   0.372   5.960   9.853  0.3161  0.8177 -0.1741
   27CHL1    H8 1939   0.448   5.879   9.850 -0.0974  0.4344 -0.3769
   27CHL1   C14 1940   0.326   5.987   9.712  0.6128 -0.4848  0.4973
   27CHL1   H14 1941   0.244   6.063   9.717  0.9649 -0.1135  0.6507
   27CHL1   C15 1942   0.270   5.867   9.635  1.0205  0.1530  0.0352
   27CHL1  H15A 1943   0.340   5.782   9.649 -0.1165 -0.7829  0.2231
   27CHL1  H15B 1944   0.175   5.835   9.683  1.2774  2.0704  2.0075
   27CHL1   C16 1945   0.275   5.913   9.497 -0.0139  0.0875  0.9640
   27CHL1  H16A 1946   0.346   5.841   9.450  0.4123 -0.2336  2.0864
   27CHL1  H16B 1947   0.177   5.907   9.446  0.7176  0.5976 -0.5825
   27CHL1   C17 1948   0.342   6.057   9.489  0.6769 -0.0184 -0.0494
   27CHL1   H17 1949   0.264   6.137   9.496  1.2571  0.7747 -1.9510
   27CHL1   C13 1950   0.424   6.065   9.615  0.1448 -0.1051  0.5101
   27CHL1   C18 1951   0.550   5.976   9.596  0.2612 -0.1668  0.9425
   27CHL1  H18A 1952   0.606   5.944   9.687  2.3693 -0.6616 -0.4469
   27CHL1  H18B 1953   0.543   5.891   9.525  1.8366  0.7831 -0.4292
   27CHL1  H18C 1954   0.627   6.038   9.544 -0.3894 -0.6281 -0.6300
   27CHL1   C12 1955   0.456   6.198   9.679 -0.2104 -0.4436  0.2728
   27CHL1  H12A 1956   0.539   6.245   9.621 -0.7262  1.9608  1.3900
   27CHL1  H12B 1957   0.367   6.264   9.688 -0.3542 -0.6174  0.1397
   27CHL1   C11 1958   0.514   6.163   9.822 -0.7087  0.5130 -0.1233
   27CHL1  H11A 1959   0.611   6.112   9.802 -0.3183  1.1971 -0.0122
   27CHL1  H11B 1960   0.541   6.262   9.866  0.5235  0.7611 -1.3430
   27CHL1    C9 1961   0.432   6.085   9.919 -0.2946 -0.8113  0.8200
   27CHL1    H9 1962   0.339   6.146   9.932  0.9403  1.0160  1.5454
   27CHL1   C10 1963   0.493   6.063  10.057  0.2119 -0.4816  0.5592
   27CHL1   C19 1964   0.639   6.020  10.061  0.8094  0.7296  0.0244
   27CHL1  H19A 1965   0.674   6.014  10.166 -0.5353 -1.1551  0.4269
   27CHL1  H19B 1966   0.631   5.914  10.028  2.7630 -0.1039  2.0424
   27CHL1  H19C 1967   0.717   6.077  10.007  1.0666  2.0420  1.7082
   27CHL1    C1 1968   0.497   6.199  10.132 -0.4866  0.6260 -0.1594
   27CHL1   H1A 1969   0.578   6.257  10.083 -0.8012 -1.9564 -4.2140
   27CHL1   H1B 1970   0.411   6.262  10.102  1.0858  2.8150 -0.3517
   27CHL1    C2 1971   0.508   6.196  10.290 -0.2410 -0.3283 -0.0208
   27CHL1   H2A 1972   0.472   6.295  10.325  1.9929  0.7030 -0.4743
   27CHL1   H2B 1973   0.613   6.192  10.327 -1.2419 -0.0224  3.1796
   27CHL1   C20 1974   0.409   6.083   9.352  0.3181  0.3895 -0.2762
   27CHL1   H20 1975   0.509   6.034   9.353  1.1936  2.1110  0.2258
   27CHL1   C21 1976   0.456   6.227   9.329  0.3891  0.4985  1.2595
   27CHL1  H21A 1977   0.370   6.297   9.323  0.2997  0.2839 -0.5087
   27CHL1  H21B 1978   0.501   6.224   9.227 -1.4003 -1.4454  0.4470
   27CHL1  H21C 1979   0.529   6.260   9.406  1.0150 -0.0654  0.9211
   27CHL1   C22 1980   0.320   6.042   9.229  0.1801  0.1472 -0.2162
   27CHL1  H22A 1981   0.263   5.950   9.254 -0.3792  0.7949  0.9615
   27CHL1  H22B 1982   0.241   6.119   9.218 -0.1532  0.2773  2.4322
   27CHL1   C23 1983   0.400   6.009   9.096  0.4779 -0.0214 -0.0547
   27CHL1  H23A 1984   0.476   6.089   9.084  0.2574 -0.0573 -1.9778
   27CHL1  H23B 1985   0.448   5.909   9.105  0.0424 -0.0437  3.6080
   27CHL1   C24 1986   0.308   5.998   8.965 -0.3351 -0.2811 -0.2289
   27CHL1  H24A 1987   0.242   5.914   8.998 -3.3567  1.0423 -2.4742
   27CHL1  H24B 1988   0.245   6.089   8.959 -1.4430 -0.9437  1.0190
   27CHL1   C25 1989   0.386   5.959   8.841 -0.5308  0.6006  0.2765
   27CHL1   H25 1990   0.462   5.886   8.874  0.8136  1.2481 -1.2488
   27CHL1   C26 1991   0.294   5.888   8.735 -0.2762  0.2148 -0.7981
   27CHL1  H26A 1992   0.212   5.956   8.702  0.2250  0.8453 -0.7609
   27CHL1  H26B 1993   0.359   5.882   8.645  0.0053  1.5073 -0.6988
   27CHL1  H26C 1994   0.258   5.788   8.769 -0.0687  0.8675  1.5128
   27CHL1   C27 1995   0.455   6.083   8.779 -0.0518  0.1358  0.7589
   27CHL1  H27A 1996   0.524   6.054   8.697 -0.4473 -0.9857  0.8039
   27CHL1  H27B 1997   0.371   6.146   8.743 -1.2652 -1.9558 -0.2786
   27CHL1  H27C 1998   0.509   6.143   8.856  0.9653 -0.8909  0.8846
   28CHL1    C3 1999   4.656   5.131  10.079  0.5728  0.6636 -0.0901
   28CHL1    H3 2000   4.546   5.128  10.067  0.7150 -2.8766 -1.7908
   28CHL1    O3 2001   4.684   5.188  10.201  0.3332 -0.7827 -0.3115
   28CHL1   H3' 2002   4.772   5.159  10.226  0.6497 -0.6948 -1.2844
   28CHL1    C4 2003   4.698   4.985  10.085  0.6273 -0.2306  0.2799
   28CHL1   H4A 2004   4.807   4.979  10.104  0.7354  1.5809  0.4503
   28CHL1   H4B 2005   4.650   4.947  10.177 -0.0281  1.6821  0.7805
   28CHL1    C5 2006   4.664   4.914   9.954  0.2518 -0.4816 -0.5977
   28CHL1    C6 2007   4.595   4.799   9.952 -0.0044  0.2438 -0.3554
   28CHL1    H6 2008   4.555   4.750  10.041 -0.0537  0.8321 -0.0483
   28CHL1    C7 2009   4.571   4.716   9.827 -0.0355  0.4422  0.5050
   28CHL1   H7A 2010   4.587   4.609   9.853  2.2721  0.0365 -2.1597
   28CHL1   H7B 2011   4.467   4.730   9.792 -0.2160  2.3757  1.6600
   28CHL1    C8 2012   4.655   4.765   9.703 -0.4952 -0.0062 -0.5920
   28CHL1    H8 2013   4.761   4.731   9.712 -0.3507  0.4999 -0.3433
   28CHL1   C14 2014   4.593   4.701   9.577 -0.6675 -0.2079 -0.2658
   28CHL1   H14 2015   4.487   4.733   9.574 -0.5554  0.1080 -1.7986
   28CHL1   C15 2016   4.592   4.550   9.566  0.1783  0.6066  0.8231
   28CHL1  H15A 2017   4.693   4.515   9.595  0.7576  1.4269 -0.1504
   28CHL1  H15B 2018   4.519   4.501   9.634 -1.0712 -0.6934 -1.3382
   28CHL1   C16 2019   4.581   4.507   9.416 -0.4705  0.9015 -0.8349
   28CHL1  H16A 2020   4.657   4.430   9.394 -0.3318  0.6703  0.3695
   28CHL1  H16B 2021   4.479   4.462   9.411 -0.4606  0.5968  0.8896
   28CHL1   C17 2022   4.601   4.645   9.341 -0.4414 -0.3582 -0.5487
   28CHL1   H17 2023   4.502   4.688   9.317  0.3731  0.2131 -3.2438
   28CHL1   C13 2024   4.663   4.746   9.450 -0.6232 -0.2437  1.4172
   28CHL1   C18 2025   4.817   4.711   9.453  0.5067  0.5597 -0.3460
   28CHL1  H18A 2026   4.870   4.776   9.526 -1.1329  2.2275 -0.5770
   28CHL1  H18B 2027   4.846   4.604   9.467 -0.1603  0.2779 -1.0391
   28CHL1  H18C 2028   4.862   4.753   9.361  0.6748  0.5644 -0.2633
   28CHL1   C12 2029   4.646   4.898   9.439 -0.5338  0.2060  0.0749
   28CHL1  H12A 2030   4.696   4.934   9.346 -0.4915  1.8103  0.6832
   28CHL1  H12B 2031   4.537   4.918   9.435 -0.4491  1.4199  2.3999
   28CHL1   C11 2032   4.716   4.975   9.554  0.3733 -0.0587 -0.1784
   28CHL1  H11A 2033   4.827   4.973   9.548  0.3405 -1.4390 -5.7142
   28CHL1  H11B 2034   4.684   5.081   9.543  0.2533  0.2308  2.3333
   28CHL1    C9 2035   4.658   4.920   9.691 -0.3510 -0.2899 -0.2149
   28CHL1    H9 2036   4.550   4.943   9.696 -0.7236 -2.0010  0.2859
   28CHL1   C10 2037   4.712   4.987   9.824  0.0186 -0.1838  0.0019
   28CHL1   C19 2038   4.866   4.994   9.825 -0.2091  0.0862  0.2843
   28CHL1  H19A 2039   4.894   5.050   9.916 -2.2597  0.6963  0.6008
   28CHL1  H19B 2040   4.894   4.886   9.827  0.4027  0.2481  0.5214
   28CHL1  H19C 2041   4.905   5.043   9.734 -0.0227  1.9811  1.3358
   28CHL1    C1 2042   4.675   5.140   9.830  0.1387 -0.7536  0.0583
   28CHL1   H1A 2043   4.742   5.186   9.754 -0.0450 -1.0294 -0.2714
   28CHL1   H1B 2044   4.570   5.152   9.796  0.5324  0.1026 -0.9012
   28CHL1    C2 2045   4.715   5.216   9.961  0.5100  1.2372 -0.5908
   28CHL1   H2A 2046   4.683   5.323   9.964 -0.2162  1.0416 -1.1029
   28CHL1   H2B 2047   4.823   5.220   9.986  0.4222  0.0397  0.0518
   28CHL1   C20 2048   4.670   4.633   9.197 -0.3369  0.1828 -0.2774
   28CHL1   H20 2049   4.776   4.600   9.201 -0.2111  0.6168  0.1340
   28CHL1   C21 2050   4.653   4.772   9.141  0.8132 -0.2653  0.2614
   28CHL1  H21A 2051   4.735   4.833   9.184 -0.3222  1.0362  0.6384
   28CHL1  H21B 2052   4.547   4.804   9.153  0.2230 -1.3281 -1.5600
   28CHL1  H21C 2053   4.681   4.758   9.034 -0.1123 -1.5219  0.1592
   28CHL1   C22 2054   4.592   4.535   9.110 -0.2811  0.3118 -0.0154
   28CHL1  H22A 2055   4.572   4.439   9.162  0.0521 -0.4186 -1.1966
   28CHL1  H22B 2056   4.501   4.592   9.081  0.3789  1.1137 -0.5804
   28CHL1   C23 2057   4.679   4.497   8.990  0.3328  0.4414 -0.0433
   28CHL1  H23A 2058   4.716   4.587   8.936 -0.4976 -0.0228 -1.4406
   28CHL1  H23B 2059   4.764   4.452   9.046  0.2952  1.6718  1.0207
   28CHL1   C24 2060   4.621   4.388   8.898 -0.1932 -0.2366 -0.1557
   28CHL1  H24A 2061   4.700   4.348   8.831  0.2996  1.6720 -0.7691
   28CHL1  H24B 2062   4.593   4.308   8.971  0.0401  0.3889  0.6331
   28CHL1   C25 2063   4.506   4.443   8.814  0.2537  0.1794 -0.0020
   28CHL1   H25 2064   4.441   4.506   8.877 -1.1179  1.7570 -2.7969
   28CHL1   C26 2065   4.544   4.546   8.698  0.4416  0.0812 -0.1038
   28CHL1  H26A 2066   4.593   4.501   8.609  0.7593 -0.8402  0.5206
   28CHL1  H26B 2067   4.448   4.597   8.679  0.4265 -0.6338 -2.2242
   28CHL1  H26C 2068   4.618   4.623   8.728  1.3183 -0.7270 -0.1207
   28CHL1   C27 2069   4.424   4.329   8.756  0.1209 -0.0401  0.6313
   28CHL1  H27A 2070   4.337   4.368   8.699  0.4470  0.3024  0.3623
   28CHL1  H27B 2071   4.494   4.270   8.694 -1.4983 -1.4928  0.1135
   28CHL1  H27C 2072   4.388   4.263   8.838  1.1021  0.3460  1.3922
   29CHL1    C3 2073   0.714   2.204   6.840 -0.1315 -0.7180  0.0326
   29CHL1    H3 2074   0.798   2.132   6.844  0.4077 -0.0466  1.2930
   29CHL1    O3 2075   0.677   2.225   6.708 -0.0175 -0.3068  0.1795
   29CHL1   H3' 2076   0.614   2.298   6.715  0.4699  0.1364  0.0499
   29CHL1    C4 2077   0.588   2.135   6.907 -0.3999 -0.1726  0.1139
   29CHL1   H4A 2078   0.492   2.190   6.896 -0.6660 -0.8521 -1.1141
   29CHL1   H4B 2079   0.578   2.032   6.867  1.6740 -0.6036  0.5962
   29CHL1    C5 2080   0.628   2.113   7.057  0.2165 -0.1864  0.5692
   29CHL1    C6 2081   0.627   1.995   7.111 -0.3236 -0.4113  0.5629
   29CHL1    H6 2082   0.599   1.910   7.047  0.1644 -0.0870 -0.0914
   29CHL1    C7 2083   0.653   1.971   7.258 -0.7656  0.2322 -0.0103
   29CHL1   H7A 2084   0.579   1.897   7.295  1.0047 -2.2183 -1.0298
   29CHL1   H7B 2085   0.753   1.925   7.273 -0.0408  0.9910 -2.0700
   29CHL1    C8 2086   0.640   2.095   7.335  0.1284 -0.1493  0.1616
   29CHL1    H8 2087   0.533   2.124   7.348  0.5401  0.8104  1.6834
   29CHL1   C14 2088   0.690   2.080   7.481  0.0133 -0.2363 -0.0476
   29CHL1   H14 2089   0.800   2.067   7.473  0.3079  0.4463  2.1325
   29CHL1   C15 2090   0.649   1.959   7.567  0.5124  0.3769  0.8405
   29CHL1  H15A 2091   0.538   1.957   7.572  0.5380 -1.0271  1.1683
   29CHL1  H15B 2092   0.664   1.864   7.513 -2.5386  0.5373 -0.5220
   29CHL1   C16 2093   0.714   1.976   7.700 -0.4364 -0.6572 -0.3202
   29CHL1  H16A 2094   0.645   1.945   7.782 -0.0682 -1.7141 -0.3971
   29CHL1  H16B 2095   0.808   1.916   7.696 -0.5560 -0.8638 -0.0808
   29CHL1   C17 2096   0.747   2.134   7.721 -0.1893 -0.8119 -0.1414
   29CHL1   H17 2097   0.858   2.135   7.725 -0.1706 -0.5706 -0.7175
   29CHL1   C13 2098   0.686   2.196   7.580  1.3582  0.0948 -0.7057
   29CHL1   C18 2099   0.542   2.233   7.609  0.9972  0.3450  0.3586
   29CHL1  H18A 2100   0.495   2.269   7.515 -0.5045  2.2347  1.7427
   29CHL1  H18B 2101   0.479   2.142   7.622  0.9127  0.2206 -0.8305
   29CHL1  H18C 2102   0.522   2.309   7.687  2.1891  1.1748 -0.1199
   29CHL1   C12 2103   0.762   2.317   7.514  0.0427  0.7898 -0.1659
   29CHL1  H12A 2104   0.741   2.412   7.567  0.9296  0.8416  0.1039
   29CHL1  H12B 2105   0.871   2.292   7.515  0.1575  1.2939 -0.0526
   29CHL1   C11 2106   0.721   2.344   7.359 -0.1447  0.2597 -0.0158
   29CHL1  H11A 2107   0.615   2.371   7.381 -0.1824  1.0216 -1.0764
   29CHL1  H11B 2108   0.774   2.432   7.316 -1.5868  1.6749  0.9347
   29CHL1    C9 2109   0.718   2.216   7.271  0.4665 -0.6812  0.8038
   29CHL1    H9 2110   0.824   2.185   7.277  0.1297 -2.2728 -0.6050
   29CHL1   C10 2111   0.667   2.248   7.126  0.6099 -0.5806 -0.2465
   29CHL1   C19 2112   0.536   2.328   7.139  0.3178  0.2214 -0.0221
   29CHL1  H19A 2113   0.568   2.428   7.177  1.6312  0.7556 -2.2895
   29CHL1  H19B 2114   0.483   2.344   7.042 -2.5080 -2.7755  0.8658
   29CHL1  H19C 2115   0.460   2.300   7.214 -0.0812  1.7364  0.1738
   29CHL1    C1 2116   0.776   2.331   7.052  0.2959 -0.4608  0.1415
   29CHL1   H1A 2117   0.760   2.435   7.088 -0.1825  0.3440 -2.2093
   29CHL1   H1B 2118   0.881   2.302   7.077  0.4952  1.3816  1.7060
   29CHL1    C2 2119   0.752   2.342   6.909  0.4635  0.1851 -0.5538
   29CHL1   H2A 2120   0.841   2.374   6.851  1.2851  0.4931  0.8424
   29CHL1   H2B 2121   0.666   2.410   6.886 -0.2862 -0.7919 -0.7189
   29CHL1   C20 2122   0.695   2.198   7.854  0.0255 -0.5890 -0.1699
   29CHL1   H20 2123   0.584   2.204   7.855  0.0360 -0.1544 -0.8706
   29CHL1   C21 2124   0.750   2.349   7.871 -0.0326 -0.1024 -0.1174
   29CHL1  H21A 2125   0.727   2.408   7.780 -2.5310  0.0134  0.5189
   29CHL1  H21B 2126   0.860   2.361   7.884  0.3981 -1.1812 -2.2668
   29CHL1  H21C 2127   0.691   2.400   7.950 -0.1312  1.1983 -0.9876
   29CHL1   C22 2128   0.732   2.121   7.986  0.0836 -0.3109 -0.2022
   29CHL1  H22A 2129   0.717   2.011   7.980 -0.4914 -0.2736  0.3595
   29CHL1  H22B 2130   0.842   2.131   7.983  0.0898 -0.4880 -0.6063
   29CHL1   C23 2131   0.664   2.170   8.111  0.5708  0.2091  0.5582
   29CHL1  H23A 2132   0.682   2.277   8.134  1.7925 -0.3498  2.5353
   29CHL1  H23B 2133   0.556   2.154   8.091  0.7214 -2.3737  1.3555
   29CHL1   C24 2134   0.704   2.100   8.239 -0.4405 -0.4108 -0.0766
   29CHL1  H24A 2135   0.680   1.992   8.225  0.9373 -0.7224 -0.0885
   29CHL1  H24B 2136   0.811   2.098   8.266 -0.3420 -0.6658 -0.4851
   29CHL1   C25 2137   0.619   2.144   8.366 -0.4199  0.3369 -0.2409
   29CHL1   H25 2138   0.655   2.103   8.463  0.3853  0.0445 -0.6557
   29CHL1   C26 2139   0.628   2.298   8.387 -0.8362  0.5190  0.0066
   29CHL1  H26A 2140   0.586   2.322   8.487 -0.2928 -1.1051  0.6542
   29CHL1  H26B 2141   0.736   2.322   8.380 -0.7747 -0.3027 -2.6122
   29CHL1  H26C 2142   0.564   2.340   8.306  0.0492 -1.2090 -1.6348
   29CHL1   C27 2143   0.474   2.091   8.364  0.0805 -1.0634  0.3319
   29CHL1  H27A 2144   0.468   1.987   8.327 -1.0038 -0.1429 -2.3208
   29CHL1  H27B 2145   0.418   2.111   8.459 -0.7438  1.9226 -0.6511
   29CHL1  H27C 2146   0.420   2.155   8.291  1.8311 -0.0486 -0.1262
   30CHL1    C3 2147   5.009   0.574   7.186  1.1197  0.1906  0.4423
   30CHL1    H3 2148   5.104   0.516   7.189  0.6434 -0.5454  1.8143
   30CHL1    O3 2149   4.965   0.599   7.055  0.4823 -0.6540 -0.0826
   30CHL1   H3' 2150   5.044   0.638   7.015  0.6569 -0.6200  0.2930
   30CHL1    C4 2151   4.916   0.484   7.271  0.0203 -0.1740  0.2922
   30CHL1   H4A 2152   4.814   0.526   7.265  0.2322  0.2727 -0.3058
   30CHL1   H4B 2153   4.900   0.389   7.216 -0.2145  0.2806 -0.4316
   30CHL1    C5 2154   4.950   0.461   7.416 -0.0247 -0.0763 -0.0191
   30CHL1    C6 2155   4.993   0.349   7.472  0.0118  0.1601 -0.5578
   30CHL1    H6 2156   4.989   0.253   7.417  0.3309  0.1043 -0.4888
   30CHL1    C7 2157   5.053   0.331   7.612  0.0333 -0.0036  0.5358
   30CHL1   H7A 2158   5.014   0.240   7.662 -3.7096  0.1522 -1.6976
   30CHL1   H7B 2159   5.163   0.320   7.606  0.0734 -0.2397  1.5104
   30CHL1    C8 2160   5.029   0.452   7.696  0.3390 -0.9792 -0.2447
   30CHL1    H8 2161   4.921   0.476   7.706  0.7193  0.2602  1.2967
   30CHL1   C14 2162   5.100   0.439   7.831  0.0519  0.7950 -0.5663
   30CHL1   H14 2163   5.201   0.426   7.788 -0.4261  0.7087 -1.7088
   30CHL1   C15 2164   5.079   0.319   7.932  0.3391 -0.4600  0.1324
   30CHL1  H15A 2165   4.973   0.314   7.964 -0.5999  1.2945 -2.3699
   30CHL1  H15B 2166   5.116   0.226   7.883  2.4866  0.1000  0.5880
   30CHL1   C16 2167   5.167   0.358   8.052 -0.3438 -0.4260  0.3788
   30CHL1  H16A 2168   5.127   0.333   8.153  0.0183 -3.1236 -0.0476
   30CHL1  H16B 2169   5.253   0.290   8.033 -0.1746 -0.0455 -0.2076
   30CHL1   C17 2170   5.207   0.511   8.034 -0.0298  0.5833  0.5528
   30CHL1   H17 2171   5.299   0.510   7.973  0.0079  2.1291  0.5437
   30CHL1   C13 2172   5.114   0.564   7.917 -0.0856 -0.1864  0.1267
   30CHL1   C18 2173   4.977   0.598   7.983  1.0578 -0.6710  0.5247
   30CHL1  H18A 2174   4.982   0.701   8.023  1.2220  0.5666 -2.4930
   30CHL1  H18B 2175   4.904   0.597   7.899  1.0633  0.0375  0.5055
   30CHL1  H18C 2176   4.949   0.518   8.056  0.0199 -0.8976 -0.0928
   30CHL1   C12 2177   5.174   0.685   7.842 -0.2455 -1.2439 -0.2911
   30CHL1  H12A 2178   5.177   0.775   7.906 -0.7724  0.5704 -2.6463
   30CHL1  H12B 2179   5.280   0.671   7.812  0.9650  0.6754  2.6268
   30CHL1   C11 2180   5.087   0.710   7.713 -0.3277  0.1465 -0.5912
   30CHL1  H11A 2181   4.983   0.735   7.744 -0.3455  0.9236 -1.2326
   30CHL1  H11B 2182   5.139   0.797   7.667  2.3901 -1.1215 -0.1363
   30CHL1    C9 2183   5.077   0.578   7.627 -0.8133  0.6184  0.0312
   30CHL1    H9 2184   5.181   0.562   7.591  0.0811  2.7312  1.4212
   30CHL1   C10 2185   4.997   0.593   7.492  0.0723 -0.0810  0.2133
   30CHL1   C19 2186   4.863   0.675   7.518 -0.2052  0.0586 -0.3474
   30CHL1  H19A 2187   4.811   0.698   7.422  2.4836 -0.8919 -2.1399
   30CHL1  H19B 2188   4.787   0.611   7.567 -0.6702  1.0776  0.3157
   30CHL1  H19C 2189   4.874   0.770   7.574  2.4256 -0.4571  0.1215
   30CHL1    C1 2190   5.079   0.691   7.401 -0.1673 -0.4102 -0.0440
   30CHL1   H1A 2191   5.083   0.797   7.435  0.3117 -0.8999  1.5203
   30CHL1   H1B 2192   5.183   0.652   7.391 -0.1332 -0.2895 -0.1621
   30CHL1    C2 2193   5.026   0.706   7.255  0.5354  0.4037 -0.5985
   30CHL1   H2A 2194   5.108   0.762   7.205  0.8008  1.4600  0.9744
   30CHL1   H2B 2195   4.932   0.766   7.248  0.7496  0.5546 -3.3619
   30CHL1   C20 2196   5.232   0.588   8.163  1.1557 -0.3898 -0.1727
   30CHL1   H20 2197   5.228   0.696   8.135 -1.5933 -1.2428 -3.8131
   30CHL1   C21 2198   5.365   0.546   8.220 -0.1440  0.7332  0.4288
   30CHL1  H21A 2199   5.406   0.618   8.294  1.2388  1.6912 -1.2075
   30CHL1  H21B 2200   5.446   0.547   8.144  0.8253  2.9256  1.3832
   30CHL1  H21C 2201   5.366   0.447   8.271  0.0228  0.1530 -0.6751
   30CHL1   C22 2202   5.128   0.571   8.277 -0.4836 -0.0957 -0.0327
   30CHL1  H22A 2203   5.038   0.618   8.232  1.2552  2.3586 -1.1670
   30CHL1  H22B 2204   5.106   0.465   8.299 -0.3698  0.0943  1.0574
   30CHL1   C23 2205   5.163   0.644   8.405  0.1544 -0.2537  0.1116
   30CHL1  H23A 2206   5.255   0.610   8.458  0.7535 -0.6613 -1.1444
   30CHL1  H23B 2207   5.171   0.754   8.390 -1.2039 -0.5037 -3.4234
   30CHL1   C24 2208   5.052   0.629   8.514 -0.3989 -0.1779  0.3627
   30CHL1  H24A 2209   4.952   0.632   8.465 -0.8076  0.2204  1.2050
   30CHL1  H24B 2210   5.074   0.543   8.581  3.3915  1.0501  0.9523
   30CHL1   C25 2211   5.057   0.747   8.622 -0.0613  0.0789 -0.1887
   30CHL1   H25 2212   5.042   0.844   8.570  0.9629  0.4170  0.1206
   30CHL1   C26 2213   4.947   0.730   8.722  0.0827 -0.1390  0.6973
   30CHL1  H26A 2214   4.844   0.739   8.683 -0.3537 -2.7253  1.0962
   30CHL1  H26B 2215   4.966   0.640   8.784  1.9325  0.8387  1.6353
   30CHL1  H26C 2216   4.954   0.819   8.787  0.0950  0.5876 -0.2758
   30CHL1   C27 2217   5.198   0.761   8.691  0.4301 -0.1238  0.3470
   30CHL1  H27A 2218   5.245   0.660   8.703 -1.0831 -0.8565  0.2768
   30CHL1  H27B 2219   5.260   0.828   8.627 -0.7585  1.3547  0.6929
   30CHL1  H27C 2220   5.193   0.805   8.793  1.7797  1.1572 -0.1036
   31CHL1    C3 2221   6.676   3.157   6.601 -0.4204 -0.2691 -0.0284
   31CHL1    H3 2222   6.686   3.056   6.648 -1.0027 -0.0953  0.4853
   31CHL1    O3 2223   6.677   3.150   6.459 -0.7383 -0.1557 -0.1545
   31CHL1   H3' 2224   6.671   3.240   6.427 -1.4442 -1.0968 -3.0536
   31CHL1    C4 2225   6.554   3.227   6.658  0.0641  0.8044 -0.9914
   31CHL1   H4A 2226   6.529   3.324   6.609 -2.1494  1.6121  1.5133
   31CHL1   H4B 2227   6.473   3.158   6.629  1.9854 -1.9251 -0.1999
   31CHL1    C5 2228   6.552   3.244   6.813  0.2500 -0.1419  0.0887
   31CHL1    C6 2229   6.462   3.190   6.897  0.3563 -0.3496 -0.2311
   31CHL1    H6 2230   6.373   3.139   6.858  0.3441 -1.1450  0.7975
   31CHL1    C7 2231   6.467   3.214   7.047  0.2193 -0.5207  0.2913
   31CHL1   H7A 2232   6.364   3.245   7.074 -1.0251 -1.6309 -2.7771
   31CHL1   H7B 2233   6.486   3.119   7.102  2.5928 -0.4049 -0.2247
   31CHL1    C8 2234   6.574   3.317   7.096 -0.2399 -0.2781 -0.8216
   31CHL1    H8 2235   6.530   3.418   7.079 -1.3277 -0.7955 -1.1976
   31CHL1   C14 2236   6.599   3.301   7.243  0.5520  0.2587 -0.1901
   31CHL1   H14 2237   6.653   3.206   7.263  1.8676  0.9336 -0.3987
   31CHL1   C15 2238   6.483   3.302   7.347  0.4951 -1.0850  0.1683
   31CHL1  H15A 2239   6.407   3.379   7.322 -0.5580 -2.3161 -0.5617
   31CHL1  H15B 2240   6.428   3.206   7.350  2.1488 -2.1334 -1.2189
   31CHL1   C16 2241   6.550   3.336   7.478  0.0991 -0.1624 -0.2025
   31CHL1  H16A 2242   6.502   3.430   7.512 -0.2309  0.8205 -3.1147
   31CHL1  H16B 2243   6.540   3.254   7.553  0.8836  0.0039  0.0933
   31CHL1   C17 2244   6.699   3.367   7.444  0.8322  0.0891 -0.0534
   31CHL1   H17 2245   6.759   3.275   7.458  0.4913 -0.0736  0.3602
   31CHL1   C13 2246   6.704   3.401   7.292 -0.1498  0.0261 -0.5087
   31CHL1   C18 2247   6.664   3.549   7.280 -0.1277 -0.4014 -0.6357
   31CHL1  H18A 2248   6.579   3.584   7.343 -1.7232  0.0518 -2.9074
   31CHL1  H18B 2249   6.755   3.608   7.304 -0.7293  0.2147  0.1742
   31CHL1  H18C 2250   6.645   3.567   7.173  0.6362 -1.1898 -0.9147
   31CHL1   C12 2251   6.842   3.379   7.216  0.2578  0.7922 -0.1796
   31CHL1  H12A 2252   6.917   3.456   7.245  2.0746 -0.6407 -0.8924
   31CHL1  H12B 2253   6.887   3.280   7.242  1.9586  2.6102  5.1104
   31CHL1   C11 2254   6.822   3.393   7.068 -0.2267 -0.5587  0.5828
   31CHL1  H11A 2255   6.802   3.500   7.050  1.2630 -0.4949 -0.9373
   31CHL1  H11B 2256   6.916   3.367   7.013 -0.3547 -0.7878  0.4712
   31CHL1    C9 2257   6.701   3.312   7.015  0.3504 -0.0191 -0.6567
   31CHL1    H9 2258   6.740   3.209   7.024 -2.3218 -0.9390  1.7347
   31CHL1   C10 2259   6.676   3.319   6.859  0.0501 -0.3065  0.0662
   31CHL1   C19 2260   6.681   3.467   6.822  0.1007  0.4290  0.6245
   31CHL1  H19A 2261   6.654   3.488   6.716  0.8601  0.8912  0.5137
   31CHL1  H19B 2262   6.616   3.520   6.894 -0.1482 -0.3808  1.0124
   31CHL1  H19C 2263   6.782   3.511   6.830  0.3563 -0.2999  1.5153
   31CHL1    C1 2264   6.809   3.259   6.788  0.5207 -0.0546 -0.2553
   31CHL1   H1A 2265   6.896   3.323   6.813 -0.6758  1.0962  1.1840
   31CHL1   H1B 2266   6.832   3.157   6.825  1.3206 -0.0012 -0.6001
   31CHL1    C2 2267   6.798   3.241   6.635  0.5191  0.1572  0.0002
   31CHL1   H2A 2268   6.891   3.190   6.601 -0.1287 -0.9271 -0.1914
   31CHL1   H2B 2269   6.798   3.345   6.598  0.4848  0.6463  1.3473
   31CHL1   C20 2270   6.768   3.446   7.554  0.2706 -0.2423  0.2668
   31CHL1   H20 2271   6.707   3.539   7.564 -1.3030 -1.3403  1.3195
   31CHL1   C21 2272   6.920   3.482   7.528  0.2124  0.2085  0.5955
   31CHL1  H21A 2273   6.927   3.556   7.445  0.3608  1.3909  1.6300
   31CHL1  H21B 2274   6.999   3.404   7.520  2.2511  2.2649 -0.5958
   31CHL1  H21C 2275   6.938   3.546   7.618 -1.3635  0.2539  0.9045
   31CHL1   C22 2276   6.762   3.370   7.689  0.2366  0.0296 -0.2904
   31CHL1  H22A 2277   6.662   3.323   7.700  1.3343 -2.4696 -0.1788
   31CHL1  H22B 2278   6.828   3.282   7.672  1.1493  0.7478 -0.5302
   31CHL1   C23 2279   6.789   3.448   7.824  0.2147  0.2286  0.3206
   31CHL1  H23A 2280   6.780   3.376   7.908  1.3529 -1.1908 -0.7224
   31CHL1  H23B 2281   6.895   3.482   7.821  0.0893  0.6325  0.4037
   31CHL1   C24 2282   6.687   3.564   7.840  1.0496  0.2051  0.5584
   31CHL1  H24A 2283   6.696   3.638   7.757 -0.3432 -1.2113 -0.9250
   31CHL1  H24B 2284   6.590   3.512   7.827  1.2167  0.0601 -0.1269
   31CHL1   C25 2285   6.687   3.603   7.988  0.4227 -0.2778  0.2436
   31CHL1   H25 2286   6.690   3.517   8.059  1.8742  0.2301  0.8426
   31CHL1   C26 2287   6.803   3.690   8.030 -0.1393  0.0857 -0.4234
   31CHL1  H26A 2288   6.816   3.701   8.140 -0.2765  0.2845 -0.4276
   31CHL1  H26B 2289   6.891   3.631   7.997  1.1895  1.1791  1.0104
   31CHL1  H26C 2290   6.793   3.783   7.970 -1.8750 -0.4247 -0.9989
   31CHL1   C27 2291   6.559   3.694   8.012 -0.1695 -0.5235  0.2684
   31CHL1  H27A 2292   6.468   3.631   8.018  0.2343 -1.1465 -0.0470
   31CHL1  H27B 2293   6.529   3.767   7.935 -0.2302 -1.6567 -0.8121
   31CHL1  H27C 2294   6.559   3.732   8.117  0.5760 -0.4237  0.2396
   32CHL1    C3 2295   6.793   1.974   6.786  0.5463  1.1339 -0.5849
   32CHL1    H3 2296   6.833   2.074   6.813  0.9211  0.8510 -0.0755
   32CHL1    O3 2297   6.792   1.943   6.649 -0.3206  0.2941 -0.0073
   32CHL1   H3' 2298   6.786   1.848   6.638  2.1997  0.1281 -0.7486
   32CHL1    C4 2299   6.895   1.875   6.850  0.0495 -0.4560 -0.1156
   32CHL1   H4A 2300   6.856   1.773   6.833 -0.7925  0.2247 -2.6319
   32CHL1   H4B 2301   6.994   1.875   6.800  1.0812  1.7733  1.6921
   32CHL1    C5 2302   6.911   1.904   6.995 -0.2994 -0.0282 -0.2746
   32CHL1    C6 2303   7.031   1.940   7.046  1.0470 -0.0758 -0.1971
   32CHL1    H6 2304   7.123   1.951   6.987  0.7576  0.7232 -0.5150
   32CHL1    C7 2305   7.050   1.971   7.193  0.3976 -0.0878 -0.1639
   32CHL1   H7A 2306   7.152   1.936   7.221  0.8880  1.4580  0.0390
   32CHL1   H7B 2307   7.054   2.081   7.203  1.3317 -0.2161  1.1454
   32CHL1    C8 2308   6.940   1.905   7.284 -0.5384  0.2666 -0.1111
   32CHL1    H8 2309   6.966   1.797   7.288 -2.1626 -0.0966  2.1894
   32CHL1   C14 2310   6.943   1.954   7.428  0.2678 -0.3050  1.2228
   32CHL1   H14 2311   6.910   2.060   7.421  0.3618 -0.3916 -1.2189
   32CHL1   C15 2312   7.078   1.948   7.500  0.1401 -0.4547  0.0798
   32CHL1  H15A 2313   7.124   1.851   7.469 -0.3112 -0.8055  0.5034
   32CHL1  H15B 2314   7.141   2.033   7.466  1.6761 -0.9553  1.5614
   32CHL1   C16 2315   7.033   1.954   7.646  0.8486  0.6437 -0.0016
   32CHL1  H16A 2316   7.065   1.860   7.695 -0.8694  0.0391  0.0121
   32CHL1  H16B 2317   7.085   2.036   7.700  0.1411 -0.1489  1.9760
   32CHL1   C17 2318   6.883   1.937   7.654 -0.3855 -0.1266  0.0154
   32CHL1   H17 2319   6.842   2.040   7.650  1.2684  0.5662 -0.1375
   32CHL1   C13 2320   6.839   1.883   7.520  0.0743  0.0599  0.4099
   32CHL1   C18 2321   6.874   1.730   7.515  0.4490 -0.0515  0.0090
   32CHL1  H18A 2322   6.858   1.692   7.411  3.2326 -2.4059  0.3210
   32CHL1  H18B 2323   6.976   1.704   7.549  1.1130  1.6051 -0.6260
   32CHL1  H18C 2324   6.804   1.678   7.583 -0.1547  1.2281  0.4056
   32CHL1   C12 2325   6.703   1.920   7.464  0.0882  0.0847  0.1313
   32CHL1  H12A 2326   6.619   1.873   7.519 -0.8400  2.5182  0.8789
   32CHL1  H12B 2327   6.694   2.029   7.479 -1.4225 -0.2198  1.7670
   32CHL1   C11 2328   6.682   1.885   7.313 -1.0178  0.1565 -0.0666
   32CHL1  H11A 2329   6.679   1.774   7.310 -2.3775  0.1964 -2.6368
   32CHL1  H11B 2330   6.585   1.928   7.279 -0.6718  0.1913 -1.0236
   32CHL1    C9 2331   6.803   1.934   7.224  0.2103 -0.1828  0.3069
   32CHL1    H9 2332   6.804   2.045   7.227 -1.4102 -0.1253 -0.1035
   32CHL1   C10 2333   6.782   1.892   7.074 -0.0116  0.5795 -0.1224
   32CHL1   C19 2334   6.723   1.747   7.068 -0.2266  0.0074  0.1357
   32CHL1  H19A 2335   6.784   1.675   7.126 -0.4553 -0.0933  0.2532
   32CHL1  H19B 2336   6.619   1.752   7.107 -0.3981 -0.4044 -0.2577
   32CHL1  H19C 2337   6.709   1.714   6.963 -1.3350  1.7004 -0.2848
   32CHL1    C1 2338   6.673   1.979   7.005 -0.1544 -0.0305  1.0598
   32CHL1   H1A 2339   6.571   1.965   7.047  0.0040 -1.5764  0.9771
   32CHL1   H1B 2340   6.699   2.086   7.020 -1.5686  0.3342  1.0150
   32CHL1    C2 2341   6.657   1.954   6.850  0.0667  0.1851 -0.3422
   32CHL1   H2A 2342   6.584   2.026   6.809  1.5350  1.4376 -0.8604
   32CHL1   H2B 2343   6.616   1.852   6.835 -3.7743  1.6047 -0.6486
   32CHL1   C20 2344   6.837   1.869   7.781 -0.4874  0.0164  0.8019
   32CHL1   H20 2345   6.860   1.760   7.773 -0.8797 -0.1703  1.9535
   32CHL1   C21 2346   6.681   1.861   7.802 -0.2749 -0.6684  0.3813
   32CHL1  H21A 2347   6.631   1.957   7.774 -0.9082 -1.4839 -1.4968
   32CHL1  H21B 2348   6.656   1.839   7.908  0.7726  1.8711  1.2402
   32CHL1  H21C 2349   6.634   1.786   7.735 -2.0810  0.7587 -0.0549
   32CHL1   C22 2350   6.898   1.920   7.908  0.0416 -0.0461 -0.9499
   32CHL1  H22A 2351   6.851   1.866   7.993  0.6155 -2.4722 -2.0849
   32CHL1  H22B 2352   7.006   1.894   7.917  0.1839  0.5431 -0.9004
   32CHL1   C23 2353   6.889   2.077   7.927  0.7074  0.4081  0.5387
   32CHL1  H23A 2354   6.952   2.134   7.854  0.4424  0.5814  0.4468
   32CHL1  H23B 2355   6.789   2.113   7.897  0.6777 -1.0890 -1.4540
   32CHL1   C24 2356   6.933   2.119   8.067 -0.2394  0.0733  0.4919
   32CHL1  H24A 2357   6.879   2.053   8.138  0.1295 -0.0228  0.6869
   32CHL1  H24B 2358   7.039   2.090   8.083 -0.9853 -1.1783  4.5281
   32CHL1   C25 2359   6.910   2.267   8.097  0.4949 -0.2633 -0.3222
   32CHL1   H25 2360   6.807   2.290   8.062  0.5660  0.8943  0.2082
   32CHL1   C26 2361   6.924   2.283   8.247 -0.4387 -0.2229  0.3513
   32CHL1  H26A 2362   6.925   2.393   8.262 -1.1446  0.1995 -2.1767
   32CHL1  H26B 2363   6.837   2.230   8.291 -2.5386 -0.3501 -3.4785
   32CHL1  H26C 2364   7.017   2.242   8.290  1.9415  1.0398 -3.1501
   32CHL1   C27 2365   7.013   2.354   8.029  0.4948 -0.1001  0.0441
   32CHL1  H27A 2366   7.115   2.332   8.068  0.0907  0.1122  1.2472
   32CHL1  H27B 2367   7.020   2.330   7.920 -0.0809 -0.2337  0.0367
   32CHL1  H27C 2368   6.987   2.460   8.046  1.3275  0.1879 -0.4203
   33CHL1    C3 2369   1.975   4.142   6.747 -0.3115 -0.4795 -0.1529
   33CHL1    H3 2370   1.868   4.122   6.764 -0.5850 -1.1337 -2.3903
   33CHL1    O3 2371   1.993   4.169   6.606  0.0930 -0.2394  0.1893
   33CHL1   H3' 2372   2.068   4.228   6.606 -1.0988  1.3198  0.2608
   33CHL1    C4 2373   2.024   4.264   6.826  0.2024  0.6709  0.2656
   33CHL1   H4A 2374   2.127   4.288   6.790 -0.0985  1.0814 -0.3473
   33CHL1   H4B 2375   1.964   4.351   6.791  0.4025 -0.6450 -3.8744
   33CHL1    C5 2376   2.023   4.239   6.972 -0.1881  0.4358 -0.0359
   33CHL1    C6 2377   1.948   4.318   7.054  0.5382  0.3877  0.4305
   33CHL1    H6 2378   1.892   4.403   7.012 -3.6904 -2.5331 -0.4222
   33CHL1    C7 2379   1.943   4.300   7.204  0.0457  0.5578 -0.4649
   33CHL1   H7A 2380   1.933   4.398   7.256 -0.3670 -0.9841  2.6133
   33CHL1   H7B 2381   1.849   4.245   7.228  0.3830  0.2907  0.2763
   33CHL1    C8 2382   2.064   4.215   7.255 -0.6019 -0.0614  0.0251
   33CHL1    H8 2383   2.155   4.278   7.249 -0.1283 -0.8625 -1.5968
   33CHL1   C14 2384   2.050   4.178   7.403  0.2450  0.9295 -0.7066
   33CHL1   H14 2385   1.956   4.119   7.398 -0.3207  1.8392 -1.0948
   33CHL1   C15 2386   2.008   4.292   7.508 -0.7354 -0.5391 -0.1275
   33CHL1  H15A 2387   2.061   4.381   7.469  0.2029 -0.6783  0.7886
   33CHL1  H15B 2388   1.898   4.305   7.500 -0.5225  0.1189 -2.7567
   33CHL1   C16 2389   2.054   4.248   7.646  0.4172  0.2789 -0.0047
   33CHL1  H16A 2390   2.138   4.312   7.680  2.3480 -1.2317 -1.7230
   33CHL1  H16B 2391   1.974   4.270   7.721  0.3203 -2.1110  0.6465
   33CHL1   C17 2392   2.109   4.107   7.616  0.0158  0.3535 -0.4752
   33CHL1   H17 2393   2.032   4.027   7.611  1.2740 -0.8739 -0.8313
   33CHL1   C13 2394   2.160   4.100   7.471 -0.4783 -0.5211 -0.6413
   33CHL1   C18 2395   2.296   4.178   7.464  0.0297  0.2169 -0.0497
   33CHL1  H18A 2396   2.376   4.102   7.476  0.1032  0.1084 -1.0881
   33CHL1  H18B 2397   2.318   4.232   7.369  3.6743 -0.9211 -0.0074
   33CHL1  H18C 2398   2.303   4.250   7.548 -2.6908 -0.5308  0.9127
   33CHL1   C12 2399   2.157   3.963   7.395  0.3871  0.3844 -0.2526
   33CHL1  H12A 2400   2.227   3.892   7.445 -1.8649 -1.9540 -0.2214
   33CHL1  H12B 2401   2.055   3.920   7.402 -0.4529  2.0099 -1.6900
   33CHL1   C11 2402   2.186   3.998   7.246  0.0591  0.7859  0.6563
   33CHL1  H11A 2403   2.288   4.042   7.249  0.2210  0.6813 -1.6902
   33CHL1  H11B 2404   2.183   3.899   7.196 -0.8359  1.2308 -0.2087
   33CHL1    C9 2405   2.084   4.088   7.181  0.4208  0.4746 -0.3755
   33CHL1    H9 2406   1.988   4.033   7.178 -0.2139  1.5527 -0.5071
   33CHL1   C10 2407   2.106   4.124   7.025 -0.4086  0.5820 -1.1494
   33CHL1   C19 2408   2.258   4.159   7.014 -0.2050  0.4222  0.0570
   33CHL1  H19A 2409   2.290   4.197   6.915 -0.8203 -0.8566 -0.6567
   33CHL1  H19B 2410   2.295   4.233   7.089  1.6674  0.4031 -0.8072
   33CHL1  H19C 2411   2.315   4.065   7.026 -2.0562 -0.6449  1.0292
   33CHL1    C1 2412   2.061   3.999   6.943  0.2441  0.2706 -0.4070
   33CHL1   H1A 2413   2.125   3.912   6.969  0.1803 -0.2257 -1.8217
   33CHL1   H1B 2414   1.954   3.982   6.964 -0.0623  1.1879 -1.1549
   33CHL1    C2 2415   2.058   4.023   6.794  0.2868 -0.1877  0.0230
   33CHL1   H2A 2416   2.017   3.929   6.750  1.0042 -0.8640  0.7427
   33CHL1   H2B 2417   2.159   4.052   6.757 -0.2285 -0.0051 -1.2914
   33CHL1   C20 2418   2.198   4.058   7.728 -0.3278 -0.7448 -0.4082
   33CHL1   H20 2419   2.272   4.136   7.752 -0.3517 -1.4930  2.5670
   33CHL1   C21 2420   2.273   3.923   7.701  0.2932  0.4609  0.4049
   33CHL1  H21A 2421   2.355   3.937   7.628  0.3494  0.8057  0.5312
   33CHL1  H21B 2422   2.209   3.836   7.678  0.8048  0.3962 -0.8132
   33CHL1  H21C 2423   2.331   3.894   7.792  0.2067 -0.6323  0.1209
   33CHL1   C22 2424   2.105   4.032   7.853 -0.2966  0.3187  0.0517
   33CHL1  H22A 2425   2.006   4.081   7.838  0.1080  1.5985  1.2720
   33CHL1  H22B 2426   2.074   3.926   7.845 -0.3750  0.4021 -0.8036
   33CHL1   C23 2427   2.171   4.084   7.988  0.5637  0.0718 -0.1019
   33CHL1  H23A 2428   2.271   4.035   7.997 -0.3031 -1.8386 -0.4201
   33CHL1  H23B 2429   2.183   4.194   7.981 -1.8703  0.4283  0.7106
   33CHL1   C24 2430   2.090   4.038   8.103 -0.3189 -0.2944  0.3104
   33CHL1  H24A 2431   1.984   4.064   8.086  0.2566 -0.0684 -4.0237
   33CHL1  H24B 2432   2.105   3.928   8.107  2.8342  0.0445  1.0865
   33CHL1   C25 2433   2.142   4.084   8.245 -0.0557  0.0858 -0.2832
   33CHL1   H25 2434   2.247   4.048   8.249 -0.3649 -0.7513  1.9604
   33CHL1   C26 2435   2.130   4.236   8.267 -0.2634  0.1408 -0.1713
   33CHL1  H26A 2436   2.137   4.262   8.375  3.6583  1.2825 -0.5468
   33CHL1  H26B 2437   2.208   4.296   8.215 -1.3124 -0.1524 -2.1756
   33CHL1  H26C 2438   2.030   4.276   8.240 -0.6706 -0.2739  0.6745
   33CHL1   C27 2439   2.064   4.021   8.357 -0.0019  0.7436  0.3119
   33CHL1  H27A 2440   1.964   4.069   8.371 -0.5799  0.5583 -2.4289
   33CHL1  H27B 2441   2.058   3.912   8.338  1.1466  0.1388  3.0120
   33CHL1  H27C 2442   2.124   4.030   8.450  1.2770  2.0578 -0.5827
   34CHL1    C3 2443   0.486   0.533   6.833  0.3121 -0.1068 -0.9241
   34CHL1    H3 2444   0.413   0.452   6.813 -2.9610  2.8045 -1.5468
   34CHL1    O3 2445   0.503   0.598   6.711  0.3300  0.0593  0.5205
   34CHL1   H3' 2446   0.578   0.657   6.716 -0.4331  1.4555 -2.3201
   34CHL1    C4 2447   0.418   0.622   6.930 -0.5636 -0.2878 -0.3553
   34CHL1   H4A 2448   0.470   0.720   6.923 -0.4350 -0.1502  1.7021
   34CHL1   H4B 2449   0.317   0.633   6.887 -0.4250 -0.9920 -0.8869
   34CHL1    C5 2450   0.423   0.580   7.073 -0.2688  0.1272 -0.6741
   34CHL1    C6 2451   0.316   0.574   7.155 -0.8266 -0.4529 -0.1971
   34CHL1    H6 2452   0.218   0.597   7.111  0.1734  0.5876 -2.0215
   34CHL1    C7 2453   0.324   0.542   7.299 -0.0425  0.4364 -0.9840
   34CHL1   H7A 2454   0.272   0.608   7.371  1.1608  0.1342  0.1844
   34CHL1   H7B 2455   0.291   0.437   7.311 -0.5164  0.8141  1.3885
   34CHL1    C8 2456   0.472   0.544   7.358  0.7615 -0.2671  0.4812
   34CHL1    H8 2457   0.497   0.651   7.375  0.7476 -0.3492  1.0486
   34CHL1   C14 2458   0.478   0.482   7.494  0.0314  0.2247  0.0492
   34CHL1   H14 2459   0.449   0.376   7.484 -0.7358  0.4463 -0.1277
   34CHL1   C15 2460   0.382   0.542   7.600 -0.6630  0.4248 -0.1351
   34CHL1  H15A 2461   0.375   0.652   7.585 -0.5036  1.0412  3.5509
   34CHL1  H15B 2462   0.283   0.490   7.594 -0.2466 -0.4871  0.6673
   34CHL1   C16 2463   0.449   0.506   7.729  1.2561  0.2774 -0.4413
   34CHL1  H16A 2464   0.441   0.589   7.803 -2.3853  0.0948 -0.4296
   34CHL1  H16B 2465   0.396   0.418   7.771  2.2386 -0.6759 -1.1498
   34CHL1   C17 2466   0.589   0.457   7.698 -0.2339 -0.1030  0.1858
   34CHL1   H17 2467   0.578   0.346   7.690 -0.9714 -0.2903  2.8390
   34CHL1   C13 2468   0.622   0.506   7.555 -0.4528  0.0871  0.3698
   34CHL1   C18 2469   0.665   0.652   7.565 -0.2900 -0.5427 -0.3444
   34CHL1  H18A 2470   0.582   0.705   7.617 -2.4485 -1.8485 -2.2300
   34CHL1  H18B 2471   0.765   0.654   7.613 -0.6417 -1.1504  0.4365
   34CHL1  H18C 2472   0.658   0.705   7.467 -1.1852 -0.0237 -0.0222
   34CHL1   C12 2473   0.713   0.426   7.459 -0.4704 -0.2496 -0.3752
   34CHL1  H12A 2474   0.814   0.437   7.504 -0.9761 -2.4353  1.4389
   34CHL1  H12B 2475   0.675   0.322   7.453 -1.5386  0.0457  0.8423
   34CHL1   C11 2476   0.715   0.480   7.319  0.3682 -0.6793  0.6105
   34CHL1  H11A 2477   0.774   0.574   7.310 -0.1262 -0.4495 -0.3729
   34CHL1  H11B 2478   0.776   0.404   7.265 -0.0899  0.4388 -1.6325
   34CHL1    C9 2479   0.570   0.486   7.257 -0.2758  0.0898  0.4453
   34CHL1    H9 2480   0.544   0.379   7.242  2.1123 -0.4313 -0.4214
   34CHL1   C10 2481   0.566   0.552   7.117  0.2936  0.6253 -0.0308
   34CHL1   C19 2482   0.637   0.686   7.131  0.6536 -0.5087 -0.9200
   34CHL1  H19A 2483   0.589   0.745   7.211  0.1704 -0.2896 -1.3635
   34CHL1  H19B 2484   0.747   0.687   7.141  0.6475 -0.3831 -0.8577
   34CHL1  H19C 2485   0.621   0.755   7.045 -1.0056 -0.6887 -0.7870
   34CHL1    C1 2486   0.638   0.460   7.015 -0.5422  0.0092 -0.3682
   34CHL1   H1A 2487   0.743   0.453   7.051 -0.6913  2.3461  0.7433
   34CHL1   H1B 2488   0.593   0.359   7.017 -1.1335  0.2652 -0.6599
   34CHL1    C2 2489   0.630   0.503   6.870  0.6354 -0.5294  0.3370
   34CHL1   H2A 2490   0.672   0.426   6.801  1.5807 -0.1110  0.4258
   34CHL1   H2B 2491   0.695   0.591   6.854 -2.2026  1.8245  0.9688
   34CHL1   C20 2492   0.691   0.483   7.812  0.4423  0.9117  0.5860
   34CHL1   H20 2493   0.706   0.592   7.829  0.1720  1.4163 -1.9641
   34CHL1   C21 2494   0.826   0.414   7.777  0.2168  0.0090 -1.1978
   34CHL1  H21A 2495   0.892   0.479   7.716  1.4727  0.2778  0.3869
   34CHL1  H21B 2496   0.819   0.317   7.723 -0.6358 -0.0926 -0.9247
   34CHL1  H21C 2497   0.879   0.403   7.874  2.5914  0.7032 -2.3586
   34CHL1   C22 2498   0.630   0.425   7.949 -0.6545 -0.2051 -0.9515
   34CHL1  H22A 2499   0.527   0.463   7.967 -0.8623 -1.7530  1.6877
   34CHL1  H22B 2500   0.603   0.317   7.941  0.5069 -0.7319  1.3263
   34CHL1   C23 2501   0.715   0.459   8.072 -0.8346 -0.1054 -0.1346
   34CHL1  H23A 2502   0.817   0.415   8.080 -0.8597  0.1825  2.3311
   34CHL1  H23B 2503   0.723   0.568   8.055 -1.8219  0.0656  0.4235
   34CHL1   C24 2504   0.644   0.412   8.202  0.3521 -0.3976 -0.5904
   34CHL1  H24A 2505   0.535   0.433   8.207 -0.1988 -3.1921  0.7431
   34CHL1  H24B 2506   0.661   0.305   8.228 -0.3327 -0.0418  1.5093
   34CHL1   C25 2507   0.707   0.490   8.324 -0.1415  0.6139 -0.0214
   34CHL1   H25 2508   0.675   0.596   8.324 -1.3156  0.2883  0.9205
   34CHL1   C26 2509   0.638   0.443   8.449 -0.8515 -0.1497  0.2624
   34CHL1  H26A 2510   0.681   0.498   8.535  2.8718  1.4143 -2.3281
   34CHL1  H26B 2511   0.529   0.465   8.459 -0.4920  2.4455 -0.7716
   34CHL1  H26C 2512   0.660   0.338   8.478  2.9106  0.9270  1.9734
   34CHL1   C27 2513   0.862   0.470   8.337 -0.5341  0.3508 -0.3130
   34CHL1  H27A 2514   0.884   0.364   8.358  1.1716  0.0571 -3.0327
   34CHL1  H27B 2515   0.917   0.504   8.246  0.7919 -0.5758  0.1175
   34CHL1  H27C 2516   0.906   0.538   8.413 -0.4025  1.9336 -1.7421
   35CHL1    C3 2517   5.927   1.569   7.089 -0.3272  0.0584 -0.1231
   35CHL1    H3 2518   6.038   1.570   7.087 -0.3214 -0.8393 -0.9920
   35CHL1    O3 2519   5.894   1.548   6.954  0.5205  0.7242 -0.0443
   35CHL1   H3' 2520   5.798   1.548   6.954  0.2750 -2.2795 -3.9627
   35CHL1    C4 2521   5.893   1.453   7.175 -1.0457  0.3855  0.3624
   35CHL1   H4A 2522   5.782   1.452   7.170 -1.2893  0.2933  3.7597
   35CHL1   H4B 2523   5.949   1.365   7.135  0.6073 -0.1667  3.6031
   35CHL1    C5 2524   5.938   1.476   7.315 -0.2199 -0.0039 -0.2883
   35CHL1    C6 2525   5.990   1.375   7.385  0.1965  0.2698 -0.2848
   35CHL1    H6 2526   5.983   1.276   7.337 -0.6947 -0.4275  1.2260
   35CHL1    C7 2527   6.031   1.372   7.528 -0.4231  0.5815  0.6369
   35CHL1   H7A 2528   5.990   1.280   7.574  0.9654  0.0775  0.8920
   35CHL1   H7B 2529   6.141   1.360   7.538 -0.0627  2.9391  0.1626
   35CHL1    C8 2530   5.983   1.501   7.598 -0.3271  0.1824  0.1691
   35CHL1    H8 2531   5.874   1.481   7.614 -0.8076  1.6998 -0.9429
   35CHL1   C14 2532   6.056   1.528   7.725  0.0972 -1.1948 -0.5600
   35CHL1   H14 2533   6.165   1.549   7.715  0.1232  0.1654  1.9038
   35CHL1   C15 2534   6.072   1.406   7.834 -0.1459  0.2744  0.5496
   35CHL1  H15A 2535   5.975   1.352   7.829 -2.2849  3.8801 -0.5396
   35CHL1  H15B 2536   6.153   1.341   7.796 -0.0875  0.6515  0.0178
   35CHL1   C16 2537   6.100   1.484   7.964  0.3682 -0.3439 -0.4633
   35CHL1  H16A 2538   6.011   1.445   8.017 -0.1633 -2.1563 -2.5697
   35CHL1  H16B 2539   6.185   1.447   8.026  0.2032 -1.0572 -0.6573
   35CHL1   C17 2540   6.097   1.633   7.939  1.0925  0.3394 -0.1712
   35CHL1   H17 2541   6.197   1.673   7.912  0.8404  1.6491  0.7151
   35CHL1   C13 2542   6.007   1.650   7.812 -0.1025  0.2619  0.0394
   35CHL1   C18 2543   5.866   1.639   7.848  0.2583 -0.5950  0.1515
   35CHL1  H18A 2544   5.833   1.562   7.922  0.5609 -1.1755 -0.3010
   35CHL1  H18B 2545   5.814   1.730   7.884 -0.5357 -1.4999  1.3802
   35CHL1  H18C 2546   5.791   1.624   7.767 -1.4187  1.6462  1.1788
   35CHL1   C12 2547   6.027   1.774   7.725 -0.7790 -0.3804  0.0805
   35CHL1  H12A 2548   5.999   1.867   7.779 -0.9915 -1.6152  2.1862
   35CHL1  H12B 2549   6.136   1.782   7.704 -0.8106  0.7986  0.2904
   35CHL1   C11 2550   5.961   1.757   7.587 -0.8569  0.3352 -0.2503
   35CHL1  H11A 2551   5.852   1.766   7.606 -0.7987 -2.1047  1.7948
   35CHL1  H11B 2552   6.000   1.833   7.516  1.0168 -2.0284 -1.9345
   35CHL1    C9 2553   5.995   1.625   7.512  0.4827  0.1535 -0.1566
   35CHL1    H9 2554   6.103   1.625   7.486  0.3202 -0.5007 -0.8735
   35CHL1   C10 2555   5.912   1.614   7.377  1.0289 -0.0348  0.5844
   35CHL1   C19 2556   5.764   1.618   7.413 -0.0658 -0.1285  0.1293
   35CHL1  H19A 2557   5.724   1.719   7.439 -2.1079 -1.3767  2.1920
   35CHL1  H19B 2558   5.703   1.582   7.328  0.2252  1.5314 -0.8387
   35CHL1  H19C 2559   5.734   1.548   7.494  0.5546 -0.9221 -0.3087
   35CHL1    C1 2560   5.934   1.726   7.275  0.4719 -0.4887  0.5467
   35CHL1   H1A 2561   5.882   1.814   7.320 -1.0534 -1.0211 -0.1184
   35CHL1   H1B 2562   6.041   1.753   7.266  0.3843 -0.0562  0.7665
   35CHL1    C2 2563   5.874   1.704   7.139  0.0668 -0.8286 -0.0738
   35CHL1   H2A 2564   5.897   1.783   7.065  1.6827 -0.5446  0.6966
   35CHL1   H2B 2565   5.766   1.679   7.151  0.3413 -1.3237  1.8046
   35CHL1   C20 2566   6.060   1.715   8.065  0.2724  0.1132  0.2292
   35CHL1   H20 2567   5.971   1.666   8.110 -1.2955 -0.2206 -2.9641
   35CHL1   C21 2568   6.040   1.869   8.047 -0.0323  0.4993 -0.2471
   35CHL1  H21A 2569   6.129   1.913   7.997  1.0704 -2.3466 -0.9934
   35CHL1  H21B 2570   6.023   1.926   8.141 -2.7620 -2.8426  1.5088
   35CHL1  H21C 2571   5.942   1.864   7.995 -1.2748  0.3630  1.9675
   35CHL1   C22 2572   6.172   1.690   8.171 -0.2201  0.3196  0.0287
   35CHL1  H22A 2573   6.170   1.581   8.189 -1.7664  0.3646  0.2181
   35CHL1  H22B 2574   6.271   1.719   8.129 -1.1934  2.7406 -0.7913
   35CHL1   C23 2575   6.148   1.767   8.301 -0.0808  0.4394 -0.5331
   35CHL1  H23A 2576   6.156   1.878   8.305  1.6175  0.3369  2.4458
   35CHL1  H23B 2577   6.040   1.753   8.321  0.2276  0.1979  1.1335
   35CHL1   C24 2578   6.205   1.703   8.425 -0.3901 -0.1798 -0.7076
   35CHL1  H24A 2579   6.138   1.619   8.454 -0.7754  0.9089  1.8199
   35CHL1  H24B 2580   6.308   1.663   8.421  0.2091  1.2071  0.0685
   35CHL1   C25 2581   6.210   1.798   8.544 -0.4624 -0.0518  0.1740
   35CHL1   H25 2582   6.246   1.741   8.632 -0.3825  1.7962  1.3844
   35CHL1   C26 2583   6.300   1.916   8.518 -0.4563 -1.2737 -0.2410
   35CHL1  H26A 2584   6.250   1.982   8.442 -2.0420 -1.7345  0.3522
   35CHL1  H26B 2585   6.317   1.970   8.614  0.0124 -1.1737 -0.3781
   35CHL1  H26C 2586   6.390   1.891   8.459 -2.1527 -0.2343 -3.5214
   35CHL1   C27 2587   6.075   1.839   8.589  0.2437 -0.2634  0.4728
   35CHL1  H27A 2588   6.014   1.753   8.623 -2.0039  1.0608 -0.0484
   35CHL1  H27B 2589   6.020   1.895   8.511  1.6336  0.3374 -0.1170
   35CHL1  H27C 2590   6.089   1.907   8.676  1.6069  0.9274 -0.6083
   36CHL1    C3 2591   1.083   1.851   7.059  0.0740 -0.4712  0.4820
   36CHL1    H3 2592   1.182   1.897   7.040  0.3925 -1.7473 -1.2567
   36CHL1    O3 2593   1.024   1.830   6.925  0.5446 -0.4261 -0.0804
   36CHL1   H3' 2594   1.049   1.911   6.881  1.1023 -0.5808 -0.0531
   36CHL1    C4 2595   1.099   1.725   7.128  0.3137 -0.2681 -0.8184
   36CHL1   H4A 2596   1.000   1.677   7.143  1.1717 -1.2411  2.7489
   36CHL1   H4B 2597   1.154   1.654   7.063 -0.4510 -1.9090  0.2347
   36CHL1    C5 2598   1.163   1.752   7.267 -0.1131  0.9721  0.2425
   36CHL1    C6 2599   1.278   1.691   7.309 -0.0505  0.1864  0.0739
   36CHL1    H6 2600   1.333   1.623   7.243  0.3578 -0.0452  0.6437
   36CHL1    C7 2601   1.336   1.696   7.448 -0.0022  0.4070  0.3264
   36CHL1   H7A 2602   1.367   1.594   7.477 -0.2995  0.3221  0.3453
   36CHL1   H7B 2603   1.431   1.754   7.441 -0.8723  1.8956  0.3542
   36CHL1    C8 2604   1.241   1.760   7.551 -0.1125 -0.4774  0.5623
   36CHL1    H8 2605   1.174   1.675   7.573  1.0017 -1.5739 -0.1319
   36CHL1   C14 2606   1.311   1.805   7.676  0.1205 -0.3428  1.0703
   36CHL1   H14 2607   1.379   1.890   7.655  1.2192 -1.4365  0.0692
   36CHL1   C15 2608   1.408   1.707   7.743 -0.1468 -0.8486  0.0158
   36CHL1  H15A 2609   1.363   1.607   7.758 -3.2176  0.1637 -1.6395
   36CHL1  H15B 2610   1.503   1.710   7.685 -0.5598  0.6803 -0.6333
   36CHL1   C16 2611   1.435   1.780   7.879 -0.1035  0.3834 -0.0405
   36CHL1  H16A 2612   1.445   1.726   7.976 -0.1578  2.7209  1.3634
   36CHL1  H16B 2613   1.535   1.825   7.867  0.2924 -0.4295  0.1693
   36CHL1   C17 2614   1.330   1.898   7.887 -0.5585  0.4922  0.2370
   36CHL1   H17 2615   1.373   1.994   7.851  0.4656 -0.5556 -1.4899
   36CHL1   C13 2616   1.218   1.859   7.785  0.4939 -0.5032 -0.4450
   36CHL1   C18 2617   1.128   1.741   7.843 -0.8682 -0.1669  0.0678
   36CHL1  H18A 2618   1.184   1.664   7.901 -1.2647 -0.9780 -0.6116
   36CHL1  H18B 2619   1.052   1.781   7.913  1.1107  0.5153  1.9571
   36CHL1  H18C 2620   1.086   1.677   7.762  0.7451 -0.6755 -0.4089
   36CHL1   C12 2621   1.126   1.977   7.727 -0.1941  1.2989  0.3778
   36CHL1  H12A 2622   1.042   2.024   7.781 -1.2443  1.0721 -1.0027
   36CHL1  H12B 2623   1.202   2.054   7.700  1.6460 -0.7697 -0.7037
   36CHL1   C11 2624   1.054   1.917   7.598  0.1728 -0.2584 -0.3603
   36CHL1  H11A 2625   0.991   1.834   7.636 -0.0265 -0.1560 -0.4657
   36CHL1  H11B 2626   0.990   1.994   7.551  3.1531  1.9295 -1.1461
   36CHL1    C9 2627   1.151   1.878   7.487 -0.6803  0.3331  0.1156
   36CHL1    H9 2628   1.223   1.960   7.468 -0.8586  0.8023  1.3791
   36CHL1   C10 2629   1.077   1.841   7.360  1.0782  0.0886  0.3612
   36CHL1   C19 2630   0.943   1.766   7.390 -0.7252 -0.2142 -0.1104
   36CHL1  H19A 2631   0.960   1.675   7.451  2.7085  2.1879  2.9199
   36CHL1  H19B 2632   0.870   1.823   7.452 -0.4095  0.8749 -0.7170
   36CHL1  H19C 2633   0.886   1.739   7.299 -1.9574  2.1620 -0.1331
   36CHL1    C1 2634   1.033   1.970   7.279  0.0646 -0.5853 -0.4424
   36CHL1   H1A 2635   0.965   2.036   7.336  1.8026  1.2259 -0.3468
   36CHL1   H1B 2636   1.125   2.032   7.266  2.0707 -2.4422  3.3045
   36CHL1    C2 2637   0.994   1.953   7.129 -0.0793  0.1780 -0.2864
   36CHL1   H2A 2638   0.997   2.052   7.077 -2.2778  0.4686  0.0053
   36CHL1   H2B 2639   0.887   1.924   7.116  0.1265 -0.7619  0.0810
   36CHL1   C20 2640   1.302   1.932   8.038  0.1706  0.2636  0.3129
   36CHL1   H20 2641   1.259   1.839   8.081 -0.1450 -0.1093 -0.7691
   36CHL1   C21 2642   1.190   2.040   8.067  0.4157  0.0267  0.3345
   36CHL1  H21A 2643   1.116   2.048   7.985  1.2944  1.6627 -0.3624
   36CHL1  H21B 2644   1.234   2.142   8.079  0.2850 -0.0776  1.9771
   36CHL1  H21C 2645   1.141   2.027   8.165  2.7580  0.7018  1.6902
   36CHL1   C22 2646   1.427   1.972   8.118  0.2907  1.0524  0.1164
   36CHL1  H22A 2647   1.510   1.902   8.094  0.3918  1.6991 -1.5559
   36CHL1  H22B 2648   1.465   2.064   8.069  1.9666  0.6381  0.5644
   36CHL1   C23 2649   1.413   1.999   8.259 -0.3360 -0.1099 -0.4319
   36CHL1  H23A 2650   1.355   2.091   8.279 -2.6496 -1.2719 -1.3868
   36CHL1  H23B 2651   1.355   1.913   8.300 -1.3110  0.7247 -0.0407
   36CHL1   C24 2652   1.556   1.998   8.335 -0.0432 -0.0145  0.8923
   36CHL1  H24A 2653   1.599   1.905   8.293 -1.6774  0.6328 -2.5871
   36CHL1  H24B 2654   1.617   2.086   8.305  1.5426 -1.3137  0.1591
   36CHL1   C25 2655   1.549   2.008   8.485  0.4925 -0.5328  0.6236
   36CHL1   H25 2656   1.465   1.943   8.517  0.8082 -0.3003  1.9624
   36CHL1   C26 2657   1.664   1.956   8.566  0.0701 -0.2324  0.3848
   36CHL1  H26A 2658   1.645   1.963   8.675  0.9300  0.7637  0.4815
   36CHL1  H26B 2659   1.684   1.853   8.528 -0.0037 -0.1243  0.0516
   36CHL1  H26C 2660   1.758   2.009   8.540 -0.6084  0.3438 -0.9513
   36CHL1   C27 2661   1.511   2.151   8.528 -0.6342 -0.0366 -0.6875
   36CHL1  H27A 2662   1.604   2.212   8.531 -0.3923 -0.4182 -0.0502
   36CHL1  H27B 2663   1.431   2.196   8.466 -1.0394 -0.4657 -0.4879
   36CHL1  H27C 2664   1.467   2.130   8.628  2.0691 -2.6156  0.1186
   37CHL1    C3 2665   2.466   3.518   6.909 -0.0709 -0.0368  0.1093
   37CHL1    H3 2666   2.533   3.606   6.917 -0.3743  0.5880 -2.9310
   37CHL1    O3 2667   2.436   3.496   6.771 -0.1105  0.3336 -0.4896
   37CHL1   H3' 2668   2.398   3.409   6.784 -0.6156  0.9018  2.9736
   37CHL1    C4 2669   2.520   3.391   6.961 -0.0349  0.7006 -0.0518
   37CHL1   H4A 2670   2.467   3.298   6.932  4.1310 -1.4618 -1.5999
   37CHL1   H4B 2671   2.618   3.361   6.918  0.4759  0.5818  1.1460
   37CHL1    C5 2672   2.524   3.388   7.115 -0.0640  0.1902  0.0539
   37CHL1    C6 2673   2.626   3.347   7.184 -0.7443 -0.1528 -0.2021
   37CHL1    H6 2674   2.714   3.320   7.123 -1.2487 -1.3621 -0.4305
   37CHL1    C7 2675   2.631   3.324   7.330 -0.3186 -0.5366  0.5711
   37CHL1   H7A 2676   2.674   3.223   7.348 -1.8466 -1.3521 -0.2409
   37CHL1   H7B 2677   2.693   3.404   7.377  1.5731 -0.5324 -1.7544
   37CHL1    C8 2678   2.498   3.321   7.394 -0.5695 -0.1131  0.4312
   37CHL1    H8 2679   2.439   3.232   7.363 -1.5393  0.3622  0.8596
   37CHL1   C14 2680   2.513   3.317   7.542 -0.1186 -0.3720  0.1156
   37CHL1   H14 2681   2.573   3.404   7.577  1.3385 -0.9137 -0.9466
   37CHL1   C15 2682   2.582   3.192   7.610  0.1748  0.0794  0.5373
   37CHL1  H15A 2683   2.546   3.112   7.542 -0.5203  1.6047 -0.9456
   37CHL1  H15B 2684   2.690   3.202   7.585 -0.0415 -0.2992 -0.5698
   37CHL1   C16 2685   2.523   3.177   7.752 -0.4848 -0.2091  0.5366
   37CHL1  H16A 2686   2.471   3.079   7.761  1.1811 -1.2253 -0.4626
   37CHL1  H16B 2687   2.606   3.175   7.826  0.2386  1.1528 -0.2104
   37CHL1   C17 2688   2.435   3.303   7.767  0.2631  0.3851  1.2340
   37CHL1   H17 2689   2.508   3.378   7.806  1.0295  1.2867 -1.7110
   37CHL1   C13 2690   2.385   3.335   7.617 -0.5556 -0.0126  0.2766
   37CHL1   C18 2691   2.286   3.229   7.571  0.6051  0.2367  0.4122
   37CHL1  H18A 2692   2.325   3.126   7.563 -1.4932 -0.7083  1.5950
   37CHL1  H18B 2693   2.205   3.211   7.646 -0.2479 -0.2051 -0.5951
   37CHL1  H18C 2694   2.238   3.263   7.477  4.3845  2.9182 -0.8028
   37CHL1   C12 2695   2.321   3.469   7.587  0.4937 -0.5819 -0.6096
   37CHL1  H12A 2696   2.221   3.475   7.635  1.2194 -1.1425  1.0616
   37CHL1  H12B 2697   2.385   3.547   7.633 -1.2790 -0.2884  1.5727
   37CHL1   C11 2698   2.301   3.495   7.434  0.0535  0.2725  0.6944
   37CHL1  H11A 2699   2.207   3.444   7.404 -0.1308  1.0980 -0.1734
   37CHL1  H11B 2700   2.284   3.603   7.416  2.2951  0.8910  1.9259
   37CHL1    C9 2701   2.418   3.444   7.348 -0.4608 -0.5229  0.7825
   37CHL1    H9 2702   2.484   3.533   7.359 -3.3733  2.0221 -0.5378
   37CHL1   C10 2703   2.393   3.437   7.189 -0.2276 -0.1666  0.2049
   37CHL1   C19 2704   2.281   3.337   7.162  0.0331 -0.0718  0.3944
   37CHL1  H19A 2705   2.296   3.236   7.205 -0.4417 -0.0250  0.6710
   37CHL1  H19B 2706   2.193   3.372   7.220 -0.1340  1.5347 -0.7533
   37CHL1  H19C 2707   2.254   3.326   7.054 -1.9400  1.8041  0.6245
   37CHL1    C1 2708   2.371   3.577   7.125  0.5596 -0.3336 -0.1501
   37CHL1   H1A 2709   2.284   3.624   7.176  0.5021 -0.7986  0.1856
   37CHL1   H1B 2710   2.456   3.642   7.154 -1.3532  1.9888  0.6499
   37CHL1    C2 2711   2.343   3.571   6.976  0.5794  0.4220 -0.1626
   37CHL1   H2A 2712   2.304   3.665   6.933  0.5380  1.3058  1.6962
   37CHL1   H2B 2713   2.254   3.506   6.967  0.6076  0.2415  0.7184
   37CHL1   C20 2714   2.322   3.299   7.869 -0.9650 -0.1770 -0.6092
   37CHL1   H20 2715   2.231   3.254   7.824 -1.3222  0.0131 -0.0820
   37CHL1   C21 2716   2.302   3.442   7.935  0.1121 -0.5646 -0.0889
   37CHL1  H21A 2717   2.266   3.447   8.040  1.6267  0.3553  0.4036
   37CHL1  H21B 2718   2.225   3.503   7.883 -0.2943 -0.1999  0.9078
   37CHL1  H21C 2719   2.401   3.490   7.941 -0.8224  1.4470  0.0199
   37CHL1   C22 2720   2.356   3.202   7.988 -0.7548  0.0158 -0.2447
   37CHL1  H22A 2721   2.365   3.099   7.947  0.8037 -0.1452  0.4281
   37CHL1  H22B 2722   2.452   3.228   8.038 -0.9865  0.6437 -0.1210
   37CHL1   C23 2723   2.246   3.185   8.096  0.3066 -0.4488 -0.5218
   37CHL1  H23A 2724   2.254   3.275   8.161  0.4630  1.0067 -2.4955
   37CHL1  H23B 2725   2.148   3.181   8.043  0.4768  1.7068 -1.0751
   37CHL1   C24 2726   2.268   3.061   8.175  0.4654  0.1599 -0.2136
   37CHL1  H24A 2727   2.287   2.980   8.101  2.6132  0.4232 -0.0113
   37CHL1  H24B 2728   2.355   3.065   8.243  0.1002  2.0603  0.2010
   37CHL1   C25 2729   2.149   3.024   8.260  0.2751  0.0129 -0.2468
   37CHL1   H25 2730   2.062   2.996   8.198  0.1334  0.8958 -0.4627
   37CHL1   C26 2731   2.164   2.885   8.335  0.2598 -0.7550  0.5809
   37CHL1  H26A 2732   2.171   2.807   8.256 -2.2967 -0.8113  0.3068
   37CHL1  H26B 2733   2.246   2.882   8.410  0.6008 -2.4547  0.1838
   37CHL1  H26C 2734   2.070   2.861   8.389  0.3516 -0.9814  0.6430
   37CHL1   C27 2735   2.124   3.132   8.364 -0.0708 -0.2939  0.7402
   37CHL1  H27A 2736   2.210   3.144   8.434  1.3058  1.5818 -1.1564
   37CHL1  H27B 2737   2.083   3.228   8.326 -2.6357 -2.0553 -1.3460
   37CHL1  H27C 2738   2.045   3.096   8.434 -0.7403 -0.2254  0.0315
   38CHL1    C3 2739   4.779   3.677   6.713 -1.1676 -0.1649  0.6738
   38CHL1    H3 2740   4.829   3.582   6.746 -0.4490 -0.9494 -2.3799
   38CHL1    O3 2741   4.790   3.680   6.568 -0.1820  0.6081 -0.5691
   38CHL1   H3' 2742   4.699   3.690   6.539 -1.5287 -2.3965  2.0624
   38CHL1    C4 2743   4.637   3.685   6.764  0.4925 -0.0379 -0.1898
   38CHL1   H4A 2744   4.597   3.784   6.733  1.7546  0.5092 -0.1606
   38CHL1   H4B 2745   4.591   3.597   6.714 -1.2938 -0.5566  2.2366
   38CHL1    C5 2746   4.646   3.674   6.919  0.1686  0.0755  0.0509
   38CHL1    C6 2747   4.575   3.580   6.978 -0.5037 -0.0708  0.1477
   38CHL1    H6 2748   4.531   3.495   6.925 -0.4174  0.7332 -1.2537
   38CHL1    C7 2749   4.571   3.554   7.127 -0.4622  0.4887 -0.1748
   38CHL1   H7A 2750   4.462   3.543   7.143 -0.1875 -1.0000  0.9070
   38CHL1   H7B 2751   4.624   3.462   7.158  0.4010  1.0802  0.1485
   38CHL1    C8 2752   4.625   3.681   7.207  0.1523 -0.4266 -0.2491
   38CHL1    H8 2753   4.545   3.758   7.213  0.3598 -0.2711  0.6989
   38CHL1   C14 2754   4.669   3.651   7.350 -0.3142  0.1514 -0.5808
   38CHL1   H14 2755   4.759   3.585   7.350  0.5918  1.2038  2.0803
   38CHL1   C15 2756   4.563   3.581   7.439  0.0407  0.1861 -0.0074
   38CHL1  H15A 2757   4.460   3.614   7.412  0.4849 -0.2874 -2.5519
   38CHL1  H15B 2758   4.576   3.472   7.419 -1.3159  0.1282 -0.7126
   38CHL1   C16 2759   4.596   3.629   7.584  0.5037  0.5463 -0.1373
   38CHL1  H16A 2760   4.515   3.701   7.610 -0.1524  0.1702 -1.0809
   38CHL1  H16B 2761   4.598   3.546   7.657  1.3295 -0.1608 -0.9282
   38CHL1   C17 2762   4.721   3.712   7.573 -0.0433  0.3563  0.0982
   38CHL1   H17 2763   4.811   3.646   7.568 -0.9324 -0.8690 -0.4124
   38CHL1   C13 2764   4.713   3.772   7.432  0.4470 -0.2938 -0.3827
   38CHL1   C18 2765   4.608   3.891   7.419  0.0716  0.5296 -0.2427
   38CHL1  H18A 2766   4.505   3.862   7.450 -0.4439  0.2134 -2.1021
   38CHL1  H18B 2767   4.644   3.977   7.480  1.8577 -0.4395  0.1432
   38CHL1  H18C 2768   4.608   3.932   7.316  0.5799  0.1565 -0.3951
   38CHL1   C12 2769   4.852   3.807   7.370  0.2805  0.3992 -0.4526
   38CHL1  H12A 2770   4.883   3.900   7.423  0.4948 -1.1985  2.4088
   38CHL1  H12B 2771   4.935   3.736   7.388  0.0317 -0.2448 -1.7531
   38CHL1   C11 2772   4.841   3.836   7.217  0.5211  0.6368 -0.3359
   38CHL1  H11A 2773   4.807   3.941   7.205 -1.1119 -0.0422 -2.0468
   38CHL1  H11B 2774   4.944   3.840   7.176 -0.2154  0.9121 -2.2325
   38CHL1    C9 2775   4.746   3.736   7.138 -0.1538  0.0316  0.3467
   38CHL1    H9 2776   4.797   3.638   7.124  1.2399  0.9238 -1.2608
   38CHL1   C10 2777   4.728   3.774   6.991 -0.0330 -0.0637  0.5787
   38CHL1   C19 2778   4.666   3.917   6.989 -0.0072 -0.0244 -0.0702
   38CHL1  H19A 2779   4.619   3.939   6.890 -0.8459 -2.5348 -0.2901
   38CHL1  H19B 2780   4.587   3.931   7.066  0.0279 -0.5924  0.0737
   38CHL1  H19C 2781   4.735   4.002   7.008 -0.6411  0.7945 -1.2602
   38CHL1    C1 2782   4.871   3.780   6.919 -0.0614  0.0809  0.6758
   38CHL1   H1A 2783   4.945   3.852   6.958  0.7511  0.5825 -1.6107
   38CHL1   H1B 2784   4.909   3.679   6.947 -0.2847 -0.2070 -0.0333
   38CHL1    C2 2785   4.874   3.790   6.766  0.0585  0.4690  0.3535
   38CHL1   H2A 2786   4.975   3.775   6.722 -0.0849  1.9463 -0.5394
   38CHL1   H2B 2787   4.840   3.887   6.724  0.9965  0.6810  0.0376
   38CHL1   C20 2788   4.736   3.800   7.699 -0.5970  0.1956 -0.1195
   38CHL1   H20 2789   4.652   3.872   7.697 -2.2280 -1.3803  3.5061
   38CHL1   C21 2790   4.873   3.884   7.701 -0.2766  0.0224 -0.0298
   38CHL1  H21A 2791   4.956   3.810   7.697 -0.3096 -0.2016  1.9921
   38CHL1  H21B 2792   4.887   3.946   7.792 -1.5477  0.3562 -0.0418
   38CHL1  H21C 2793   4.871   3.958   7.619 -0.3346  0.4726  0.3715
   38CHL1   C22 2794   4.718   3.726   7.838 -0.5974 -0.3569 -0.7284
   38CHL1  H22A 2795   4.754   3.800   7.912  0.9585 -1.1750 -0.6332
   38CHL1  H22B 2796   4.615   3.685   7.843 -0.1222 -1.4870  0.0583
   38CHL1   C23 2797   4.812   3.611   7.867 -0.2158  0.0811  0.1924
   38CHL1  H23A 2798   4.773   3.532   7.800  2.0729  0.1006 -1.2522
   38CHL1  H23B 2799   4.916   3.635   7.838 -0.3316  0.2731 -0.0577
   38CHL1   C24 2800   4.814   3.573   8.015  0.6255 -0.0128  0.4591
   38CHL1  H24A 2801   4.711   3.581   8.055  0.5450  1.8459 -0.0267
   38CHL1  H24B 2802   4.854   3.469   8.021  0.7936 -0.0027 -0.3645
   38CHL1   C25 2803   4.894   3.657   8.111  0.2107  0.1910 -0.3903
   38CHL1   H25 2804   4.860   3.762   8.099  1.4530  0.7585  0.7855
   38CHL1   C26 2805   4.875   3.614   8.257 -0.2139  0.1179  1.0119
   38CHL1  H26A 2806   4.903   3.506   8.260  1.4201  0.3924 -1.3498
   38CHL1  H26B 2807   4.934   3.677   8.327  0.4819  0.8542 -0.2093
   38CHL1  H26C 2808   4.766   3.621   8.276 -0.1840 -2.1854  2.4457
   38CHL1   C27 2809   5.050   3.645   8.088  0.4409 -0.2766  0.0160
   38CHL1  H27A 2810   5.100   3.722   8.152  2.9099 -2.4333  0.8554
   38CHL1  H27B 2811   5.096   3.550   8.123 -1.4871 -0.5926  1.9123
   38CHL1  H27C 2812   5.080   3.659   7.982  2.3042 -2.2156  0.2321
   39CHL1    C3 2813   6.033   2.530   6.951  0.2107  0.4685  1.0064
   39CHL1    H3 2814   6.015   2.635   6.921 -2.7704 -0.2752 -0.1638
   39CHL1    O3 2815   6.049   2.446   6.834  0.1641 -0.2274  0.1316
   39CHL1   H3' 2816   6.079   2.362   6.868  0.6342  0.2464  0.9028
   39CHL1    C4 2817   6.162   2.512   7.035 -0.0169  0.1748 -0.4743
   39CHL1   H4A 2818   6.185   2.403   7.033  0.3901  0.2762 -1.5098
   39CHL1   H4B 2819   6.242   2.554   6.971 -0.0816 -1.4095 -1.6713
   39CHL1    C5 2820   6.157   2.571   7.173  0.0019  0.1465 -0.1286
   39CHL1    C6 2821   6.250   2.657   7.225  0.0239  0.5304  0.7228
   39CHL1    H6 2822   6.337   2.679   7.162  0.5276 -0.3631  1.0929
   39CHL1    C7 2823   6.247   2.720   7.366  0.3164  0.2556 -0.5188
   39CHL1   H7A 2824   6.348   2.717   7.411  0.7082 -1.7749 -1.3988
   39CHL1   H7B 2825   6.215   2.826   7.365 -1.6736 -0.2925  0.5828
   39CHL1    C8 2826   6.154   2.640   7.461 -0.1670  0.5750 -0.5511
   39CHL1    H8 2827   6.214   2.548   7.477 -0.2830  0.5033 -0.5241
   39CHL1   C14 2828   6.141   2.703   7.594  0.3493 -0.3095  0.1374
   39CHL1   H14 2829   6.096   2.800   7.565  1.5054 -0.1960 -1.3985
   39CHL1   C15 2830   6.259   2.741   7.676 -0.2107 -0.9995 -0.6469
   39CHL1  H15A 2831   6.342   2.671   7.652 -1.1301 -1.9684 -1.0351
   39CHL1  H15B 2832   6.279   2.847   7.650  1.2997 -0.7176  1.3728
   39CHL1   C16 2833   6.214   2.742   7.826  0.8002 -0.2315  0.4635
   39CHL1  H16A 2834   6.262   2.659   7.882  0.7826 -1.2351 -0.9561
   39CHL1  H16B 2835   6.239   2.837   7.877  0.0421  0.8023 -1.0155
   39CHL1   C17 2836   6.061   2.722   7.820  0.2772 -0.8703 -0.3156
   39CHL1   H17 2837   6.010   2.820   7.809 -0.6217 -1.0993  1.4435
   39CHL1   C13 2838   6.038   2.642   7.690  0.1973 -1.0477 -0.1590
   39CHL1   C18 2839   6.083   2.497   7.706 -0.0345 -0.4669 -0.3028
   39CHL1  H18A 2840   6.189   2.481   7.735  0.2353 -1.3590 -1.6864
   39CHL1  H18B 2841   6.022   2.455   7.789  1.9489 -1.3315  0.7828
   39CHL1  H18C 2842   6.063   2.432   7.619 -3.2016 -0.7469  0.5245
   39CHL1   C12 2843   5.908   2.663   7.622  0.2928  0.2989 -0.6228
   39CHL1  H12A 2844   5.812   2.642   7.676  0.1961  1.3370 -0.3782
   39CHL1  H12B 2845   5.893   2.772   7.613  0.9533  0.4196 -0.3228
   39CHL1   C11 2846   5.894   2.598   7.484 -0.2781 -0.9606  0.2540
   39CHL1  H11A 2847   5.868   2.490   7.491  0.0826 -1.1637 -1.3352
   39CHL1  H11B 2848   5.800   2.642   7.445 -0.1209  0.1027  1.0147
   39CHL1    C9 2849   6.016   2.621   7.386  1.4050 -0.2716  0.4165
   39CHL1    H9 2850   5.994   2.723   7.348 -1.8106 -1.4119 -1.1499
   39CHL1   C10 2851   6.027   2.543   7.254  0.2759  0.9476 -0.4031
   39CHL1   C19 2852   6.039   2.401   7.296  0.1846 -0.3862  0.0581
   39CHL1  H19A 2853   6.131   2.390   7.357  0.5984  2.5569  0.1498
   39CHL1  H19B 2854   5.949   2.372   7.354 -2.6442  3.9765 -1.6301
   39CHL1  H19C 2855   6.042   2.341   7.203 -1.2531  1.3642 -1.2054
   39CHL1    C1 2856   5.902   2.572   7.168 -0.3555 -0.4723  0.6241
   39CHL1   H1A 2857   5.817   2.536   7.229  0.2334 -0.8468  1.2396
   39CHL1   H1B 2858   5.890   2.682   7.155  2.9142 -0.2083 -1.3275
   39CHL1    C2 2859   5.903   2.498   7.035 -0.2646  0.0902  0.0728
   39CHL1   H2A 2860   5.817   2.544   6.982 -1.8138  0.1136  2.4386
   39CHL1   H2B 2861   5.890   2.388   7.048 -0.8967  0.2238  0.6103
   39CHL1   C20 2862   5.998   2.665   7.953 -0.2379  0.3759  0.5357
   39CHL1   H20 2863   6.026   2.557   7.959 -1.2726  0.0280 -0.5694
   39CHL1   C21 2864   5.846   2.679   7.942 -0.0683 -0.3178  0.5394
   39CHL1  H21A 2865   5.811   2.597   7.876  1.0498  1.1219 -1.9839
   39CHL1  H21B 2866   5.818   2.774   7.892 -0.3422 -0.8408 -0.3178
   39CHL1  H21C 2867   5.804   2.666   8.045  1.5002  1.9932  1.5481
   39CHL1   C22 2868   6.046   2.727   8.090 -0.1945  0.2673 -0.3627
   39CHL1  H22A 2869   6.156   2.739   8.076  0.0322 -0.7456  0.3916
   39CHL1  H22B 2870   5.996   2.825   8.102  0.9158  0.7891  0.1219
   39CHL1   C23 2871   6.025   2.630   8.202  0.5007 -0.3592 -0.8503
   39CHL1  H23A 2872   5.924   2.598   8.236  0.3692  1.6629  0.8724
   39CHL1  H23B 2873   6.066   2.536   8.159  1.5577  0.4438 -1.6377
   39CHL1   C24 2874   6.088   2.677   8.344  0.3976  0.5852  0.5138
   39CHL1  H24A 2875   6.110   2.587   8.406  1.2793  1.5046  1.5635
   39CHL1  H24B 2876   6.184   2.729   8.324  1.7811 -1.0404  2.5569
   39CHL1   C25 2877   5.996   2.767   8.431  0.1097 -0.1276 -0.2655
   39CHL1   H25 2878   6.059   2.819   8.506 -1.0952  1.6998 -0.4548
   39CHL1   C26 2879   5.926   2.887   8.364 -0.5626 -0.4073 -0.4560
   39CHL1  H26A 2880   5.866   2.948   8.435 -1.0817 -2.0242  0.5280
   39CHL1  H26B 2881   6.005   2.952   8.320  1.2050 -0.3662  2.5058
   39CHL1  H26C 2882   5.850   2.845   8.295 -1.1260 -2.2725  1.2322
   39CHL1   C27 2883   5.885   2.695   8.515  0.2066  0.0961 -0.2793
   39CHL1  H27A 2884   5.830   2.642   8.433  0.2456  0.8146 -0.7736
   39CHL1  H27B 2885   5.927   2.621   8.587  0.6399 -0.3965 -1.0195
   39CHL1  H27C 2886   5.813   2.761   8.566 -0.0280  0.0054 -0.4863
   40CHL1    C3 2887   1.486   3.940   6.798 -0.1047  0.5342 -0.8971
   40CHL1    H3 2888   1.479   3.833   6.828  1.2640  0.1214 -1.9464
   40CHL1    O3 2889   1.476   3.946   6.658 -0.1869  0.4582 -0.0763
   40CHL1   H3' 2890   1.557   3.902   6.630  0.8222  2.1257  0.0553
   40CHL1    C4 2891   1.368   4.016   6.866 -0.1162  0.0652  0.1526
   40CHL1   H4A 2892   1.377   4.125   6.850 -0.9022  0.6031  2.8924
   40CHL1   H4B 2893   1.271   3.985   6.823  0.0775  1.3848 -1.3103
   40CHL1    C5 2894   1.383   4.011   7.014 -0.1194 -0.2793 -0.0055
   40CHL1    C6 2895   1.276   3.976   7.083  0.3499  0.1170  0.0727
   40CHL1    H6 2896   1.178   3.959   7.036 -1.1363  2.2159  2.1907
   40CHL1    C7 2897   1.262   3.974   7.236 -0.5448 -0.3918 -0.0822
   40CHL1   H7A 2898   1.169   4.015   7.280 -0.8073 -2.7345  1.7739
   40CHL1   H7B 2899   1.272   3.870   7.273  0.4349  0.3988  2.0573
   40CHL1    C8 2900   1.392   4.038   7.297  0.0829 -0.6849 -0.1016
   40CHL1    H8 2901   1.384   4.148   7.296  0.3207 -0.6671 -0.1141
   40CHL1   C14 2902   1.418   4.000   7.444  0.1182 -0.0517  0.2297
   40CHL1   H14 2903   1.426   3.889   7.437  2.8994  0.2051 -3.9974
   40CHL1   C15 2904   1.296   4.018   7.531  0.4041  1.3216  0.1629
   40CHL1  H15A 2905   1.252   4.118   7.514  1.2524  1.9863  1.7176
   40CHL1  H15B 2906   1.221   3.936   7.530 -0.2764  1.9337  0.5918
   40CHL1   C16 2907   1.357   4.028   7.672  0.1032  0.5756  0.1252
   40CHL1  H16A 2908   1.336   4.124   7.723 -0.8604  0.2890  0.2853
   40CHL1  H16B 2909   1.331   3.947   7.743  1.7854  0.7441  0.9925
   40CHL1   C17 2910   1.511   4.005   7.662  0.5203 -0.2399 -0.8220
   40CHL1   H17 2911   1.526   3.895   7.652  0.2274 -0.1875 -1.9037
   40CHL1   C13 2912   1.537   4.056   7.516  0.5856 -0.4850 -1.2812
   40CHL1   C18 2913   1.527   4.213   7.528 -0.5532 -0.2686 -0.2161
   40CHL1  H18A 2914   1.452   4.245   7.603 -2.1684 -3.6458 -0.1981
   40CHL1  H18B 2915   1.625   4.245   7.570 -0.7758  0.4263 -0.2190
   40CHL1  H18C 2916   1.521   4.255   7.425 -0.3228 -0.1480 -0.1800
   40CHL1   C12 2917   1.666   4.012   7.442 -0.1146 -0.2331  0.2142
   40CHL1  H12A 2918   1.751   4.064   7.491 -1.2298  0.1413  1.8541
   40CHL1  H12B 2919   1.676   3.903   7.458  0.7543  0.0355  1.7837
   40CHL1   C11 2920   1.657   4.046   7.289 -0.1126 -0.0986 -0.2766
   40CHL1  H11A 2921   1.665   4.156   7.292 -1.7574  0.0194  0.2850
   40CHL1  H11B 2922   1.744   4.002   7.235 -0.0495  1.5305 -1.5751
   40CHL1    C9 2923   1.525   4.007   7.222 -1.0030 -0.1684 -0.6220
   40CHL1    H9 2924   1.515   3.897   7.235 -2.0542  0.1720  2.1123
   40CHL1   C10 2925   1.517   4.045   7.075  0.0253  0.2726  0.3677
   40CHL1   C19 2926   1.522   4.199   7.055  0.1238 -0.3806 -0.3268
   40CHL1  H19A 2927   1.452   4.258   7.118  1.4222  1.3082 -0.3977
   40CHL1  H19B 2928   1.621   4.231   7.095 -0.3869  2.3166 -1.0618
   40CHL1  H19C 2929   1.525   4.236   6.951 -3.0505 -0.4751 -0.5347
   40CHL1    C1 2930   1.631   3.975   7.004 -0.0735 -0.3466 -0.1546
   40CHL1   H1A 2931   1.728   4.023   7.033 -0.8565  1.7531 -0.7719
   40CHL1   H1B 2932   1.624   3.866   7.023 -1.5845 -0.6534 -2.1459
   40CHL1    C2 2933   1.625   3.994   6.851 -0.2287  0.2677  0.3506
   40CHL1   H2A 2934   1.700   3.923   6.809  0.0794  0.1982  1.0082
   40CHL1   H2B 2935   1.644   4.099   6.820  2.5753 -0.0064  0.9145
   40CHL1   C20 2936   1.577   4.062   7.788  0.1570 -0.2163  0.2432
   40CHL1   H20 2937   1.555   4.170   7.803  0.9788  0.1026 -0.7271
   40CHL1   C21 2938   1.733   4.053   7.765  0.5570  0.0781  0.0490
   40CHL1  H21A 2939   1.787   4.098   7.851 -2.6221  1.1746  1.6223
   40CHL1  H21B 2940   1.754   4.119   7.678  0.1904 -1.1996 -1.0507
   40CHL1  H21C 2941   1.773   3.950   7.753  3.3725  1.2616 -2.1043
   40CHL1   C22 2942   1.540   3.992   7.925  0.2507  0.1441  0.9592
   40CHL1  H22A 2943   1.431   3.971   7.934  0.6567 -2.1012  1.3081
   40CHL1  H22B 2944   1.585   3.891   7.916 -0.2705 -0.1550  1.6172
   40CHL1   C23 2945   1.579   4.076   8.042 -0.1065 -0.4082 -0.1203
   40CHL1  H23A 2946   1.687   4.100   8.044  0.0867 -1.2301 -0.4217
   40CHL1  H23B 2947   1.517   4.168   8.030 -2.4548 -1.9229 -0.2163
   40CHL1   C24 2948   1.545   4.013   8.177  0.3798  0.1425  0.4887
   40CHL1  H24A 2949   1.434   4.003   8.180  0.2845  1.2708  2.7578
   40CHL1  H24B 2950   1.590   3.911   8.180  1.7636  0.6210 -1.7835
   40CHL1   C25 2951   1.586   4.093   8.303  0.1723 -0.3000  0.2071
   40CHL1   H25 2952   1.695   4.111   8.313  0.2324  0.5289 -1.6276
   40CHL1   C26 2953   1.515   4.236   8.308 -0.2841 -0.6316  0.2697
   40CHL1  H26A 2954   1.407   4.229   8.333 -0.1280  0.7384  1.5207
   40CHL1  H26B 2955   1.566   4.295   8.387 -2.3816  2.1460 -0.2678
   40CHL1  H26C 2956   1.535   4.294   8.216 -1.3340 -1.7800 -0.7111
   40CHL1   C27 2957   1.550   4.015   8.423 -0.0312 -0.0819  0.1689
   40CHL1  H27A 2958   1.444   3.979   8.418 -0.1668  0.2375  0.6903
   40CHL1  H27B 2959   1.624   3.936   8.450  0.6504 -0.2746 -2.0654
   40CHL1  H27C 2960   1.547   4.083   8.510  0.4089 -0.4638  0.4901
   41CHL1    C3 2961   1.888   2.497   6.832  0.5053  0.3420  0.4208
   41CHL1    H3 2962   1.869   2.389   6.849 -0.5887  0.5224  0.4288
   41CHL1    O3 2963   1.916   2.518   6.691 -0.3259 -0.5051 -0.1367
   41CHL1   H3' 2964   1.833   2.495   6.649 -1.6844 -1.1192  2.6756
   41CHL1    C4 2965   1.777   2.583   6.875  0.4828 -0.0088  0.2923
   41CHL1   H4A 2966   1.810   2.687   6.857  2.0480 -0.3641  0.8894
   41CHL1   H4B 2967   1.691   2.558   6.809  0.5773  1.9001 -0.6023
   41CHL1    C5 2968   1.744   2.582   7.022  0.0413  0.6569  0.6484
   41CHL1    C6 2969   1.624   2.543   7.066 -0.4042  0.1090  0.4080
   41CHL1    H6 2970   1.548   2.510   6.994  3.3567  0.4158 -4.2005
   41CHL1    C7 2971   1.597   2.547   7.209  0.5116 -0.2438  0.1373
   41CHL1   H7A 2972   1.502   2.602   7.227  1.1878  0.4248  1.8673
   41CHL1   H7B 2973   1.581   2.446   7.253  0.4138  0.5563  2.0725
   41CHL1    C8 2974   1.696   2.621   7.297 -1.1166  0.2223  0.0856
   41CHL1    H8 2975   1.683   2.731   7.287 -2.5044  0.3134  2.2492
   41CHL1   C14 2976   1.679   2.592   7.448  0.4018 -0.6092  0.1865
   41CHL1   H14 2977   1.696   2.483   7.462 -0.6551 -0.5920  1.8729
   41CHL1   C15 2978   1.535   2.607   7.504 -0.5369 -0.3194  0.9208
   41CHL1  H15A 2979   1.463   2.682   7.466 -0.0323 -1.2628 -2.1368
   41CHL1  H15B 2980   1.484   2.508   7.500  0.5126 -0.8418 -0.2073
   41CHL1   C16 2981   1.557   2.627   7.658 -1.3109  0.8091  0.8506
   41CHL1  H16A 2982   1.525   2.730   7.685  2.4249  1.9375  1.4758
   41CHL1  H16B 2983   1.510   2.545   7.717 -0.7731 -0.6823 -0.6986
   41CHL1   C17 2984   1.717   2.626   7.675 -0.2595  0.3994 -0.1189
   41CHL1   H17 2985   1.749   2.521   7.690  0.9132  0.4798 -1.7606
   41CHL1   C13 2986   1.778   2.661   7.541 -1.1503 -0.4055 -0.1421
   41CHL1   C18 2987   1.757   2.814   7.519  0.7005  0.3849 -0.5920
   41CHL1  H18A 2988   1.825   2.878   7.579  3.3299 -1.2061 -1.7123
   41CHL1  H18B 2989   1.768   2.851   7.415 -1.8917 -0.9952 -1.4454
   41CHL1  H18C 2990   1.655   2.840   7.556  1.1348 -0.9661  1.7940
   41CHL1   C12 2991   1.915   2.607   7.500  0.3895  0.3374  0.1592
   41CHL1  H12A 2992   1.996   2.645   7.565  1.7276 -2.6924  0.4226
   41CHL1  H12B 2993   1.912   2.496   7.507  2.3465  0.1830 -0.7395
   41CHL1   C11 2994   1.950   2.646   7.352 -0.3682 -0.1717  0.1390
   41CHL1  H11A 2995   1.956   2.756   7.342  0.8160 -0.2459 -0.1195
   41CHL1  H11B 2996   2.047   2.599   7.324 -0.9158 -0.3061 -1.6347
   41CHL1    C9 2997   1.843   2.589   7.254 -0.3836 -0.0996 -0.1108
   41CHL1    H9 2998   1.853   2.478   7.259  2.6174  0.0500 -0.7798
   41CHL1   C10 2999   1.868   2.621   7.100 -0.3156 -0.0780 -1.1080
   41CHL1   C19 3000   1.908   2.778   7.091 -0.9927 -0.0960  0.0936
   41CHL1  H19A 3001   1.829   2.840   7.139 -0.6848  0.2864  0.1055
   41CHL1  H19B 3002   2.006   2.812   7.129 -0.7960  1.5471 -1.7518
   41CHL1  H19C 3003   1.921   2.801   6.983  2.3821  1.3174  0.6726
   41CHL1    C1 3004   1.988   2.537   7.056  0.7180 -0.3513 -0.4948
   41CHL1   H1A 3005   2.084   2.579   7.093  2.0233 -1.7978 -2.0516
   41CHL1   H1B 3006   1.980   2.434   7.098 -1.0418 -0.4019 -0.8768
   41CHL1    C2 3007   2.018   2.537   6.909  0.7053 -0.3242  0.1001
   41CHL1   H2A 3008   2.096   2.462   6.886 -1.3262 -2.6609  0.4320
   41CHL1   H2B 3009   2.055   2.637   6.879  0.4750 -1.1295 -3.2072
   41CHL1   C20 3010   1.762   2.697   7.803 -0.2741 -0.7617  0.5247
   41CHL1   H20 3011   1.710   2.795   7.805 -1.5085 -1.3384 -1.2017
   41CHL1   C21 3012   1.911   2.725   7.810 -0.2232  0.3752  0.0578
   41CHL1  H21A 3013   1.954   2.623   7.810 -2.1340 -0.4820 -1.3548
   41CHL1  H21B 3014   1.945   2.790   7.894 -1.0245 -0.0075  0.6869
   41CHL1  H21C 3015   1.941   2.774   7.714 -0.6015  0.0468 -0.2293
   41CHL1   C22 3016   1.719   2.639   7.939  0.3096  1.0765 -0.3428
   41CHL1  H22A 3017   1.609   2.651   7.946  0.2297  0.2843 -0.0971
   41CHL1  H22B 3018   1.728   2.528   7.935 -2.1732  0.7575  1.0244
   41CHL1   C23 3019   1.786   2.694   8.063 -0.3876  0.4472 -0.1039
   41CHL1  H23A 3020   1.892   2.661   8.064 -0.0547  1.4874  0.5623
   41CHL1  H23B 3021   1.787   2.805   8.064  1.6685  0.4619  0.0550
   41CHL1   C24 3022   1.706   2.647   8.184 -0.2130 -0.3207  0.2819
   41CHL1  H24A 3023   1.762   2.693   8.268 -0.6488  1.6641 -0.4554
   41CHL1  H24B 3024   1.605   2.694   8.186 -0.9850 -1.9021  0.7537
   41CHL1   C25 3025   1.704   2.498   8.213  0.1698  0.7362  0.4001
   41CHL1   H25 3026   1.629   2.456   8.142 -2.0415  1.0822  2.4290
   41CHL1   C26 3027   1.831   2.415   8.205 -0.1383  0.1036  0.5199
   41CHL1  H26A 3028   1.810   2.307   8.222 -1.1115  0.3126  0.7374
   41CHL1  H26B 3029   1.887   2.429   8.110 -0.0819 -0.8984  0.3934
   41CHL1  H26C 3030   1.895   2.435   8.293  1.2400 -1.2878 -0.1244
   41CHL1   C27 3031   1.658   2.468   8.359  0.0886  0.1197 -0.2978
   41CHL1  H27A 3032   1.719   2.527   8.430 -1.8395  0.1935  1.3812
   41CHL1  H27B 3033   1.549   2.485   8.364 -0.1609 -1.6628  1.4059
   41CHL1  H27C 3034   1.675   2.359   8.376  0.9366 -0.1094 -2.2738
   42CHL1    C3 3035   3.608   1.051   7.032  0.2442 -0.4427 -0.2922
   42CHL1    H3 3036   3.646   0.947   7.041 -2.0405 -1.2529  0.6462
   42CHL1    O3 3037   3.590   1.080   6.896  0.5886  0.0710  0.4832
   42CHL1   H3' 3038   3.520   1.146   6.905  1.3506  0.6024  3.3146
   42CHL1    C4 3039   3.475   1.084   7.111 -0.3294 -0.1290  0.0582
   42CHL1   H4A 3040   3.455   1.193   7.104 -0.6443 -0.2256 -0.6696
   42CHL1   H4B 3041   3.394   1.027   7.061 -0.1545 -0.8083  0.5501
   42CHL1    C5 3042   3.489   1.047   7.257 -0.4207 -0.5695 -1.0685
   42CHL1    C6 3043   3.414   0.944   7.313 -0.0998  0.1570  0.1993
   42CHL1    H6 3044   3.349   0.879   7.254  0.7545 -0.5854  0.0523
   42CHL1    C7 3045   3.427   0.897   7.453  0.0158  0.8383 -0.2987
   42CHL1   H7A 3046   3.327   0.891   7.501  0.2680  1.8519  0.3908
   42CHL1   H7B 3047   3.477   0.798   7.459 -1.2077  0.1978 -0.4702
   42CHL1    C8 3048   3.508   0.993   7.543  0.1034  0.2420 -0.6125
   42CHL1    H8 3049   3.445   1.081   7.569  3.3637  2.1347  1.5671
   42CHL1   C14 3050   3.562   0.919   7.673  0.6351  0.3291  0.3939
   42CHL1   H14 3051   3.647   0.857   7.639  0.2283  0.5410 -1.0776
   42CHL1   C15 3052   3.468   0.825   7.742 -0.0940  0.6606  0.2770
   42CHL1  H15A 3053   3.361   0.857   7.741 -0.0331  1.0796 -2.7869
   42CHL1  H15B 3054   3.471   0.728   7.688  0.7060  1.2515 -0.7940
   42CHL1   C16 3055   3.522   0.821   7.883  0.3663  0.3540 -0.1063
   42CHL1  H16A 3056   3.449   0.832   7.966  0.3243 -1.1632  0.0903
   42CHL1  H16B 3057   3.576   0.725   7.893  0.4843  0.3105 -1.0374
   42CHL1   C17 3058   3.640   0.921   7.895 -0.1979  0.0620 -0.6322
   42CHL1   H17 3059   3.730   0.857   7.879 -1.9484 -2.3187 -1.7590
   42CHL1   C13 3060   3.618   1.019   7.778 -0.0686  0.9620 -0.1238
   42CHL1   C18 3061   3.516   1.122   7.821  0.1177 -0.4852 -0.0433
   42CHL1  H18A 3062   3.552   1.185   7.905 -0.7269  0.1416 -0.1429
   42CHL1  H18B 3063   3.483   1.198   7.747 -2.0099  1.5375  2.7908
   42CHL1  H18C 3064   3.421   1.072   7.850  0.1960  0.0037  1.0942
   42CHL1   C12 3065   3.746   1.081   7.709 -0.4955 -0.1680 -0.1360
   42CHL1  H12A 3066   3.784   1.155   7.782 -1.9903 -1.6227  2.2639
   42CHL1  H12B 3067   3.827   1.004   7.712 -0.2250  0.0318 -1.4972
   42CHL1   C11 3068   3.719   1.143   7.571 -0.2951 -0.3605 -0.1471
   42CHL1  H11A 3069   3.686   1.247   7.588  0.1097 -0.1664 -0.5196
   42CHL1  H11B 3070   3.822   1.158   7.532  0.4693 -2.5574  0.8912
   42CHL1    C9 3071   3.630   1.050   7.474  0.5759 -0.1143 -0.1857
   42CHL1    H9 3072   3.691   0.958   7.459 -0.1738 -0.9901  1.7035
   42CHL1   C10 3073   3.602   1.113   7.338 -0.4539  0.4860  0.4248
   42CHL1   C19 3074   3.571   1.260   7.353 -0.0778 -0.0951  0.5552
   42CHL1  H19A 3075   3.538   1.306   7.257  2.4867  1.7837  0.4633
   42CHL1  H19B 3076   3.500   1.291   7.434  4.0036  1.5382  3.8635
   42CHL1  H19C 3077   3.659   1.326   7.368  0.4042 -0.3656 -0.9742
   42CHL1    C1 3078   3.734   1.102   7.243  0.6540 -0.1107  0.3798
   42CHL1   H1A 3079   3.824   1.150   7.287  0.1509  0.6914  0.5451
   42CHL1   H1B 3080   3.746   0.992   7.253 -0.0118 -0.1295  1.1329
   42CHL1    C2 3081   3.716   1.141   7.091  0.7332  0.2917 -0.1958
   42CHL1   H2A 3082   3.816   1.113   7.052  0.9289  0.3370  0.2691
   42CHL1   H2B 3083   3.691   1.249   7.085 -0.2094  0.1266  0.5743
   42CHL1   C20 3084   3.657   0.976   8.041 -0.0394  0.1417 -0.0573
   42CHL1   H20 3085   3.567   1.034   8.072 -0.8224 -0.5049 -1.0637
   42CHL1   C21 3086   3.783   1.072   8.064  0.2301  0.5937 -0.6206
   42CHL1  H21A 3087   3.873   1.021   8.026  0.9211 -1.2430  3.0455
   42CHL1  H21B 3088   3.800   1.084   8.173  1.7089  0.4822 -0.8203
   42CHL1  H21C 3089   3.750   1.169   8.020 -0.6054 -0.3311 -2.1497
   42CHL1   C22 3090   3.661   0.860   8.146  0.0133 -0.6492 -0.2632
   42CHL1  H22A 3091   3.675   0.905   8.246  0.3646 -0.8651 -0.2137
   42CHL1  H22B 3092   3.571   0.797   8.131 -0.0850 -0.5061 -0.2744
   42CHL1   C23 3093   3.792   0.780   8.144 -1.0239  0.4865 -0.3198
   42CHL1  H23A 3094   3.815   0.743   8.042 -0.7518 -0.6670  0.1429
   42CHL1  H23B 3095   3.870   0.851   8.178  0.0133 -1.4608  1.6799
   42CHL1   C24 3096   3.782   0.654   8.232  0.9446 -0.3730  0.6626
   42CHL1  H24A 3097   3.882   0.606   8.231  1.3866  0.3623  2.9325
   42CHL1  H24B 3098   3.751   0.684   8.334 -1.8707 -1.6687  0.2793
   42CHL1   C25 3099   3.688   0.540   8.183  0.3322  0.4057 -0.1373
   42CHL1   H25 3100   3.589   0.584   8.160  0.1071  0.7907  1.4603
   42CHL1   C26 3101   3.758   0.463   8.065 -0.3291 -0.8301 -0.1124
   42CHL1  H26A 3102   3.696   0.378   8.028 -1.3436  0.4791 -1.5543
   42CHL1  H26B 3103   3.786   0.527   7.978  1.0024 -0.4307  0.5913
   42CHL1  H26C 3104   3.860   0.437   8.098 -0.7193 -1.5083  0.5883
   42CHL1   C27 3105   3.669   0.445   8.298  0.5957 -0.8314  0.1763
   42CHL1  H27A 3106   3.768   0.415   8.341  0.8486  1.1519  1.0691
   42CHL1  H27B 3107   3.616   0.350   8.276 -0.1858 -0.4825  0.5231
   42CHL1  H27C 3108   3.626   0.498   8.385  2.0011 -0.3807  0.6356
   43CHL1    C3 3109   3.715   6.046   7.014 -0.2138 -0.6614  0.2138
   43CHL1    H3 3110   3.650   6.118   6.960 -3.2208 -2.8115  0.7271
   43CHL1    O3 3111   3.780   5.974   6.904  0.4804 -0.4197 -0.1412
   43CHL1   H3' 3112   3.710   5.934   6.852  1.9463 -3.4460  0.0469
   43CHL1    C4 3113   3.829   6.123   7.091  0.3984  0.1009  0.5511
   43CHL1   H4A 3114   3.914   6.059   7.124  2.0187  2.8817  2.1432
   43CHL1   H4B 3115   3.874   6.179   7.005 -0.0938 -3.7692 -2.5372
   43CHL1    C5 3116   3.769   6.188   7.211 -0.3866 -0.2479  0.0205
   43CHL1    C6 3117   3.785   6.324   7.223  1.3497  0.3423  0.6366
   43CHL1    H6 3118   3.852   6.373   7.150 -0.8725 -1.0638 -2.5722
   43CHL1    C7 3119   3.725   6.405   7.337  0.0826  0.3122  0.2105
   43CHL1   H7A 3120   3.797   6.479   7.378 -0.7289  0.4652  1.4154
   43CHL1   H7B 3121   3.647   6.469   7.291 -0.2893 -0.0234  0.3666
   43CHL1    C8 3122   3.660   6.321   7.445 -0.4489  0.1935 -0.3210
   43CHL1    H8 3123   3.746   6.285   7.505 -1.3608  0.1178  0.9695
   43CHL1   C14 3124   3.582   6.407   7.538 -0.1589 -0.5092 -0.8128
   43CHL1   H14 3125   3.488   6.437   7.487 -1.2026 -1.2135  0.6429
   43CHL1   C15 3126   3.648   6.527   7.593  0.0741 -0.8162 -0.3377
   43CHL1  H15A 3127   3.750   6.497   7.624  0.0003  0.2327  1.0004
   43CHL1  H15B 3128   3.662   6.602   7.512 -1.6751 -1.1650 -1.0149
   43CHL1   C16 3129   3.563   6.572   7.711  0.9666  0.5250 -0.9038
   43CHL1  H16A 3130   3.637   6.594   7.791  0.0614 -1.3547  0.5237
   43CHL1  H16B 3131   3.501   6.664   7.702  0.1881 -0.0634 -1.6810
   43CHL1   C17 3132   3.456   6.455   7.736 -0.0769  0.1800  0.0125
   43CHL1   H17 3133   3.363   6.482   7.681  0.3815  1.3957 -0.1950
   43CHL1   C13 3134   3.521   6.332   7.658  0.4718  0.2727  0.4244
   43CHL1   C18 3135   3.637   6.268   7.744  0.2993  0.3092  0.0673
   43CHL1  H18A 3136   3.701   6.346   7.792  0.0355  1.1565 -0.9350
   43CHL1  H18B 3137   3.589   6.222   7.833 -1.2695  1.8987  0.1020
   43CHL1  H18C 3138   3.710   6.197   7.700 -1.2650 -1.0152 -0.4805
   43CHL1   C12 3139   3.420   6.233   7.591 -0.2335 -0.0183  0.3476
   43CHL1  H12A 3140   3.375   6.164   7.665 -2.4922 -0.7212 -1.5557
   43CHL1  H12B 3141   3.349   6.299   7.537  0.3079  0.4322  0.1735
   43CHL1   C11 3142   3.496   6.136   7.499  0.3921  0.1478 -1.0003
   43CHL1  H11A 3143   3.559   6.069   7.562 -2.3734 -1.7878 -0.1495
   43CHL1  H11B 3144   3.425   6.060   7.460  1.3956 -1.7570  0.7063
   43CHL1    C9 3145   3.577   6.212   7.390 -0.1839 -0.5167 -0.1265
   43CHL1    H9 3146   3.510   6.261   7.317  1.1501  0.8116 -0.5100
   43CHL1   C10 3147   3.667   6.114   7.303  0.4469  0.0014  0.6212
   43CHL1   C19 3148   3.758   6.027   7.395  0.2523  1.0923 -0.4407
   43CHL1  H19A 3149   3.694   5.962   7.458  1.0026 -0.7187 -1.4675
   43CHL1  H19B 3150   3.823   5.965   7.330 -1.9584  1.0627 -2.7386
   43CHL1  H19C 3151   3.826   6.082   7.465 -0.1504  0.8361  0.1608
   43CHL1    C1 3152   3.565   6.026   7.213  0.0166 -0.9687  0.7385
   43CHL1   H1A 3153   3.517   5.954   7.282 -0.1194 -1.0734  0.5332
   43CHL1   H1B 3154   3.487   6.095   7.175  0.8949  0.7433  1.8811
   43CHL1    C2 3155   3.627   5.957   7.090 -0.1040  0.1790  0.8515
   43CHL1   H2A 3156   3.544   5.921   7.025 -2.0709  4.4177  0.6933
   43CHL1   H2B 3157   3.681   5.862   7.114 -1.3172 -1.2043 -1.4650
   43CHL1   C20 3158   3.409   6.440   7.880  0.4533  0.2611  0.6011
   43CHL1   H20 3159   3.493   6.392   7.934  0.8037  1.5255  1.2432
   43CHL1   C21 3160   3.283   6.342   7.892 -0.5120 -0.2374 -0.1112
   43CHL1  H21A 3161   3.297   6.241   7.849  0.0299 -0.3141  0.2375
   43CHL1  H21B 3162   3.195   6.381   7.838 -0.2533  0.7191  0.1453
   43CHL1  H21C 3163   3.251   6.327   7.997 -1.1770  0.3514 -0.2246
   43CHL1   C22 3164   3.379   6.570   7.955  0.3481 -0.4380  0.1856
   43CHL1  H22A 3165   3.470   6.634   7.949  0.4787 -0.6174  0.2616
   43CHL1  H22B 3166   3.294   6.617   7.901  0.5024  1.1697  1.2838
   43CHL1   C23 3167   3.340   6.542   8.103 -0.4659  0.3016 -0.2152
   43CHL1  H23A 3168   3.241   6.493   8.118  0.1766 -0.8589  0.3505
   43CHL1  H23B 3169   3.411   6.466   8.141  0.8727  0.9545 -1.3425
   43CHL1   C24 3170   3.360   6.675   8.184 -0.1521  0.2475  0.5437
   43CHL1  H24A 3171   3.468   6.700   8.176 -0.3487  1.0658  0.3439
   43CHL1  H24B 3172   3.307   6.755   8.128  0.7637 -0.5027 -1.4883
   43CHL1   C25 3173   3.309   6.678   8.337 -0.4218 -0.3028  0.3483
   43CHL1   H25 3174   3.367   6.600   8.390 -0.2002  0.0275  0.5905
   43CHL1   C26 3175   3.345   6.811   8.409 -0.6961  0.0020  1.1639
   43CHL1  H26A 3176   3.286   6.894   8.365 -0.3807 -1.0175 -1.3680
   43CHL1  H26B 3177   3.327   6.796   8.518  0.4722 -0.4292  1.3144
   43CHL1  H26C 3178   3.454   6.826   8.391 -0.2298 -2.7045  1.2751
   43CHL1   C27 3179   3.160   6.650   8.348  0.2864  0.1814  0.3431
   43CHL1  H27A 3180   3.117   6.667   8.449 -1.4564  2.4160 -0.6994
   43CHL1  H27B 3181   3.093   6.700   8.275 -0.4045 -0.4505  0.5295
   43CHL1  H27C 3182   3.152   6.541   8.330  1.0095 -0.0246  1.1704
   44CHL1    C3 3183   2.200   4.598   6.759 -0.6952  0.1265 -0.7464
   44CHL1    H3 3184   2.146   4.501   6.751  2.0684 -1.6029  0.1196
   44CHL1    O3 3185   2.223   4.635   6.626 -0.2290  0.5174  0.5788
   44CHL1   H3' 3186   2.257   4.724   6.637 -0.3070  0.4055  1.7627
   44CHL1    C4 3187   2.129   4.722   6.817 -0.0709  0.1374 -0.3755
   44CHL1   H4A 3188   2.186   4.814   6.795  2.0390 -0.3570  2.4549
   44CHL1   H4B 3189   2.030   4.741   6.771 -0.2305 -1.3441 -0.7157
   44CHL1    C5 3190   2.102   4.715   6.966  0.0328  0.6017  0.3718
   44CHL1    C6 3191   1.983   4.728   7.030 -0.5590 -0.1255  0.0717
   44CHL1    H6 3192   1.887   4.751   6.981 -1.0722  1.4599  1.7153
   44CHL1    C7 3193   1.956   4.724   7.181  0.2374  0.0751 -0.2443
   44CHL1   H7A 3194   1.896   4.813   7.210  2.8593  1.1373  2.5107
   44CHL1   H7B 3195   1.910   4.628   7.211  1.9299 -0.0170  2.3754
   44CHL1    C8 3196   2.097   4.735   7.257  0.4572 -0.0459 -0.1963
   44CHL1    H8 3197   2.142   4.836   7.247 -0.4472  0.3045 -0.7634
   44CHL1   C14 3198   2.085   4.698   7.404 -0.0873 -0.4241 -0.1199
   44CHL1   H14 3199   2.061   4.590   7.392 -0.8697 -0.5408  2.0793
   44CHL1   C15 3200   1.963   4.764   7.478 -0.0277  0.0270  0.8993
   44CHL1  H15A 3201   1.944   4.864   7.434 -2.3836 -1.2001 -1.1128
   44CHL1  H15B 3202   1.865   4.711   7.480 -1.1119  1.8109 -1.1925
   44CHL1   C16 3203   2.015   4.763   7.623 -0.0762  1.0332 -0.4038
   44CHL1  H16A 3204   2.031   4.867   7.660 -0.0114  0.4893  1.1546
   44CHL1  H16B 3205   1.937   4.716   7.686 -1.5878  3.3946 -0.3601
   44CHL1   C17 3206   2.148   4.686   7.625  0.1869 -0.0070  0.3192
   44CHL1   H17 3207   2.120   4.578   7.627  1.1928 -0.3372 -1.1852
   44CHL1   C13 3208   2.207   4.714   7.487 -0.5813  0.7690  0.7690
   44CHL1   C18 3209   2.276   4.861   7.485  0.5257 -0.2986 -0.2616
   44CHL1  H18A 3210   2.325   4.883   7.388  0.5273 -3.0003 -0.9417
   44CHL1  H18B 3211   2.200   4.931   7.526 -1.9151 -3.2903  0.6994
   44CHL1  H18C 3212   2.355   4.848   7.562 -1.8079  1.0397  2.6005
   44CHL1   C12 3213   2.309   4.611   7.430  0.0832  0.4800 -0.1240
   44CHL1  H12A 3214   2.410   4.616   7.476  1.0636  1.4737 -2.2854
   44CHL1  H12B 3215   2.270   4.507   7.440 -2.5154  1.3452 -0.6482
   44CHL1   C11 3216   2.329   4.627   7.276  0.0894 -0.5736  0.1337
   44CHL1  H11A 3217   2.388   4.721   7.271 -1.6217  0.5297 -0.2162
   44CHL1  H11B 3218   2.400   4.547   7.248  1.9195  0.9643  0.1474
   44CHL1    C9 3219   2.200   4.638   7.189 -1.0355 -0.4775 -0.0005
   44CHL1    H9 3220   2.156   4.537   7.195 -4.2516  0.8042 -0.1342
   44CHL1   C10 3221   2.231   4.678   7.046  0.1623  0.0333 -0.1798
   44CHL1   C19 3222   2.329   4.796   7.044 -0.6812 -0.4849  0.4044
   44CHL1  H19A 3223   2.305   4.879   7.115  0.0213 -0.4612  0.6215
   44CHL1  H19B 3224   2.433   4.771   7.074 -0.6682  1.0977  1.8699
   44CHL1  H19C 3225   2.333   4.844   6.944 -1.4062 -0.5573  0.3362
   44CHL1    C1 3226   2.303   4.548   6.972 -0.1709 -0.9636  0.0510
   44CHL1   H1A 3227   2.397   4.536   7.029  0.8443 -0.6177 -1.4945
   44CHL1   H1B 3228   2.249   4.455   6.999  0.7859 -1.4734  0.2299
   44CHL1    C2 3229   2.329   4.560   6.821  0.4672  0.1448 -0.2024
   44CHL1   H2A 3230   2.366   4.465   6.778 -2.3218 -0.6382 -1.0902
   44CHL1   H2B 3231   2.400   4.645   6.813  0.3723  0.1387 -1.1336
   44CHL1   C20 3232   2.228   4.719   7.747 -0.6393  0.5081 -0.7853
   44CHL1   H20 3233   2.268   4.822   7.733  1.9576 -0.5395 -1.6671
   44CHL1   C21 3234   2.349   4.616   7.760 -0.1664 -0.4891  0.6046
   44CHL1  H21A 3235   2.414   4.653   7.842  0.3527  2.0715 -0.8375
   44CHL1  H21B 3236   2.416   4.634   7.673 -1.3484  0.0444 -0.2430
   44CHL1  H21C 3237   2.319   4.510   7.772 -0.1052 -0.8515 -1.8198
   44CHL1   C22 3238   2.149   4.709   7.883 -0.9858 -0.3233  0.4864
   44CHL1  H22A 3239   2.074   4.790   7.871  1.0251  1.4727 -0.8219
   44CHL1  H22B 3240   2.108   4.606   7.891 -0.7182 -0.8010 -2.9560
   44CHL1   C23 3241   2.233   4.742   8.011  0.3960  0.5792 -0.0997
   44CHL1  H23A 3242   2.308   4.661   8.024 -0.1328  0.4060  2.2557
   44CHL1  H23B 3243   2.281   4.840   7.992  2.3851 -0.4588 -0.6534
   44CHL1   C24 3244   2.138   4.752   8.130 -0.6912  0.3860  0.7481
   44CHL1  H24A 3245   2.070   4.839   8.126 -2.8584 -1.2267  0.8723
   44CHL1  H24B 3246   2.084   4.655   8.131  0.4972 -0.2996  0.8879
   44CHL1   C25 3247   2.216   4.751   8.258  0.4154 -0.1396 -0.0662
   44CHL1   H25 3248   2.281   4.661   8.259  0.1444 -0.3301  0.9987
   44CHL1   C26 3249   2.291   4.884   8.279  0.0989 -0.4828 -0.3877
   44CHL1  H26A 3250   2.369   4.888   8.358  0.3643 -0.3338 -0.6539
   44CHL1  H26B 3251   2.339   4.917   8.184  0.9319  2.1114  0.8330
   44CHL1  H26C 3252   2.213   4.962   8.291  0.8393  1.0197 -3.8887
   44CHL1   C27 3253   2.125   4.737   8.383  0.0590 -0.1004 -0.0291
   44CHL1  H27A 3254   2.065   4.830   8.381  0.2925  0.0318 -1.4232
   44CHL1  H27B 3255   2.052   4.653   8.378 -1.7222  1.0607  3.3132
   44CHL1  H27C 3256   2.184   4.721   8.476  2.2030 -1.4532 -1.5282
   45CHL1    C3 3257   3.765   2.842   6.617  0.4323  0.2842  0.3056
   45CHL1    H3 3258   3.774   2.953   6.615  4.6903  0.1153  1.1693
   45CHL1    O3 3259   3.752   2.794   6.481 -0.0291 -0.2045 -0.2341
   45CHL1   H3' 3260   3.840   2.776   6.446 -0.3594  0.1710 -1.2969
   45CHL1    C4 3261   3.891   2.782   6.688  0.4132 -0.1533  0.0765
   45CHL1   H4A 3262   3.898   2.683   6.639 -0.3859 -0.0830 -0.1850
   45CHL1   H4B 3263   3.983   2.833   6.650 -0.4782  0.3746 -1.4463
   45CHL1    C5 3264   3.882   2.771   6.843 -0.1231  0.9136  0.4890
   45CHL1    C6 3265   3.986   2.800   6.927 -0.8094 -0.8204 -0.6930
   45CHL1    H6 3266   4.088   2.818   6.890 -1.2468 -1.7470 -2.4605
   45CHL1    C7 3267   3.988   2.768   7.077 -0.1128 -0.1003 -0.2258
   45CHL1   H7A 3268   4.077   2.710   7.108  0.0200  0.8246  1.2095
   45CHL1   H7B 3269   3.997   2.863   7.133 -0.2773 -0.3155  0.1700
   45CHL1    C8 3270   3.859   2.687   7.121 -0.2531  0.0897 -0.2566
   45CHL1    H8 3271   3.880   2.580   7.101 -2.0208 -0.0371 -1.6061
   45CHL1   C14 3272   3.850   2.710   7.268  0.5903 -0.5043 -1.0956
   45CHL1   H14 3273   3.830   2.816   7.294 -0.4642 -0.8145 -0.5720
   45CHL1   C15 3274   3.965   2.668   7.363 -0.3652 -0.4155 -0.7188
   45CHL1  H15A 3275   4.011   2.574   7.325  0.5280 -0.7674  1.1163
   45CHL1  H15B 3276   4.048   2.743   7.365 -1.7743  1.2956  2.9194
   45CHL1   C16 3277   3.906   2.647   7.500 -0.2270  0.3254 -0.0213
   45CHL1  H16A 3278   3.931   2.540   7.515  0.3001  0.6192  1.3052
   45CHL1  H16B 3279   3.959   2.707   7.577  2.4266 -0.8160 -0.8279
   45CHL1   C17 3280   3.756   2.673   7.483  0.4053  0.0511 -0.3691
   45CHL1   H17 3281   3.745   2.783   7.493 -1.0355 -0.1410  0.3611
   45CHL1   C13 3282   3.726   2.646   7.333  0.6868  0.4015 -0.6166
   45CHL1   C18 3283   3.720   2.492   7.307  0.2647 -0.1297  1.0216
   45CHL1  H18A 3284   3.732   2.457   7.202 -0.3149 -0.3358  1.0167
   45CHL1  H18B 3285   3.794   2.430   7.360  0.3264 -1.6082 -0.6928
   45CHL1  H18C 3286   3.616   2.459   7.327  0.1481  0.6046  1.6619
   45CHL1   C12 3287   3.604   2.709   7.265 -0.0773  1.0240 -0.1283
   45CHL1  H12A 3288   3.516   2.654   7.304  0.1688  1.1627  0.6463
   45CHL1  H12B 3289   3.594   2.813   7.303 -0.2197  1.2072 -0.6622
   45CHL1   C11 3290   3.605   2.698   7.112 -0.2730  0.0117  0.1811
   45CHL1  H11A 3291   3.585   2.590   7.090  0.4870 -0.3015  0.9967
   45CHL1  H11B 3292   3.525   2.763   7.071  0.8282  2.4491  1.6639
   45CHL1    C9 3293   3.733   2.743   7.049  0.6945 -0.2942  0.0499
   45CHL1    H9 3294   3.741   2.852   7.069  0.4627 -0.3978  0.7338
   45CHL1   C10 3295   3.744   2.725   6.893  0.0947  0.0086  0.4432
   45CHL1   C19 3296   3.722   2.577   6.853 -0.1737  0.1294  0.2259
   45CHL1  H19A 3297   3.723   2.564   6.743 -1.7939 -0.2564  0.2344
   45CHL1  H19B 3298   3.780   2.498   6.906  1.5650 -0.4811 -2.4132
   45CHL1  H19C 3299   3.614   2.554   6.868 -0.1591 -1.3626 -1.6412
   45CHL1    C1 3300   3.634   2.823   6.834 -0.3334 -0.0761  0.0911
   45CHL1   H1A 3301   3.531   2.802   6.871 -1.6668  1.7187 -2.2938
   45CHL1   H1B 3302   3.662   2.928   6.856  0.1428  0.3055 -2.0805
   45CHL1    C2 3303   3.632   2.810   6.682  0.0985 -0.0056 -0.6401
   45CHL1   H2A 3304   3.558   2.876   6.633  0.2107 -0.2790 -1.1870
   45CHL1   H2B 3305   3.604   2.706   6.653  2.0258 -0.1977 -2.0479
   45CHL1   C20 3306   3.668   2.601   7.589  0.4796  0.4485 -0.0468
   45CHL1   H20 3307   3.651   2.496   7.554 -0.0568 -0.1079  1.7931
   45CHL1   C21 3308   3.534   2.679   7.596 -0.1751  0.2598 -0.2222
   45CHL1  H21A 3309   3.496   2.705   7.495  1.1702 -3.3540 -1.8208
   45CHL1  H21B 3310   3.542   2.765   7.667 -2.3953 -1.3608  2.1911
   45CHL1  H21C 3311   3.451   2.620   7.641  3.7124 -3.8578  2.4390
   45CHL1   C22 3312   3.737   2.592   7.728  0.1244 -0.3547 -0.0344
   45CHL1  H22A 3313   3.830   2.531   7.732 -0.2435 -0.9696 -0.6009
   45CHL1  H22B 3314   3.765   2.694   7.762  2.6575 -0.5285 -1.3278
   45CHL1   C23 3315   3.638   2.532   7.829 -0.5837  0.4142 -0.8596
   45CHL1  H23A 3316   3.553   2.602   7.846 -0.7906  0.0629 -0.4490
   45CHL1  H23B 3317   3.588   2.444   7.784 -0.3046 -1.2373  1.8736
   45CHL1   C24 3318   3.691   2.499   7.969 -0.0549  0.2527 -0.1838
   45CHL1  H24A 3319   3.732   2.397   7.986  0.4586  0.6504  1.1284
   45CHL1  H24B 3320   3.785   2.556   7.987  1.1990 -1.0036 -2.4693
   45CHL1   C25 3321   3.585   2.511   8.087 -0.4750  0.3969  1.2438
   45CHL1   H25 3322   3.631   2.470   8.179 -2.0442 -2.2548  0.9325
   45CHL1   C26 3323   3.542   2.658   8.117 -0.3767  0.9053  0.6003
   45CHL1  H26A 3324   3.538   2.710   8.019  1.0106  1.4993  0.8385
   45CHL1  H26B 3325   3.434   2.656   8.142 -0.3180  0.5033  0.8327
   45CHL1  H26C 3326   3.599   2.720   8.189 -0.9581  0.3828  1.5316
   45CHL1   C27 3327   3.457   2.439   8.057  0.3063 -0.1311  0.9727
   45CHL1  H27A 3328   3.472   2.330   8.044 -0.7568 -0.1097 -0.8001
   45CHL1  H27B 3329   3.374   2.463   8.127 -0.3208  0.5811  0.0216
   45CHL1  H27C 3330   3.412   2.472   7.960 -2.6686  0.5784  2.4735
   46CHL1    C3 3331   2.852   2.532   6.885 -0.6894  0.2394  0.2250
   46CHL1    H3 3332   2.837   2.641   6.902 -1.9779  0.3910 -1.5766
   46CHL1    O3 3333   2.838   2.511   6.748  0.0258 -1.1885  0.2287
   46CHL1   H3' 3334   2.842   2.416   6.732 -0.7073 -0.9775 -1.5060
   46CHL1    C4 3335   2.990   2.488   6.943 -0.1280 -0.5093 -0.3094
   46CHL1   H4A 3336   3.006   2.378   6.934 -2.4041 -1.0262  1.0530
   46CHL1   H4B 3337   3.066   2.546   6.888  1.2076 -1.5238  0.3925
   46CHL1    C5 3338   2.998   2.510   7.097  0.6413  0.3260 -0.2179
   46CHL1    C6 3339   3.088   2.593   7.147 -0.1072  0.7172  0.0304
   46CHL1    H6 3340   3.162   2.637   7.078  0.1062  1.3953  0.6695
   46CHL1    C7 3341   3.090   2.636   7.293 -0.3143 -0.0858  0.4377
   46CHL1   H7A 3342   3.194   2.649   7.328 -0.4250  0.0622  0.7215
   46CHL1   H7B 3343   3.013   2.714   7.314  0.0238  1.0013 -2.0428
   46CHL1    C8 3344   3.027   2.512   7.373 -0.4216  0.3255  0.4168
   46CHL1    H8 3345   3.089   2.421   7.362 -0.4981  0.4137 -0.9780
   46CHL1   C14 3346   3.017   2.554   7.516 -0.4480  0.0966  1.0186
   46CHL1   H14 3347   2.946   2.639   7.517  0.4878  0.8959  1.0391
   46CHL1   C15 3348   3.145   2.606   7.583  0.5809 -0.1205  0.8560
   46CHL1  H15A 3349   3.234   2.549   7.551 -1.2055 -2.2434 -0.6714
   46CHL1  H15B 3350   3.154   2.713   7.555 -0.1254 -0.3213 -0.2210
   46CHL1   C16 3351   3.115   2.596   7.734 -0.2068  0.0862 -0.1678
   46CHL1  H16A 3352   3.197   2.532   7.771 -0.2528 -0.4692 -0.9929
   46CHL1  H16B 3353   3.115   2.695   7.784  0.8249 -0.6054  1.2699
   46CHL1   C17 3354   2.982   2.520   7.745 -0.1766 -0.1509 -0.8391
   46CHL1   H17 3355   2.902   2.597   7.749  0.4236  0.4539  2.8994
   46CHL1   C13 3356   2.965   2.447   7.616 -0.0404 -0.7881  0.6347
   46CHL1   C18 3357   3.062   2.317   7.621 -0.2774 -0.0888 -0.6735
   46CHL1  H18A 3358   3.150   2.342   7.684 -1.6476  0.5500  1.0917
   46CHL1  H18B 3359   3.011   2.233   7.672 -1.1280 -0.3940 -1.9871
   46CHL1  H18C 3360   3.091   2.280   7.520  1.0786 -0.2431 -0.2456
   46CHL1   C12 3361   2.819   2.414   7.569  0.8340  0.0849 -0.3220
   46CHL1  H12A 3362   2.787   2.326   7.629  0.5231  0.8757  0.7216
   46CHL1  H12B 3363   2.745   2.494   7.592 -0.3633 -0.1741 -2.9798
   46CHL1   C11 3364   2.811   2.382   7.421  0.3636  0.1470  0.5118
   46CHL1  H11A 3365   2.865   2.285   7.413 -0.5744 -0.3853  0.5598
   46CHL1  H11B 3366   2.705   2.357   7.403  0.0254  2.7657 -1.9468
   46CHL1    C9 3367   2.883   2.475   7.318 -0.1037  0.2702 -0.0483
   46CHL1    H9 3368   2.830   2.572   7.322  0.0522  0.3272  1.2941
   46CHL1   C10 3369   2.886   2.435   7.171  0.0438 -0.8884 -0.7694
   46CHL1   C19 3370   2.927   2.288   7.156 -0.0466 -0.3395 -0.4569
   46CHL1  H19A 3371   3.026   2.277   7.204 -1.0065  1.0474  2.0498
   46CHL1  H19B 3372   2.847   2.226   7.203 -1.0541  2.0903  1.2557
   46CHL1  H19C 3373   2.944   2.252   7.052  2.3171  0.1826 -0.2864
   46CHL1    C1 3374   2.742   2.467   7.112  0.6213 -0.5526  0.2222
   46CHL1   H1A 3375   2.658   2.408   7.155 -0.5818  0.0159 -1.2469
   46CHL1   H1B 3376   2.716   2.571   7.140 -2.4985 -1.3035  0.5085
   46CHL1    C2 3377   2.737   2.455   6.957 -0.4345 -0.5317 -0.2641
   46CHL1   H2A 3378   2.633   2.478   6.925 -0.4108 -0.9332 -0.6449
   46CHL1   H2B 3379   2.750   2.347   6.934 -2.2600 -1.0429  0.9549
   46CHL1   C20 3380   2.972   2.458   7.882  0.7943  0.2354 -0.6885
   46CHL1   H20 3381   3.035   2.367   7.889  0.0455 -0.1897  1.3412
   46CHL1   C21 3382   2.820   2.407   7.898 -0.6977 -0.1934 -0.2614
   46CHL1  H21A 3383   2.810   2.370   8.003  2.0123  2.3094  1.0306
   46CHL1  H21B 3384   2.792   2.330   7.823 -1.6428 -2.3985  2.1621
   46CHL1  H21C 3385   2.756   2.495   7.878  1.3276  1.1388 -1.1984
   46CHL1   C22 3386   3.004   2.549   8.007 -0.7653  1.2330 -0.2711
   46CHL1  H22A 3387   3.075   2.633   7.989 -0.8695  1.2354 -0.6829
   46CHL1  H22B 3388   2.911   2.597   8.044 -1.6755  1.1103 -2.2569
   46CHL1   C23 3389   3.066   2.455   8.128 -0.1566 -0.2981  0.0638
   46CHL1  H23A 3390   2.991   2.376   8.150 -0.6602  0.2136  0.2049
   46CHL1  H23B 3391   3.159   2.409   8.089  0.4245  1.8666 -1.3189
   46CHL1   C24 3392   3.122   2.527   8.256 -0.2123  0.6018  0.2974
   46CHL1  H24A 3393   3.220   2.573   8.231  0.1358 -0.1922  0.1934
   46CHL1  H24B 3394   3.055   2.604   8.301 -0.0868  1.1289 -0.3920
   46CHL1   C25 3395   3.146   2.419   8.363  0.7830 -0.3817  0.2340
   46CHL1   H25 3396   3.196   2.336   8.309  2.5505 -0.6507  2.1755
   46CHL1   C26 3397   3.252   2.468   8.459  0.0541 -0.1827 -0.2798
   46CHL1  H26A 3398   3.353   2.475   8.413  1.1568 -2.4029  1.5994
   46CHL1  H26B 3399   3.222   2.566   8.501 -0.7115  0.0454 -1.3237
   46CHL1  H26C 3400   3.272   2.386   8.531  2.6713 -1.1452 -1.9358
   46CHL1   C27 3401   3.029   2.370   8.439 -0.2374  0.2727 -0.2680
   46CHL1  H27A 3402   2.990   2.446   8.511 -0.2900  0.7109 -0.7551
   46CHL1  H27B 3403   2.950   2.329   8.373  0.3546 -0.0167 -0.8043
   46CHL1  H27C 3404   3.061   2.278   8.491  0.7634 -0.2495 -1.7791
   47CHL1    C3 3405   1.467   2.770   6.631  0.2385  0.8136  0.0161
   47CHL1    H3 3406   1.441   2.666   6.662 -1.2894  0.9883 -0.5960
   47CHL1    O3 3407   1.505   2.749   6.499  0.1599 -0.0534  0.0701
   47CHL1   H3' 3408   1.489   2.839   6.469 -2.3921 -1.2246 -2.5576
   47CHL1    C4 3409   1.343   2.859   6.642 -0.1992 -0.4403  0.6117
   47CHL1   H4A 3410   1.377   2.959   6.605  0.8264 -0.8008  0.5493
   47CHL1   H4B 3411   1.253   2.812   6.598 -0.1934 -0.6096  0.7815
   47CHL1    C5 3412   1.315   2.887   6.792  0.2833  0.6334  0.1629
   47CHL1    C6 3413   1.187   2.868   6.833 -0.8587 -0.3793 -0.2620
   47CHL1    H6 3414   1.107   2.845   6.762 -3.0919 -1.1164  2.3483
   47CHL1    C7 3415   1.138   2.894   6.974 -0.0279 -0.1354  0.0157
   47CHL1   H7A 3416   1.051   2.963   6.964  0.0861 -0.0292 -0.2642
   47CHL1   H7B 3417   1.107   2.797   7.018  1.2896 -0.1830  0.8846
   47CHL1    C8 3418   1.245   2.958   7.065 -0.1075  0.0704 -0.1939
   47CHL1    H8 3419   1.242   3.068   7.048 -0.1801  0.7624  3.4290
   47CHL1   C14 3420   1.225   2.943   7.216 -0.6033  0.0020 -0.0938
   47CHL1   H14 3421   1.236   2.833   7.221 -1.9659 -0.2026 -0.9687
   47CHL1   C15 3422   1.085   2.976   7.268  0.0712 -0.0874 -0.8725
   47CHL1  H15A 3423   1.072   3.084   7.244  0.7880  0.2518  0.1993
   47CHL1  H15B 3424   1.014   2.899   7.233  0.3729 -1.9340  2.1964
   47CHL1   C16 3425   1.107   2.964   7.423  0.2920 -0.4664  0.5714
   47CHL1  H16A 3426   1.068   3.054   7.475 -0.6408 -0.9817  0.7734
   47CHL1  H16B 3427   1.063   2.866   7.451 -1.1172  0.1172  0.4581
   47CHL1   C17 3428   1.265   2.959   7.450 -0.7027  0.2590  0.1815
   47CHL1   H17 3429   1.294   2.854   7.471 -0.2926  0.2107 -0.5766
   47CHL1   C13 3430   1.324   3.009   7.316 -0.5910  0.2048 -0.3045
   47CHL1   C18 3431   1.319   3.156   7.302 -0.0141  0.2517  0.1137
   47CHL1  H18A 3432   1.334   3.186   7.196 -2.2918  0.3230 -0.2200
   47CHL1  H18B 3433   1.226   3.206   7.336 -0.6096 -0.0368 -1.0771
   47CHL1  H18C 3434   1.396   3.208   7.364  0.3966 -0.1401 -0.0577
   47CHL1   C12 3435   1.460   2.948   7.286 -0.3297 -0.4540  0.6618
   47CHL1  H12A 3436   1.532   2.997   7.354 -1.0669 -0.1962  1.2702
   47CHL1  H12B 3437   1.454   2.839   7.305  0.1145 -0.5925  0.0407
   47CHL1   C11 3438   1.493   2.963   7.134 -0.3441 -0.7487 -0.1881
   47CHL1  H11A 3439   1.533   3.064   7.113 -2.0441 -0.5098 -2.7004
   47CHL1  H11B 3440   1.582   2.897   7.123 -0.6055 -1.3385  1.0738
   47CHL1    C9 3441   1.384   2.901   7.036  0.1903  0.2283  0.0784
   47CHL1    H9 3442   1.379   2.792   7.058 -2.4997  0.1210 -0.6575
   47CHL1   C10 3443   1.432   2.929   6.886 -0.1433  0.1151 -0.2320
   47CHL1   C19 3444   1.466   3.074   6.860 -0.4572 -0.1144  0.5502
   47CHL1  H19A 3445   1.386   3.146   6.886 -0.1533  0.5107 -0.1793
   47CHL1  H19B 3446   1.551   3.104   6.926  0.3802 -0.5939 -0.2938
   47CHL1  H19C 3447   1.494   3.088   6.754  3.0735  0.8131  1.4600
   47CHL1    C1 3448   1.557   2.842   6.851 -0.4928 -0.4143  0.3518
   47CHL1   H1A 3449   1.640   2.890   6.907 -0.0984 -0.5378 -0.1227
   47CHL1   H1B 3450   1.541   2.738   6.886 -1.1265 -0.3668  0.2114
   47CHL1    C2 3451   1.593   2.827   6.705 -0.0612 -0.0581  0.2824
   47CHL1   H2A 3452   1.682   2.762   6.692  0.1141  0.0669  0.8603
   47CHL1   H2B 3453   1.619   2.924   6.658 -0.4137  0.1407  0.4916
   47CHL1   C20 3454   1.313   3.030   7.588  0.4191  0.5386  0.5624
   47CHL1   H20 3455   1.272   3.133   7.591 -0.0145  0.4044 -0.5083
   47CHL1   C21 3456   1.468   3.038   7.599  0.4352  0.0711  0.5649
   47CHL1  H21A 3457   1.500   2.939   7.561 -0.3405  0.8504 -2.3595
   47CHL1  H21B 3458   1.507   3.051   7.703  1.6952  1.6243 -0.0498
   47CHL1  H21C 3459   1.493   3.119   7.526  1.6374 -0.3330  0.4997
   47CHL1   C22 3460   1.249   2.951   7.716  0.5125 -0.9912 -0.3782
   47CHL1  H22A 3461   1.140   2.933   7.699  0.0048  1.2107  0.3033
   47CHL1  H22B 3462   1.304   2.854   7.710  1.8694 -0.2178 -0.7519
   47CHL1   C23 3463   1.267   3.029   7.846  0.0101  0.3526  0.0642
   47CHL1  H23A 3464   1.368   3.075   7.855 -0.0426  0.2804  1.1865
   47CHL1  H23B 3465   1.192   3.110   7.843  1.5897  1.8775 -3.4192
   47CHL1   C24 3466   1.248   2.940   7.972 -0.7340 -0.0404 -0.0151
   47CHL1  H24A 3467   1.143   2.912   7.990 -0.6463 -0.9342 -0.8261
   47CHL1  H24B 3468   1.305   2.845   7.961 -1.2808 -0.2745 -0.8770
   47CHL1   C25 3469   1.304   3.008   8.100  0.0633  0.2785  0.6250
   47CHL1   H25 3470   1.406   3.047   8.080  0.0574 -0.2289 -0.4374
   47CHL1   C26 3471   1.224   3.139   8.134  0.4933  0.3798 -0.3636
   47CHL1  H26A 3472   1.218   3.212   8.051 -0.5280  1.0225  0.2494
   47CHL1  H26B 3473   1.122   3.111   8.168  0.1843  1.3565 -0.4810
   47CHL1  H26C 3474   1.274   3.186   8.222 -2.2546 -0.8232  2.0133
   47CHL1   C27 3475   1.307   2.901   8.212 -0.1624 -0.2255  0.1754
   47CHL1  H27A 3476   1.203   2.867   8.233 -0.4879  0.3827 -0.3653
   47CHL1  H27B 3477   1.366   2.813   8.178 -1.8477 -1.1981 -0.3592
   47CHL1  H27C 3478   1.354   2.952   8.298  0.2962  0.8304 -0.6750
   48CHL1    C3 3479   0.257   4.100   6.520  0.5052  0.3260  0.6351
   48CHL1    H3 3480   0.347   4.039   6.496 -0.3330 -0.2382 -1.2224
   48CHL1    O3 3481   0.167   4.088   6.409 -0.2971  0.1559 -0.1263
   48CHL1   H3' 3482   0.092   4.145   6.425 -0.6838 -0.4922  0.4054
   48CHL1    C4 3483   0.195   4.026   6.636  0.1037  0.3905 -0.3646
   48CHL1   H4A 3484   0.089   4.058   6.649 -0.0215  0.0384 -0.5083
   48CHL1   H4B 3485   0.187   3.916   6.621  2.2101  0.3725 -1.7552
   48CHL1    C5 3486   0.276   4.056   6.760 -0.6997  0.8377  0.1064
   48CHL1    C6 3487   0.330   3.959   6.837  0.2238 -0.9248 -0.3296
   48CHL1    H6 3488   0.311   3.852   6.819  0.9070 -1.0230 -0.4754
   48CHL1    C7 3489   0.410   3.975   6.964  0.5612 -0.1772 -0.3977
   48CHL1   H7A 3490   0.388   3.891   7.033 -0.5167  1.0459  0.7782
   48CHL1   H7B 3491   0.520   3.966   6.953  0.6044 -1.1155  0.6136
   48CHL1    C8 3492   0.371   4.107   7.032  0.3129 -0.0769 -0.6709
   48CHL1    H8 3493   0.265   4.098   7.062  0.5185  0.8474  0.3882
   48CHL1   C14 3494   0.452   4.142   7.159  0.4116 -0.8529  1.6282
   48CHL1   H14 3495   0.557   4.148   7.126  0.1004 -0.1389  0.7238
   48CHL1   C15 3496   0.457   4.050   7.271  0.0354  0.2548 -0.0505
   48CHL1  H15A 3497   0.356   4.008   7.291  0.4977 -1.1475 -0.5736
   48CHL1  H15B 3498   0.512   3.960   7.236 -0.6052  0.0472 -0.5468
   48CHL1   C16 3499   0.506   4.127   7.386 -0.1192  0.2105 -0.2934
   48CHL1  H16A 3500   0.460   4.111   7.486 -1.0891  0.5732 -0.6702
   48CHL1  H16B 3501   0.613   4.101   7.397 -0.1045  0.6062  0.6631
   48CHL1   C17 3502   0.508   4.274   7.345 -0.2372 -1.1381  1.0572
   48CHL1   H17 3503   0.614   4.292   7.316 -0.5335 -1.9434 -0.6699
   48CHL1   C13 3504   0.423   4.276   7.215 -0.4507  1.0867  0.2091
   48CHL1   C18 3505   0.274   4.294   7.263 -0.0289 -0.6570  0.0930
   48CHL1  H18A 3506   0.257   4.403   7.277 -0.7804 -0.8200  0.5187
   48CHL1  H18B 3507   0.196   4.258   7.193 -0.2216 -1.5622  0.7576
   48CHL1  H18C 3508   0.249   4.247   7.360 -1.5963  1.2298  0.6613
   48CHL1   C12 3509   0.451   4.389   7.111 -0.1479 -0.7585 -0.0582
   48CHL1  H12A 3510   0.414   4.486   7.148 -0.1354 -1.0839  0.8338
   48CHL1  H12B 3511   0.557   4.403   7.082 -0.6731 -1.1764 -2.3684
   48CHL1   C11 3512   0.370   4.362   6.985  0.1004  1.1012 -0.7179
   48CHL1  H11A 3513   0.270   4.393   7.021  0.6724  0.9609  1.1163
   48CHL1  H11B 3514   0.406   4.436   6.910 -0.5004  1.9680 -0.1721
   48CHL1    C9 3515   0.386   4.222   6.926 -0.2781  0.6360 -0.3825
   48CHL1    H9 3516   0.491   4.216   6.889  0.0280 -0.7583  0.6467
   48CHL1   C10 3517   0.296   4.201   6.796  0.3983 -0.5177 -0.6674
   48CHL1   C19 3518   0.164   4.280   6.813  0.2380 -0.0108 -0.6084
   48CHL1  H19A 3519   0.179   4.389   6.824 -0.5734 -0.1620  3.5922
   48CHL1  H19B 3520   0.095   4.255   6.729 -0.3130  2.5036 -0.9811
   48CHL1  H19C 3521   0.119   4.238   6.906  4.1856 -0.3739  1.3362
   48CHL1    C1 3522   0.376   4.253   6.673  0.3136  0.1389  0.0077
   48CHL1   H1A 3523   0.393   4.359   6.701 -1.2582  0.9370 -1.8296
   48CHL1   H1B 3524   0.477   4.209   6.656  1.2370  0.9218  2.8629
   48CHL1    C2 3525   0.288   4.245   6.547  0.1198 -0.2717 -0.2479
   48CHL1   H2A 3526   0.349   4.288   6.465  0.5124  0.8693  0.6154
   48CHL1   H2B 3527   0.198   4.308   6.564 -0.0735 -1.1256  2.2912
   48CHL1   C20 3528   0.486   4.370   7.458 -0.2052 -0.4752 -0.1789
   48CHL1   H20 3529   0.394   4.350   7.515 -0.3643  1.2685  0.2410
   48CHL1   C21 3530   0.472   4.523   7.408  0.1457 -0.1397 -0.7636
   48CHL1  H21A 3531   0.395   4.546   7.332 -1.3893  0.0905  0.7864
   48CHL1  H21B 3532   0.574   4.555   7.378  0.5751  1.5315  2.0887
   48CHL1  H21C 3533   0.452   4.592   7.494 -0.8069  0.5715 -1.5262
   48CHL1   C22 3534   0.603   4.356   7.567  0.1554 -0.5845 -1.1187
   48CHL1  H22A 3535   0.639   4.251   7.571 -1.4236 -1.1269  0.6972
   48CHL1  H22B 3536   0.687   4.424   7.541 -0.3995  1.7632  2.4382
   48CHL1   C23 3537   0.561   4.393   7.713 -0.6730  0.3946 -0.1522
   48CHL1  H23A 3538   0.510   4.491   7.725 -0.2986  0.4037  1.7086
   48CHL1  H23B 3539   0.482   4.324   7.749 -0.5593  0.5874  0.4749
   48CHL1   C24 3540   0.691   4.386   7.796 -0.0082 -0.2261  0.0482
   48CHL1  H24A 3541   0.735   4.286   7.777 -1.6693 -0.9609 -0.0889
   48CHL1  H24B 3542   0.767   4.459   7.761  1.1962 -0.4826  1.9853
   48CHL1   C25 3543   0.674   4.387   7.951 -0.0228 -0.8664  0.6325
   48CHL1   H25 3544   0.620   4.481   7.975  0.7582 -0.0953 -0.5372
   48CHL1   C26 3545   0.586   4.275   8.008  0.2195  0.0716 -0.1345
   48CHL1  H26A 3546   0.558   4.292   8.114  0.7952  1.8436 -0.2330
   48CHL1  H26B 3547   0.491   4.265   7.952 -1.0973  1.0031  1.8499
   48CHL1  H26C 3548   0.638   4.177   8.002 -0.2680 -0.1425 -0.8694
   48CHL1   C27 3549   0.809   4.387   8.029  0.1283 -0.4648 -0.3146
   48CHL1  H27A 3550   0.864   4.291   8.032  3.1100  1.1402  0.8365
   48CHL1  H27B 3551   0.885   4.455   7.986  1.4455 -0.5601  1.6937
   48CHL1  H27C 3552   0.796   4.422   8.134  0.3752  0.2405 -0.5171
   49CHL1    C3 3553   5.807   3.971   6.879  1.3058 -0.2451 -0.1352
   49CHL1    H3 3554   5.698   3.950   6.873  1.5107 -1.1712 -0.7734
   49CHL1    O3 3555   5.860   3.967   6.747 -0.4589 -1.2058 -0.7764
   49CHL1   H3' 3556   5.913   4.045   6.731  0.1409 -1.9150 -2.4181
   49CHL1    C4 3557   5.819   4.118   6.936 -0.4422 -0.2401  0.1167
   49CHL1   H4A 3558   5.925   4.147   6.923 -0.6863  0.0235 -1.4750
   49CHL1   H4B 3559   5.759   4.180   6.867  0.7300 -0.8500 -1.5097
   49CHL1    C5 3560   5.789   4.126   7.081 -0.2540 -0.0093 -0.9231
   49CHL1    C6 3561   5.697   4.213   7.123  0.0840 -0.0015  0.8653
   49CHL1    H6 3562   5.664   4.285   7.047  1.2955 -0.1079  0.2243
   49CHL1    C7 3563   5.661   4.239   7.268  0.1847  0.6348 -0.1055
   49CHL1   H7A 3564   5.669   4.346   7.300 -1.7018  0.7408  0.0867
   49CHL1   H7B 3565   5.556   4.208   7.282  0.3492 -0.0424 -0.3394
   49CHL1    C8 3566   5.760   4.155   7.360  0.5819  0.2375  0.2996
   49CHL1    H8 3567   5.862   4.198   7.368  0.8987 -0.0413 -1.7902
   49CHL1   C14 3568   5.705   4.140   7.499  0.6691 -0.0790  0.1261
   49CHL1   H14 3569   5.614   4.076   7.488  1.0485 -0.9750  1.8870
   49CHL1   C15 3570   5.656   4.273   7.565 -0.1823 -0.3620  0.4401
   49CHL1  H15A 3571   5.732   4.348   7.535  1.3794 -1.6501  1.0197
   49CHL1  H15B 3572   5.555   4.299   7.527  0.8208  2.5730 -0.5368
   49CHL1   C16 3573   5.654   4.241   7.716 -0.0283 -0.2990  0.3739
   49CHL1  H16A 3574   5.728   4.312   7.761  0.4610  0.0004 -0.8772
   49CHL1  H16B 3575   5.555   4.266   7.761 -0.2435  0.8670 -0.6864
   49CHL1   C17 3576   5.711   4.092   7.734  0.1205 -0.3352  0.2201
   49CHL1   H17 3577   5.625   4.023   7.725  0.6463 -1.0878  0.8261
   49CHL1   C13 3578   5.790   4.072   7.605  0.1566 -0.0315  0.7999
   49CHL1   C18 3579   5.923   4.148   7.623  0.7335  0.3204  0.2483
   49CHL1  H18A 3580   5.991   4.106   7.700 -0.8852 -1.8233  0.6290
   49CHL1  H18B 3581   5.980   4.133   7.529 -1.0352  2.1369 -1.2018
   49CHL1  H18C 3582   5.903   4.257   7.626  0.8812  0.3380  0.7234
   49CHL1   C12 3583   5.820   3.932   7.556  0.4131  0.0693 -0.2758
   49CHL1  H12A 3584   5.898   3.874   7.611 -0.1834 -0.4696  0.0304
   49CHL1  H12B 3585   5.717   3.890   7.567 -0.0129  0.9738 -0.6934
   49CHL1   C11 3586   5.869   3.925   7.413  0.1995 -0.2052  0.4358
   49CHL1  H11A 3587   5.974   3.959   7.418  0.5258 -1.3899  2.5359
   49CHL1  H11B 3588   5.876   3.820   7.378  2.1308  0.4742 -1.4484
   49CHL1    C9 3589   5.792   4.019   7.308 -0.2258  0.1673  0.2319
   49CHL1    H9 3590   5.691   3.973   7.294 -0.9855  1.8609 -0.0978
   49CHL1   C10 3591   5.868   4.021   7.171  0.0936  0.9647  0.2972
   49CHL1   C19 3592   6.014   4.064   7.188 -0.0916 -0.6307  0.4972
   49CHL1  H19A 3593   6.093   3.989   7.212  1.7383 -0.0666 -3.0344
   49CHL1  H19B 3594   6.046   4.105   7.090 -0.4898  3.1799  1.8003
   49CHL1  H19C 3595   6.030   4.154   7.251  0.4843  0.1558 -0.7234
   49CHL1    C1 3596   5.856   3.876   7.119  0.2704  0.0972 -0.2317
   49CHL1   H1A 3597   5.917   3.798   7.169  1.1130  2.7910  3.3035
   49CHL1   H1B 3598   5.748   3.851   7.123 -0.0399  1.3276 -0.5328
   49CHL1    C2 3599   5.889   3.877   6.967 -0.0266 -0.6413 -0.1379
   49CHL1   H2A 3600   5.872   3.774   6.928 -1.9449 -0.7048  0.7510
   49CHL1   H2B 3601   5.998   3.898   6.963  0.3849 -1.9947  2.2579
   49CHL1   C20 3602   5.776   4.076   7.863 -0.3674  0.2736 -0.2352
   49CHL1   H20 3603   5.873   4.130   7.855 -0.9675  1.3648 -0.3775
   49CHL1   C21 3604   5.810   3.926   7.896  0.4897  0.1040  0.2150
   49CHL1  H21A 3605   5.717   3.871   7.921  0.7005  0.3962  1.7984
   49CHL1  H21B 3606   5.889   3.922   7.975 -1.2420  1.2779  2.1145
   49CHL1  H21C 3607   5.867   3.885   7.810 -0.5134 -1.1103  0.1008
   49CHL1   C22 3608   5.714   4.141   7.987 -0.9584  0.6653 -0.0532
   49CHL1  H22A 3609   5.692   4.246   7.959 -0.7409  0.3472 -1.5145
   49CHL1  H22B 3610   5.626   4.081   8.020 -0.0782  0.9343  3.0707
   49CHL1   C23 3611   5.807   4.154   8.110  0.0545 -1.1481 -0.2187
   49CHL1  H23A 3612   5.822   4.049   8.142  0.4824 -0.8040  0.7467
   49CHL1  H23B 3613   5.906   4.190   8.074 -0.3469 -0.0846 -0.3190
   49CHL1   C24 3614   5.734   4.241   8.218 -0.0422  0.4777 -0.1069
   49CHL1  H24A 3615   5.723   4.348   8.190  1.6073  1.2598  1.9522
   49CHL1  H24B 3616   5.635   4.201   8.250  0.8065 -0.3688  1.5733
   49CHL1   C25 3617   5.822   4.244   8.346 -0.0831 -0.0745 -0.3106
   49CHL1   H25 3618   5.908   4.308   8.318  0.9199 -0.4808  1.6293
   49CHL1   C26 3619   5.748   4.303   8.462 -0.3129  0.0308 -0.6880
   49CHL1  H26A 3620   5.730   4.412   8.453  1.2429  0.2221 -1.6689
   49CHL1  H26B 3621   5.654   4.248   8.487 -0.1474 -0.4845 -1.1840
   49CHL1  H26C 3622   5.817   4.299   8.549  1.6839  3.7534 -1.8863
   49CHL1   C27 3623   5.873   4.108   8.386 -0.3761 -0.3242  0.1252
   49CHL1  H27A 3624   5.965   4.089   8.327  1.2956  1.3741  2.0129
   49CHL1  H27B 3625   5.919   4.115   8.487  0.3120 -0.6810 -0.1618
   49CHL1  H27C 3626   5.800   4.025   8.373 -1.4458  0.8884 -2.3564
   50CHL1    C3 3627   0.493   6.754   7.113  0.2589 -0.3204  0.4036
   50CHL1    H3 3628   0.594   6.725   7.150  0.9156  1.8020  0.4225
   50CHL1    O3 3629   0.486   6.754   6.975  0.2937  0.3341 -0.3740
   50CHL1   H3' 3630   0.396   6.744   6.943  1.3279  0.6286 -3.7756
   50CHL1    C4 3631   0.380   6.657   7.174 -0.2948  0.2619  0.3446
   50CHL1   H4A 3632   0.285   6.708   7.146 -0.7811  0.1979  1.7960
   50CHL1   H4B 3633   0.389   6.555   7.131 -0.9977 -0.1100  1.0434
   50CHL1    C5 3634   0.384   6.649   7.330 -0.0426  0.5117 -0.3777
   50CHL1    C6 3635   0.392   6.538   7.403  0.6773  0.0130  0.1588
   50CHL1    H6 3636   0.392   6.445   7.343 -1.0853 -0.9470  1.5334
   50CHL1    C7 3637   0.402   6.524   7.553  0.2675 -0.4526 -0.0942
   50CHL1   H7A 3638   0.328   6.449   7.587 -0.7868 -0.2674 -1.8577
   50CHL1   H7B 3639   0.506   6.498   7.583  0.6440 -1.4085 -2.0343
   50CHL1    C8 3640   0.367   6.659   7.620  1.0662 -0.4093 -0.0847
   50CHL1    H8 3641   0.257   6.668   7.604  1.2895  0.2141 -1.4101
   50CHL1   C14 3642   0.425   6.660   7.762  0.4345  0.5137  0.6328
   50CHL1   H14 3643   0.534   6.647   7.748  0.1777  0.6760 -2.0524
   50CHL1   C15 3644   0.383   6.537   7.841 -0.0051  0.0529  0.3881
   50CHL1  H15A 3645   0.279   6.502   7.822  0.3085 -1.1760  0.8016
   50CHL1  H15B 3646   0.446   6.446   7.830  0.2847  0.1117  1.4751
   50CHL1   C16 3647   0.383   6.581   7.983  0.2846  0.1347  0.2738
   50CHL1  H16A 3648   0.276   6.585   8.011  0.5517  2.2054  1.2104
   50CHL1  H16B 3649   0.440   6.505   8.041 -1.0498  0.8274  2.6125
   50CHL1   C17 3650   0.441   6.725   7.980  0.0931  0.8288 -0.5261
   50CHL1   H17 3651   0.549   6.699   7.974 -0.2658 -1.4509  1.4075
   50CHL1   C13 3652   0.398   6.787   7.843 -0.9624  0.5622 -0.1481
   50CHL1   C18 3653   0.247   6.813   7.846  0.0118  0.4194 -0.7806
   50CHL1  H18A 3654   0.224   6.888   7.924  1.2080 -1.8112  1.9024
   50CHL1  H18B 3655   0.209   6.846   7.747 -0.1261 -1.3742 -1.3624
   50CHL1  H18C 3656   0.190   6.719   7.862  1.4133 -0.5649 -1.3212
   50CHL1   C12 3657   0.482   6.895   7.772 -0.6634  0.5032  0.2240
   50CHL1  H12A 3658   0.459   6.993   7.821 -1.9415  1.3163 -1.8714
   50CHL1  H12B 3659   0.587   6.872   7.798 -0.8657  1.3433  1.9945
   50CHL1   C11 3660   0.437   6.916   7.625  0.1155  0.8699 -0.0014
   50CHL1  H11A 3661   0.344   6.975   7.633 -0.3588  0.0825  0.4886
   50CHL1  H11B 3662   0.518   6.973   7.575  0.1984  0.2506 -0.5794
   50CHL1    C9 3663   0.428   6.782   7.547 -0.0107  0.0709 -0.9043
   50CHL1    H9 3664   0.535   6.752   7.539  0.1367  0.2038  0.3510
   50CHL1   C10 3665   0.384   6.791   7.399 -0.2065  0.5802 -0.3803
   50CHL1   C19 3666   0.247   6.848   7.394  0.1911 -0.8617 -1.0927
   50CHL1  H19A 3667   0.173   6.773   7.430  0.1408 -0.1548  0.3649
   50CHL1  H19B 3668   0.238   6.947   7.444 -1.3452  0.1383 -3.1762
   50CHL1  H19C 3669   0.217   6.861   7.288  0.2867  0.2588 -0.9900
   50CHL1    C1 3670   0.474   6.900   7.329 -0.3140  0.0599  0.0363
   50CHL1   H1A 3671   0.454   7.003   7.364  0.4570 -0.1032  0.9846
   50CHL1   H1B 3672   0.579   6.876   7.354  0.3904  1.2569 -1.5672
   50CHL1    C2 3673   0.481   6.898   7.177  0.5237  0.0462 -0.0110
   50CHL1   H2A 3674   0.563   6.963   7.138 -0.5844  1.0355 -0.7653
   50CHL1   H2B 3675   0.391   6.949   7.137  1.4381 -0.6858 -3.3548
   50CHL1   C20 3676   0.422   6.794   8.116  0.0179 -0.6088 -0.4990
   50CHL1   H20 3677   0.313   6.802   8.140 -0.1734 -0.3133 -1.4330
   50CHL1   C21 3678   0.473   6.939   8.102  0.8920  0.1607  0.1810
   50CHL1  H21A 3679   0.578   6.934   8.067  1.3358  0.1017  1.4680
   50CHL1  H21B 3680   0.458   6.978   8.205 -0.8214  0.2773 -0.0735
   50CHL1  H21C 3681   0.416   6.997   8.026  1.8900  0.1605 -0.5824
   50CHL1   C22 3682   0.480   6.708   8.236 -0.7186 -0.0483  0.2182
   50CHL1  H22A 3683   0.461   6.600   8.218  2.0649 -0.4872 -0.6958
   50CHL1  H22B 3684   0.590   6.726   8.238 -0.8134  0.6455 -0.3707
   50CHL1   C23 3685   0.429   6.756   8.368 -0.3784 -1.0906  0.2560
   50CHL1  H23A 3686   0.455   6.864   8.382  1.3526 -1.4404 -0.0092
   50CHL1  H23B 3687   0.318   6.751   8.368 -0.4520 -0.0412  1.5818
   50CHL1   C24 3688   0.484   6.673   8.484 -0.1575 -0.3130 -0.1190
   50CHL1  H24A 3689   0.450   6.718   8.581 -0.1410  0.2762 -0.3790
   50CHL1  H24B 3690   0.442   6.571   8.472 -0.0820 -0.7502  2.5956
   50CHL1   C25 3691   0.639   6.654   8.483 -0.3454  1.1242 -0.1854
   50CHL1   H25 3692   0.662   6.595   8.391  1.6018  1.7112 -0.1153
   50CHL1   C26 3693   0.720   6.788   8.478  0.3611  0.0460  0.0363
   50CHL1  H26A 3694   0.827   6.768   8.455  0.7388  1.5767  0.3453
   50CHL1  H26B 3695   0.677   6.854   8.399  0.9728  1.7144  1.0588
   50CHL1  H26C 3696   0.724   6.839   8.576  3.3038  0.0256  0.0204
   50CHL1   C27 3697   0.701   6.563   8.594  0.4009 -0.0388 -0.3761
   50CHL1  H27A 3698   0.673   6.455   8.587 -1.3302  0.4354 -1.3116
   50CHL1  H27B 3699   0.812   6.563   8.588  0.4255  0.7050 -0.0432
   50CHL1  H27C 3700   0.667   6.606   8.690 -2.2299  3.5284 -2.6840
   51CHL1    C3 3701   5.131   3.271   6.945  0.0866 -0.1754 -0.1387
   51CHL1    H3 3702   5.027   3.245   6.974  0.8866 -1.0991  2.1615
   51CHL1    O3 3703   5.126   3.286   6.808  0.0895 -0.1189  0.1476
   51CHL1   H3' 3704   5.217   3.270   6.780  0.2393 -0.0916  0.6174
   51CHL1    C4 3705   5.171   3.399   7.013  0.0285 -0.2380 -0.7134
   51CHL1   H4A 3706   5.272   3.432   6.983  0.4796  0.3282  1.3318
   51CHL1   H4B 3707   5.101   3.479   6.980 -1.6804 -0.7597  1.3669
   51CHL1    C5 3708   5.163   3.379   7.166 -0.3034  1.1653  0.3108
   51CHL1    C6 3709   5.079   3.449   7.246 -0.5018 -0.0908 -0.0946
   51CHL1    H6 3710   5.005   3.522   7.211 -0.6105  0.8049  1.8921
   51CHL1    C7 3711   5.068   3.438   7.396  0.1297 -0.0685 -0.0435
   51CHL1   H7A 3712   5.067   3.535   7.449  1.4941 -2.3978  4.9149
   51CHL1   H7B 3713   4.980   3.381   7.434  0.6410 -1.2716 -0.6020
   51CHL1    C8 3714   5.194   3.357   7.454  0.2015 -0.2988 -0.8162
   51CHL1    H8 3715   5.291   3.410   7.447 -0.1623  0.4444 -0.3348
   51CHL1   C14 3716   5.161   3.324   7.594  0.2779  0.1761 -0.2042
   51CHL1   H14 3717   5.067   3.265   7.584  0.4761 -0.0419 -0.8333
   51CHL1   C15 3718   5.114   3.439   7.687  0.6951  0.4329  0.5141
   51CHL1  H15A 3719   5.184   3.525   7.681 -0.0030  0.9197 -0.8036
   51CHL1  H15B 3720   5.010   3.465   7.662 -0.1679 -1.4872  1.8641
   51CHL1   C16 3721   5.125   3.376   7.831 -0.5956 -0.2972  0.1224
   51CHL1  H16A 3722   5.180   3.447   7.896 -0.0370 -1.7230  1.2503
   51CHL1  H16B 3723   5.025   3.350   7.871 -1.4662  1.2790 -0.9064
   51CHL1   C17 3724   5.202   3.232   7.811  0.3232  0.5575 -0.3318
   51CHL1   H17 3725   5.126   3.150   7.807  2.3246 -1.6262  2.5967
   51CHL1   C13 3726   5.261   3.233   7.670  0.1421  0.2292  0.0631
   51CHL1   C18 3727   5.390   3.322   7.677  0.4522  0.1010 -0.1268
   51CHL1  H18A 3728   5.375   3.420   7.727  1.1123 -0.6882  1.7307
   51CHL1  H18B 3729   5.472   3.284   7.742 -1.0049 -1.3119  0.9801
   51CHL1  H18C 3730   5.447   3.336   7.583 -1.3476 -0.7648 -1.4135
   51CHL1   C12 3731   5.278   3.104   7.582  0.1872  0.1531 -0.5831
   51CHL1  H12A 3732   5.362   3.038   7.612  0.8102 -0.6488 -3.7564
   51CHL1  H12B 3733   5.182   3.047   7.592  1.8762 -3.4406 -2.7560
   51CHL1   C11 3734   5.317   3.147   7.439 -0.7872  0.2852 -0.1767
   51CHL1  H11A 3735   5.418   3.192   7.452 -0.9973  2.0781 -3.5578
   51CHL1  H11B 3736   5.341   3.052   7.385  4.2350 -0.3475  2.5308
   51CHL1    C9 3737   5.216   3.233   7.374  0.5364  0.0805 -0.1972
   51CHL1    H9 3738   5.118   3.182   7.380  0.8475 -0.3715  3.5971
   51CHL1   C10 3739   5.247   3.259   7.218  0.1169  0.1901 -0.1374
   51CHL1   C19 3740   5.394   3.292   7.204  0.0031  0.2696  0.2337
   51CHL1  H19A 3741   5.416   3.379   7.270 -1.3851  2.8997 -2.5252
   51CHL1  H19B 3742   5.458   3.209   7.240  1.3946  1.0507 -0.3822
   51CHL1  H19C 3743   5.431   3.312   7.102 -1.4479  1.9624 -0.0137
   51CHL1    C1 3744   5.223   3.133   7.139 -0.4809 -0.1711 -0.2167
   51CHL1   H1A 3745   5.296   3.051   7.153  1.2094  1.3549  0.1714
   51CHL1   H1B 3746   5.123   3.091   7.165  0.4515 -1.4543  1.4726
   51CHL1    C2 3747   5.218   3.156   6.991 -0.2839 -0.0080  0.4620
   51CHL1   H2A 3748   5.170   3.072   6.937  1.4799  0.6163 -2.3323
   51CHL1   H2B 3749   5.320   3.164   6.947 -0.0574 -0.8834  0.8210
   51CHL1   C20 3750   5.301   3.200   7.924  0.7392 -0.6401  0.2101
   51CHL1   H20 3751   5.378   3.281   7.923 -0.4200  0.5440 -2.2447
   51CHL1   C21 3752   5.366   3.058   7.908  0.0998 -0.3600  0.2826
   51CHL1  H21A 3753   5.289   2.977   7.907 -1.2924  0.8829  1.3696
   51CHL1  H21B 3754   5.436   3.050   7.993  0.3567  0.7226  0.1883
   51CHL1  H21C 3755   5.432   3.056   7.819 -0.3113  2.5952 -0.1943
   51CHL1   C22 3756   5.229   3.198   8.071 -0.9976 -0.2088  0.3266
   51CHL1  H22A 3757   5.306   3.176   8.148  0.1118  0.3584 -0.5882
   51CHL1  H22B 3758   5.187   3.300   8.090  1.0618  0.7808 -0.2111
   51CHL1   C23 3759   5.119   3.092   8.096 -0.6097  0.2379 -0.1565
   51CHL1  H23A 3760   5.034   3.111   8.027 -0.4431 -1.6136 -0.9363
   51CHL1  H23B 3761   5.158   2.994   8.059 -1.0137  0.2405 -0.6003
   51CHL1   C24 3762   5.078   3.066   8.243  0.6028  0.3143 -0.0045
   51CHL1  H24A 3763   5.042   2.961   8.251 -0.2757  0.4472 -1.8967
   51CHL1  H24B 3764   5.170   3.074   8.306  0.9412 -0.3892 -0.3877
   51CHL1   C25 3765   5.002   3.180   8.317  0.1988  0.1790 -1.0034
   51CHL1   H25 3766   5.069   3.268   8.303  0.7461 -0.1567 -0.5540
   51CHL1   C26 3767   4.858   3.208   8.278 -0.2887  0.0508 -0.1674
   51CHL1  H26A 3768   4.849   3.229   8.170 -1.1833 -0.7300 -0.2644
   51CHL1  H26B 3769   4.792   3.120   8.297 -2.2335  1.7097  1.2924
   51CHL1  H26C 3770   4.818   3.290   8.343 -1.7148 -0.1365 -0.7674
   51CHL1   C27 3771   5.002   3.172   8.473 -0.4386  0.4863  0.3846
   51CHL1  H27A 3772   5.107   3.158   8.506  0.9825  1.0524 -3.3498
   51CHL1  H27B 3773   4.968   3.264   8.524  2.0781  2.1024 -0.6336
   51CHL1  H27C 3774   4.949   3.080   8.505  2.0546 -1.3017 -0.2585
   52CHL1    C3 3775   5.544   6.111   7.119 -0.4153 -0.0559 -0.3692
   52CHL1    H3 3776   5.570   6.218   7.132 -0.2802  0.0155 -1.1324
   52CHL1    O3 3777   5.524   6.087   6.984  0.4465 -0.2580 -0.2303
   52CHL1   H3' 3778   5.472   6.160   6.948 -0.3295 -0.5851  0.1944
   52CHL1    C4 3779   5.663   6.024   7.177 -0.6699 -0.5216 -0.1867
   52CHL1   H4A 3780   5.644   5.920   7.142 -1.1224 -1.4807  2.6429
   52CHL1   H4B 3781   5.761   6.064   7.142  1.0660 -1.0998  3.5534
   52CHL1    C5 3782   5.671   6.011   7.334 -0.2724  0.1245  0.2180
   52CHL1    C6 3783   5.785   6.023   7.413  0.0072  0.2151  0.0446
   52CHL1    H6 3784   5.883   6.020   7.362  0.6923 -0.3880  1.3604
   52CHL1    C7 3785   5.798   6.002   7.564  0.7318 -0.9767 -0.2283
   52CHL1   H7A 3786   5.886   5.938   7.590  3.1982  1.0933 -2.7830
   52CHL1   H7B 3787   5.804   6.104   7.606 -0.8039 -0.5573 -0.9483
   52CHL1    C8 3788   5.665   5.941   7.622 -0.4448  0.0354  0.1914
   52CHL1    H8 3789   5.675   5.831   7.614 -0.0506 -0.2984  3.6978
   52CHL1   C14 3790   5.665   5.965   7.766 -0.5388 -0.3418 -0.3259
   52CHL1   H14 3791   5.645   6.074   7.776 -1.4904 -0.4765 -0.5853
   52CHL1   C15 3792   5.789   5.918   7.856  0.3147 -0.3356 -0.6913
   52CHL1  H15A 3793   5.800   5.813   7.821  0.5393 -0.2022 -1.0202
   52CHL1  H15B 3794   5.875   5.987   7.843 -0.4375  0.5957 -0.8433
   52CHL1   C16 3795   5.733   5.914   8.004 -0.1096  0.3688 -0.0558
   52CHL1  H16A 3796   5.766   5.816   8.044 -0.9457 -0.3385 -1.0424
   52CHL1  H16B 3797   5.777   5.998   8.061  0.4514  0.2190 -0.2595
   52CHL1   C17 3798   5.580   5.938   7.996 -0.6371  0.0854 -0.3594
   52CHL1   H17 3799   5.558   6.047   7.994 -0.2307  0.1772 -0.1509
   52CHL1   C13 3800   5.545   5.910   7.845 -0.0300 -0.3294 -0.7947
   52CHL1   C18 3801   5.531   5.756   7.838  0.9888  0.2592 -0.2206
   52CHL1  H18A 3802   5.605   5.700   7.900 -0.4043 -1.5994 -0.1405
   52CHL1  H18B 3803   5.430   5.720   7.868  1.1709 -0.6237 -0.6182
   52CHL1  H18C 3804   5.544   5.705   7.740 -0.3081 -3.4060  1.3243
   52CHL1   C12 3805   5.423   5.980   7.794 -0.0392 -1.1217  0.5281
   52CHL1  H12A 3806   5.334   5.944   7.850 -0.1310  0.3946  1.4304
   52CHL1  H12B 3807   5.434   6.089   7.813  2.3829 -0.9349 -1.4295
   52CHL1   C11 3808   5.410   5.973   7.641 -0.0795 -0.2038  1.0643
   52CHL1  H11A 3809   5.362   5.876   7.615  1.4906 -0.1477 -2.6970
   52CHL1  H11B 3810   5.331   6.049   7.621  0.6856  0.2572 -0.2791
   52CHL1    C9 3811   5.534   6.000   7.555  0.0593  0.1119 -0.2137
   52CHL1    H9 3812   5.551   6.109   7.572 -1.0327  0.1025  1.1911
   52CHL1   C10 3813   5.530   5.991   7.402  0.6330  0.4141 -0.5713
   52CHL1   C19 3814   5.482   5.853   7.365 -0.0552  0.5395  0.6132
   52CHL1  H19A 3815   5.558   5.778   7.394 -0.0907 -0.6793 -2.1006
   52CHL1  H19B 3816   5.386   5.816   7.407 -1.2212  0.1039 -2.1958
   52CHL1  H19C 3817   5.465   5.829   7.258 -3.3056  0.0392  1.1310
   52CHL1    C1 3818   5.428   6.095   7.341  0.8017 -0.9787  0.0619
   52CHL1   H1A 3819   5.331   6.073   7.389 -0.8610 -0.8965 -2.9789
   52CHL1   H1B 3820   5.467   6.195   7.371  0.7247 -0.5994 -1.0263
   52CHL1    C2 3821   5.407   6.091   7.188 -0.6435  0.7379  0.0956
   52CHL1   H2A 3822   5.335   6.170   7.161  0.1907  1.5603  0.2253
   52CHL1   H2B 3823   5.366   5.990   7.165  2.0660 -0.7025  1.0500
   52CHL1   C20 3824   5.488   5.874   8.110 -0.1972 -0.0402  0.0089
   52CHL1   H20 3825   5.383   5.866   8.077 -0.5315  0.6211  0.8785
   52CHL1   C21 3826   5.507   5.975   8.217 -0.5413 -0.1296 -0.9927
   52CHL1  H21A 3827   5.479   6.072   8.170  1.1978  1.0384  0.2371
   52CHL1  H21B 3828   5.615   5.978   8.242 -0.5427 -1.1092 -0.8288
   52CHL1  H21C 3829   5.439   5.966   8.304 -1.2869  1.4839 -1.3761
   52CHL1   C22 3830   5.532   5.733   8.165 -0.2970 -0.2083  0.1581
   52CHL1  H22A 3831   5.503   5.668   8.080 -3.9107  0.6169  0.5937
   52CHL1  H22B 3832   5.640   5.730   8.192 -0.4460 -1.1382  0.6731
   52CHL1   C23 3833   5.458   5.687   8.287  0.1474  0.2834 -0.2199
   52CHL1  H23A 3834   5.500   5.749   8.369  0.2173 -1.2061  0.9224
   52CHL1  H23B 3835   5.349   5.708   8.278 -0.1922 -0.4337  1.7668
   52CHL1   C24 3836   5.494   5.542   8.328  0.4128 -0.1993 -0.0664
   52CHL1  H24A 3837   5.453   5.481   8.245 -2.1518 -0.7606  1.5075
   52CHL1  H24B 3838   5.605   5.541   8.314  0.3769 -0.5216 -0.3443
   52CHL1   C25 3839   5.417   5.486   8.450 -0.2539 -0.0646 -0.1454
   52CHL1   H25 3840   5.310   5.512   8.438  0.3259  4.3159  2.2048
   52CHL1   C26 3841   5.447   5.338   8.470  0.3632  0.2425 -0.2293
   52CHL1  H26A 3842   5.387   5.291   8.550  0.4831  1.6786  0.7386
   52CHL1  H26B 3843   5.432   5.282   8.375 -1.2609  0.3216 -0.0489
   52CHL1  H26C 3844   5.555   5.327   8.494  0.5393  0.4013 -0.9158
   52CHL1   C27 3845   5.459   5.549   8.580 -0.1180 -0.1303 -0.0167
   52CHL1  H27A 3846   5.452   5.660   8.581  0.7937  0.0401 -2.9818
   52CHL1  H27B 3847   5.394   5.508   8.661 -0.2906 -0.9461 -0.5655
   52CHL1  H27C 3848   5.563   5.514   8.599 -0.7349 -1.5435  0.9604
   53CHL1    C3 3849   4.866   4.723   7.059 -0.5331 -0.4246  0.7448
   53CHL1    H3 3850   4.860   4.614   7.081  0.9903 -0.5802  0.5109
   53CHL1    O3 3851   4.853   4.769   6.919 -0.4727 -0.1602 -0.2911
   53CHL1   H3' 3852   4.941   4.746   6.888 -0.0996  0.8480 -0.0117
   53CHL1    C4 3853   4.739   4.777   7.128 -0.6759  0.2405  0.4560
   53CHL1   H4A 3854   4.725   4.883   7.098 -2.4248  0.0560  0.5389
   53CHL1   H4B 3855   4.650   4.721   7.094  1.3661 -2.5067 -0.7365
   53CHL1    C5 3856   4.756   4.750   7.274  0.1533 -0.5076  0.0968
   53CHL1    C6 3857   4.655   4.693   7.345 -0.0454 -0.9332 -0.2714
   53CHL1    H6 3858   4.553   4.684   7.304 -1.1128  0.7873  1.7910
   53CHL1    C7 3859   4.659   4.682   7.494 -0.1561 -0.5405 -0.3654
   53CHL1   H7A 3860   4.565   4.729   7.532 -1.0094 -2.0987 -0.4756
   53CHL1   H7B 3861   4.659   4.573   7.515  0.0630 -0.7652 -1.4692
   53CHL1    C8 3862   4.780   4.748   7.563 -0.1937 -0.3814  0.4039
   53CHL1    H8 3863   4.754   4.856   7.570 -0.2781 -0.3601 -0.1586
   53CHL1   C14 3864   4.799   4.692   7.699  0.3775 -0.4371  0.6382
   53CHL1   H14 3865   4.838   4.590   7.679 -0.7596 -0.8648  0.5539
   53CHL1   C15 3866   4.677   4.670   7.786  0.3854 -0.1854 -0.1502
   53CHL1  H15A 3867   4.606   4.755   7.784 -0.2873 -0.7378 -0.2751
   53CHL1  H15B 3868   4.619   4.576   7.773  0.6141 -0.3077 -0.2977
   53CHL1   C16 3869   4.732   4.664   7.931 -0.0128 -0.0128  0.7301
   53CHL1  H16A 3870   4.677   4.741   7.989 -2.5073 -0.4259 -0.8862
   53CHL1  H16B 3871   4.733   4.561   7.972  2.1791  0.0318  0.8815
   53CHL1   C17 3872   4.888   4.688   7.917  0.4375  0.3247 -0.3631
   53CHL1   H17 3873   4.928   4.585   7.908  1.3075  0.6721 -0.5876
   53CHL1   C13 3874   4.903   4.759   7.785  0.4762  0.8097 -0.2820
   53CHL1   C18 3875   4.873   4.910   7.811 -0.3765  0.7513 -0.2096
   53CHL1  H18A 3876   4.969   4.955   7.847  0.1294  1.5428 -2.3918
   53CHL1  H18B 3877   4.851   4.969   7.720  0.0282  0.8836 -0.2272
   53CHL1  H18C 3878   4.798   4.925   7.891 -1.0241 -1.5078 -0.3206
   53CHL1   C12 3879   5.041   4.741   7.714  0.2026  0.4969 -0.0924
   53CHL1  H12A 3880   5.125   4.800   7.756  0.6134 -0.2768  0.2059
   53CHL1  H12B 3881   5.064   4.632   7.722 -1.9399  0.1047  1.5148
   53CHL1   C11 3882   5.036   4.776   7.563  0.3108  0.4553  0.0085
   53CHL1  H11A 3883   5.028   4.887   7.574  1.3343  0.3621  2.3184
   53CHL1  H11B 3884   5.131   4.758   7.508 -0.0361  0.1728 -0.5058
   53CHL1    C9 3885   4.908   4.729   7.489 -0.7142 -0.6333  0.5140
   53CHL1    H9 3886   4.906   4.618   7.484 -2.0856 -0.6030 -0.3692
   53CHL1   C10 3887   4.891   4.788   7.339 -0.4134 -0.4728  0.0726
   53CHL1   C19 3888   4.910   4.939   7.354 -0.0526 -0.1805 -0.1014
   53CHL1  H19A 3889   4.899   4.992   7.257  0.8983  1.5422  0.6789
   53CHL1  H19B 3890   4.829   4.975   7.421  0.1791 -2.8105  1.7539
   53CHL1  H19C 3891   5.015   4.960   7.385 -0.0938 -0.4891  0.2624
   53CHL1    C1 3892   5.015   4.738   7.261 -0.1346 -0.0602 -0.1190
   53CHL1   H1A 3893   5.106   4.783   7.306 -0.3148 -0.9651  1.1988
   53CHL1   H1B 3894   5.020   4.628   7.271 -1.1914 -0.2607 -1.4745
   53CHL1    C2 3895   5.002   4.770   7.109  0.1131  0.0310 -0.4329
   53CHL1   H2A 3896   5.078   4.720   7.046 -0.7515 -0.0000 -1.4796
   53CHL1   H2B 3897   5.018   4.875   7.079 -2.0882 -0.2526 -3.0692
   53CHL1   C20 3898   4.948   4.750   8.043 -0.1336  0.4082 -0.3360
   53CHL1   H20 3899   4.910   4.855   8.043 -1.4977 -0.0256  1.7084
   53CHL1   C21 3900   5.105   4.742   8.026  0.2259  0.2841  0.2638
   53CHL1  H21A 3901   5.122   4.644   7.977  1.1362  0.1227  0.8843
   53CHL1  H21B 3902   5.156   4.750   8.124  0.4536  0.4690  0.1293
   53CHL1  H21C 3903   5.140   4.828   7.966 -0.4007  1.5926  1.6984
   53CHL1   C22 3904   4.913   4.665   8.165 -0.7068 -0.1666 -0.0738
   53CHL1  H22A 3905   4.803   4.667   8.181 -0.4169  1.7167  2.3301
   53CHL1  H22B 3906   4.929   4.555   8.161 -1.8969 -0.3254 -1.5606
   53CHL1   C23 3907   4.961   4.719   8.302 -1.1254 -0.1082  0.1092
   53CHL1  H23A 3908   4.928   4.651   8.383  0.6037  0.2003  1.1210
   53CHL1  H23B 3909   5.070   4.698   8.292 -0.9015  0.1824  1.7318
   53CHL1   C24 3910   4.911   4.860   8.336 -0.0897  0.4538 -0.0265
   53CHL1  H24A 3911   4.930   4.940   8.261 -0.2812  2.1683  1.6797
   53CHL1  H24B 3912   4.804   4.865   8.365  0.7477 -0.3817  3.8340
   53CHL1   C25 3913   4.979   4.915   8.464  0.2485  0.6344  0.9922
   53CHL1   H25 3914   5.086   4.937   8.447  0.4972 -0.4183  1.1162
   53CHL1   C26 3915   4.911   5.047   8.493  0.1627 -0.7216 -0.8603
   53CHL1  H26A 3916   4.808   5.033   8.533 -0.0214 -0.0037 -1.0672
   53CHL1  H26B 3917   4.963   5.099   8.576 -3.6636  0.0058  1.3577
   53CHL1  H26C 3918   4.901   5.113   8.404 -3.1236 -0.1352 -0.1902
   53CHL1   C27 3919   4.966   4.823   8.582 -0.0751  0.4601  0.0658
   53CHL1  H27A 3920   4.859   4.825   8.612 -0.0037 -0.4549  0.4185
   53CHL1  H27B 3921   5.003   4.722   8.553 -3.0171  0.3779 -4.2756
   53CHL1  H27C 3922   5.013   4.858   8.677 -2.4276  0.7486  1.1810
   54CHL1    C3 3923   4.581   5.759   6.807  0.0218  0.4209 -0.0110
   54CHL1    H3 3924   4.470   5.772   6.810  0.2636  3.4620 -0.5592
   54CHL1    O3 3925   4.614   5.797   6.682 -0.1392  0.2284 -0.4078
   54CHL1   H3' 3926   4.583   5.888   6.673 -1.9434 -0.3746 -0.7022
   54CHL1    C4 3927   4.637   5.857   6.913 -0.1925  0.4894  0.7993
   54CHL1   H4A 3928   4.747   5.873   6.903 -0.4010  3.0103  1.5913
   54CHL1   H4B 3929   4.593   5.956   6.888 -1.6010  0.0830  1.5578
   54CHL1    C5 3930   4.609   5.815   7.057 -0.0713  0.0331 -0.1597
   54CHL1    C6 3931   4.552   5.906   7.136  0.0224  0.9714 -0.6658
   54CHL1    H6 3932   4.522   6.005   7.098 -3.7049  0.0571 -0.5143
   54CHL1    C7 3933   4.525   5.885   7.286  0.4436 -0.6195 -0.0330
   54CHL1   H7A 3934   4.560   5.976   7.338 -0.1239 -0.0111 -0.7014
   54CHL1   H7B 3935   4.416   5.868   7.298  0.5319 -1.2406 -0.0724
   54CHL1    C8 3936   4.600   5.755   7.338  0.5202 -0.2173 -0.3877
   54CHL1    H8 3937   4.708   5.778   7.349  0.4831 -0.8230  1.5955
   54CHL1   C14 3938   4.545   5.711   7.475 -0.3780  0.9747 -0.0087
   54CHL1   H14 3939   4.440   5.679   7.461 -0.3659  1.4517 -1.2965
   54CHL1   C15 3940   4.520   5.825   7.582  0.1442  0.6741  0.2468
   54CHL1  H15A 3941   4.614   5.884   7.590  1.4772 -1.3532  0.2669
   54CHL1  H15B 3942   4.435   5.890   7.552  0.6962  1.2008 -0.1851
   54CHL1   C16 3943   4.514   5.734   7.705 -0.5883 -0.3088 -0.0101
   54CHL1  H16A 3944   4.556   5.777   7.798 -1.7624  2.3594 -0.6098
   54CHL1  H16B 3945   4.406   5.722   7.730 -0.3241 -0.9506  0.8621
   54CHL1   C17 3946   4.553   5.581   7.670  1.0258 -0.9112 -0.6672
   54CHL1   H17 3947   4.460   5.521   7.673 -0.3338  1.1288  0.8386
   54CHL1   C13 3948   4.613   5.590   7.525 -0.7252  0.2857  0.3191
   54CHL1   C18 3949   4.760   5.616   7.539  0.4651  0.5695  0.6796
   54CHL1  H18A 3950   4.824   5.539   7.587  2.2000  3.0463  2.6293
   54CHL1  H18B 3951   4.816   5.639   7.446 -1.1527  0.4291 -0.3654
   54CHL1  H18C 3952   4.770   5.711   7.595  1.2017  0.5069  0.6621
   54CHL1   C12 3953   4.578   5.476   7.431  0.4550 -0.1924 -0.5029
   54CHL1  H12A 3954   4.625   5.380   7.464  1.3395  0.6286  0.7433
   54CHL1  H12B 3955   4.468   5.470   7.425  0.4013 -0.0684  0.1992
   54CHL1   C11 3956   4.632   5.497   7.282  0.2089  0.5236  0.3704
   54CHL1  H11A 3957   4.742   5.486   7.283  0.2329  0.0446  3.8539
   54CHL1  H11B 3958   4.599   5.410   7.221  3.2867 -0.9898  0.6707
   54CHL1    C9 3959   4.589   5.637   7.228  0.3796  0.5242 -0.1084
   54CHL1    H9 3960   4.479   5.625   7.223  0.0957  2.3267  0.8982
   54CHL1   C10 3961   4.646   5.668   7.091 -0.6408 -0.2872 -0.5964
   54CHL1   C19 3962   4.802   5.662   7.095 -0.7007 -0.4485  0.4442
   54CHL1  H19A 3963   4.840   5.733   7.172  0.0723 -1.0100  0.5899
   54CHL1  H19B 3964   4.832   5.555   7.104 -3.0848 -1.0628  2.3747
   54CHL1  H19C 3965   4.841   5.698   6.998  0.1575 -0.4603  0.7752
   54CHL1    C1 3966   4.594   5.572   6.989  0.1806 -0.3920  0.0806
   54CHL1   H1A 3967   4.631   5.470   7.014 -0.1735 -0.2377  1.2852
   54CHL1   H1B 3968   4.484   5.569   7.003  0.0026 -1.1246 -1.2954
   54CHL1    C2 3969   4.620   5.613   6.841 -0.6136  0.6691 -0.3177
   54CHL1   H2A 3970   4.553   5.552   6.777 -3.2764 -0.0785  2.8744
   54CHL1   H2B 3971   4.728   5.603   6.820 -0.8452 -2.9783 -0.3405
   54CHL1   C20 3972   4.646   5.520   7.775 -0.5163  0.2150  0.4958
   54CHL1   H20 3973   4.742   5.574   7.763 -1.2103  1.4737  0.4792
   54CHL1   C21 3974   4.690   5.376   7.746  0.4201  0.2027 -0.0462
   54CHL1  H21A 3975   4.609   5.301   7.739  0.7853 -0.1732 -0.2332
   54CHL1  H21B 3976   4.771   5.338   7.812  0.1689 -1.2683 -0.5568
   54CHL1  H21C 3977   4.743   5.375   7.649  2.5559 -1.0848  1.0451
   54CHL1   C22 3978   4.593   5.531   7.920 -0.1747 -0.3297 -0.6182
   54CHL1  H22A 3979   4.543   5.628   7.942  1.5442  0.4898 -0.0999
   54CHL1  H22B 3980   4.514   5.455   7.934 -1.4566  1.1417  0.5967
   54CHL1   C23 3981   4.706   5.517   8.019 -0.0989  0.0336 -0.4507
   54CHL1  H23A 3982   4.766   5.423   8.015 -2.9340 -1.8684 -1.1583
   54CHL1  H23B 3983   4.778   5.599   7.998  2.1087 -1.5873  0.3592
   54CHL1   C24 3984   4.651   5.536   8.159 -0.5334 -0.2703 -0.2397
   54CHL1  H24A 3985   4.631   5.645   8.175 -4.7291 -0.7108 -1.2448
   54CHL1  H24B 3986   4.553   5.483   8.164 -2.3099  2.6332 -1.2186
   54CHL1   C25 3987   4.753   5.500   8.270  0.0707  0.4114  0.3401
   54CHL1   H25 3988   4.853   5.542   8.247 -1.3081  2.7587 -1.9576
   54CHL1   C26 3989   4.716   5.551   8.408  0.6329  0.4049 -0.5490
   54CHL1  H26A 3990   4.702   5.661   8.420  3.2513  0.7633 -0.1529
   54CHL1  H26B 3991   4.622   5.499   8.435  2.0333 -1.8827  0.2291
   54CHL1  H26C 3992   4.781   5.522   8.493 -1.9199  0.6496  1.6077
   54CHL1   C27 3993   4.760   5.346   8.288 -0.4014 -0.5523  0.0157
   54CHL1  H27A 3994   4.662   5.314   8.329  0.4855 -1.2014  1.7540
   54CHL1  H27B 3995   4.786   5.299   8.191 -0.5669 -1.8328  0.5781
   54CHL1  H27C 3996   4.845   5.318   8.354 -0.3197 -0.5522 -0.0895
   55CHL1    C3 3997   5.025   1.197   7.290  0.6510 -0.7095 -0.1264
   55CHL1    H3 3998   4.928   1.143   7.297 -0.1036  0.6429  0.2050
   55CHL1    O3 3999   5.064   1.244   7.153 -0.4006 -0.2363 -0.5523
   55CHL1   H3' 4000   5.076   1.163   7.103  0.6938 -1.5469  1.6596
   55CHL1    C4 4001   5.011   1.328   7.381  0.1181 -0.1257 -0.0803
   55CHL1   H4A 4002   5.094   1.399   7.360 -1.3387  1.4503 -0.8188
   55CHL1   H4B 4003   4.930   1.391   7.337 -2.7929 -2.3694  1.7085
   55CHL1    C5 4004   4.996   1.294   7.533 -0.3808 -0.3171  0.1160
   55CHL1    C6 4005   4.895   1.342   7.603  0.0434 -0.4218 -0.6956
   55CHL1    H6 4006   4.827   1.409   7.548 -1.3466  0.7955  2.2593
   55CHL1    C7 4007   4.881   1.334   7.752  0.1448  0.3751 -0.1089
   55CHL1   H7A 4008   4.866   1.433   7.799 -0.0601 -0.4211  1.5469
   55CHL1   H7B 4009   4.800   1.265   7.784  2.3832 -3.3811 -1.8308
   55CHL1    C8 4010   5.012   1.269   7.821  0.2509  0.4960  1.2860
   55CHL1    H8 4011   5.081   1.356   7.827  0.1679  0.5180  1.9915
   55CHL1   C14 4012   4.983   1.211   7.959  0.3674  0.0087 -0.5053
   55CHL1   H14 4013   4.914   1.125   7.945  0.1239  0.2116 -0.5599
   55CHL1   C15 4014   4.909   1.304   8.057 -0.1198 -0.2347 -0.0166
   55CHL1  H15A 4015   4.954   1.405   8.053  2.9529 -1.4522  0.9876
   55CHL1  H15B 4016   4.798   1.311   8.048 -0.4362 -0.9697  2.5075
   55CHL1   C16 4017   4.933   1.243   8.193 -0.3891  0.3082  0.1581
   55CHL1  H16A 4018   4.950   1.310   8.279  0.1052  0.5474 -0.1213
   55CHL1  H16B 4019   4.849   1.176   8.223  0.0918 -1.1352 -1.5572
   55CHL1   C17 4020   5.057   1.138   8.170 -0.9101 -0.1487  0.4392
   55CHL1   H17 4021   5.006   1.039   8.161 -0.0921 -0.4419 -1.3904
   55CHL1   C13 4022   5.115   1.172   8.030  0.4727  0.3997  0.6218
   55CHL1   C18 4023   5.215   1.291   8.048  0.4649 -0.2635  0.0302
   55CHL1  H18A 4024   5.241   1.340   7.952 -0.0877  0.9796  0.4957
   55CHL1  H18B 4025   5.202   1.371   8.123  1.6894  1.8327 -1.8598
   55CHL1  H18C 4026   5.314   1.247   8.072 -0.3094 -1.7832  0.6018
   55CHL1   C12 4027   5.174   1.058   7.939 -0.3856 -0.3050  0.0648
   55CHL1  H12A 4028   5.267   1.017   7.983 -1.6243 -2.3220  0.9353
   55CHL1  H12B 4029   5.100   0.976   7.944 -0.7128 -0.1067 -1.1246
   55CHL1   C11 4030   5.216   1.105   7.803  0.4447 -0.2564 -0.5214
   55CHL1  H11A 4031   5.299   1.179   7.809  1.7032 -1.3972 -2.6451
   55CHL1  H11B 4032   5.254   1.017   7.748  1.1863  0.5972 -1.4202
   55CHL1    C9 4033   5.082   1.155   7.735  0.4756 -0.6469  0.2201
   55CHL1    H9 4034   5.021   1.063   7.739 -1.5264  0.5536 -0.7463
   55CHL1   C10 4035   5.102   1.203   7.586 -0.3893 -0.1363 -0.1600
   55CHL1   C19 4036   5.249   1.277   7.571 -0.9791 -0.9536 -0.1495
   55CHL1  H19A 4037   5.269   1.335   7.664  1.5035 -3.0436  0.7164
   55CHL1  H19B 4038   5.330   1.201   7.570 -0.6242 -0.6174 -2.0837
   55CHL1  H19C 4039   5.254   1.337   7.477  0.8910 -2.1983 -0.9148
   55CHL1    C1 4040   5.114   1.073   7.502  0.3091  0.1534  0.2436
   55CHL1   H1A 4041   5.206   1.020   7.535  0.2356  0.5135  1.0578
   55CHL1   H1B 4042   5.028   1.005   7.518 -0.9832  1.1125 -2.1048
   55CHL1    C2 4043   5.133   1.105   7.352  0.1930 -0.8051  0.4501
   55CHL1   H2A 4044   5.130   1.010   7.293 -0.1132  0.1772 -1.1856
   55CHL1   H2B 4045   5.235   1.144   7.332  0.9872 -3.0921 -0.3892
   55CHL1   C20 4046   5.155   1.137   8.288 -0.1709  0.1863 -0.7800
   55CHL1   H20 4047   5.206   1.235   8.299  1.4051 -0.6303 -0.4953
   55CHL1   C21 4048   5.262   1.033   8.256 -0.1940 -0.4229  0.7550
   55CHL1  H21A 4049   5.332   1.024   8.342 -0.7418 -1.6021  1.1000
   55CHL1  H21B 4050   5.326   1.056   8.168 -0.1250 -2.4132  0.2478
   55CHL1  H21C 4051   5.217   0.936   8.228  0.9145 -0.6391 -0.3813
   55CHL1   C22 4052   5.090   1.107   8.425 -0.9895  0.7051  0.5448
   55CHL1  H22A 4053   5.009   1.179   8.446 -0.8806  0.7742  0.7311
   55CHL1  H22B 4054   5.044   1.006   8.430 -0.4451  0.4172 -0.0517
   55CHL1   C23 4055   5.190   1.123   8.546  0.9169  0.1479 -0.1590
   55CHL1  H23A 4056   5.258   1.034   8.546  0.2375 -0.3747  0.1512
   55CHL1  H23B 4057   5.240   1.221   8.533 -0.6617  0.9617 -0.2816
   55CHL1   C24 4058   5.107   1.133   8.674  0.3402  0.1914 -0.8097
   55CHL1  H24A 4059   5.021   1.202   8.662 -0.8829 -0.5814  2.5590
   55CHL1  H24B 4060   5.072   1.030   8.695  2.6702 -1.0568 -2.5198
   55CHL1   C25 4061   5.180   1.202   8.792 -0.2200  0.0466 -0.5238
   55CHL1   H25 4062   5.200   1.304   8.752  0.2599 -0.1092 -0.6942
   55CHL1   C26 4063   5.089   1.209   8.918 -0.9800 -0.1796  0.2403
   55CHL1  H26A 4064   5.039   1.113   8.943  2.8083 -1.8834  2.0424
   55CHL1  H26B 4065   5.145   1.237   9.010  0.6151 -0.6714 -0.5524
   55CHL1  H26C 4066   5.006   1.276   8.886 -1.6961 -1.0049  0.3349
   55CHL1   C27 4067   5.303   1.128   8.832  0.5108 -0.4556  0.1190
   55CHL1  H27A 4068   5.339   1.167   8.930 -3.7614 -1.0203  2.1561
   55CHL1  H27B 4069   5.288   1.020   8.854  0.7613 -0.2281  1.5595
   55CHL1  H27C 4070   5.375   1.131   8.748 -0.5385  1.4967 -0.7671
   56CHL1    C3 4071   4.533   1.812   7.060  0.3132 -0.2321  0.4874
   56CHL1    H3 4072   4.643   1.816   7.054  0.4170 -0.2601  2.0686
   56CHL1    O3 4073   4.480   1.828   6.928 -0.1443 -0.0842 -0.3645
   56CHL1   H3' 4074   4.404   1.886   6.925  0.0824  0.2960  0.7688
   56CHL1    C4 4075   4.464   1.679   7.104  0.0949 -0.6018  0.1318
   56CHL1   H4A 4076   4.357   1.700   7.084 -0.5623 -3.0375  0.7925
   56CHL1   H4B 4077   4.483   1.592   7.038 -1.6509 -3.4416  3.0417
   56CHL1    C5 4078   4.487   1.645   7.253  1.0505  0.0181  0.3377
   56CHL1    C6 4079   4.535   1.526   7.293 -0.3060  0.8924 -0.0700
   56CHL1    H6 4080   4.558   1.442   7.226 -0.8340 -0.2740  1.1444
   56CHL1    C7 4081   4.557   1.485   7.438 -0.5484  0.4876 -0.0056
   56CHL1   H7A 4082   4.529   1.378   7.444 -0.5345  0.0992 -3.9777
   56CHL1   H7B 4083   4.665   1.493   7.463 -0.6498  0.3746  0.4775
   56CHL1    C8 4084   4.481   1.578   7.533 -0.1641  0.0764 -0.0892
   56CHL1    H8 4085   4.381   1.530   7.534  0.7722 -2.0822  2.2559
   56CHL1   C14 4086   4.526   1.565   7.680  0.4814  0.7858  0.1081
   56CHL1   H14 4087   4.632   1.597   7.670  1.2030 -1.9937 -2.5193
   56CHL1   C15 4088   4.534   1.418   7.737  0.4768  0.3350  1.0547
   56CHL1  H15A 4089   4.440   1.364   7.712  0.0700  1.9168 -1.1078
   56CHL1  H15B 4090   4.612   1.362   7.681 -2.8580 -0.4755 -3.3176
   56CHL1   C16 4091   4.552   1.444   7.886  0.2861  0.0851 -0.1179
   56CHL1  H16A 4092   4.480   1.382   7.943 -0.6682  1.7220  0.5150
   56CHL1  H16B 4093   4.653   1.418   7.924  0.4568 -2.8325 -2.1741
   56CHL1   C17 4094   4.519   1.598   7.913  0.6423  0.2033 -0.2358
   56CHL1   H17 4095   4.617   1.650   7.911  0.1330  1.2985  1.2887
   56CHL1   C13 4096   4.447   1.643   7.780 -0.0556 -0.4530  0.1661
   56CHL1   C18 4097   4.299   1.621   7.769  0.5831 -0.3480  0.0219
   56CHL1  H18A 4098   4.252   1.645   7.671 -1.1956  0.9925  1.1383
   56CHL1  H18B 4099   4.265   1.524   7.810 -0.6859  0.4508  0.9451
   56CHL1  H18C 4100   4.252   1.690   7.842  0.6801 -3.1302  2.9333
   56CHL1   C12 4101   4.495   1.793   7.743  0.2780 -0.2422  0.6053
   56CHL1  H12A 4102   4.449   1.860   7.818  0.7068 -1.0689  1.6299
   56CHL1  H12B 4103   4.606   1.797   7.741  0.3096  1.6302 -2.6907
   56CHL1   C11 4104   4.441   1.820   7.599 -1.2018  0.1533 -0.3426
   56CHL1  H11A 4105   4.332   1.816   7.619 -0.9271  2.4352  2.3184
   56CHL1  H11B 4106   4.458   1.924   7.563 -1.3182 -0.1942 -1.4229
   56CHL1    C9 4107   4.497   1.725   7.492  0.9569 -0.6946  0.4722
   56CHL1    H9 4108   4.606   1.745   7.484  0.2557  5.2027  1.0845
   56CHL1   C10 4109   4.447   1.759   7.346  0.8305 -0.0631  0.1490
   56CHL1   C19 4110   4.287   1.758   7.351  0.0038  0.0943 -0.0951
   56CHL1  H19A 4111   4.251   1.669   7.408 -2.1223  2.6707  3.0025
   56CHL1  H19B 4112   4.255   1.855   7.395 -0.9782 -0.2404 -0.0265
   56CHL1  H19C 4113   4.250   1.752   7.247  0.5392 -0.6196 -0.2522
   56CHL1    C1 4114   4.500   1.897   7.295  0.0740  0.0664 -0.4015
   56CHL1   H1A 4115   4.458   1.982   7.353 -1.0692 -1.7792  1.5918
   56CHL1   H1B 4116   4.610   1.902   7.311  0.4492  1.2195 -2.8593
   56CHL1    C2 4117   4.475   1.927   7.145  0.0450 -0.3126  0.1454
   56CHL1   H2A 4118   4.516   2.028   7.124 -2.6215  0.7973 -0.1724
   56CHL1   H2B 4119   4.364   1.935   7.139  0.1053  2.7456  1.1411
   56CHL1   C20 4120   4.452   1.616   8.056 -0.2996 -0.0372 -0.0079
   56CHL1   H20 4121   4.350   1.572   8.060 -0.8343  1.0365 -1.0082
   56CHL1   C21 4122   4.438   1.766   8.080  0.4028  0.7456 -0.4826
   56CHL1  H21A 4123   4.536   1.819   8.074  1.1447 -0.5676 -0.2702
   56CHL1  H21B 4124   4.414   1.790   8.186 -1.6005  0.3936 -0.8305
   56CHL1  H21C 4125   4.369   1.820   8.013  1.8823  2.5139 -0.6850
   56CHL1   C22 4126   4.546   1.561   8.167 -0.5988  0.5696  0.9107
   56CHL1  H22A 4127   4.565   1.455   8.138 -1.0384  0.4517  1.0479
   56CHL1  H22B 4128   4.641   1.613   8.144  0.3346 -1.5664 -0.4390
   56CHL1   C23 4129   4.511   1.580   8.319 -0.2793 -0.1011  0.5785
   56CHL1  H23A 4130   4.527   1.685   8.352  0.0767  0.2890 -0.7765
   56CHL1  H23B 4131   4.400   1.574   8.327 -0.3281  0.2990  0.2092
   56CHL1   C24 4132   4.584   1.480   8.413 -0.0178  0.0766  0.0434
   56CHL1  H24A 4133   4.693   1.495   8.397 -0.1719  1.0415 -0.2099
   56CHL1  H24B 4134   4.557   1.500   8.519  1.4145  0.9794  0.2656
   56CHL1   C25 4135   4.555   1.328   8.380  0.0279  0.1041  0.0104
   56CHL1   H25 4136   4.599   1.297   8.283 -0.1818 -0.0883 -0.0218
   56CHL1   C26 4137   4.623   1.236   8.482  0.3152 -0.2106 -0.4716
   56CHL1  H26A 4138   4.594   1.252   8.588 -1.0664 -2.8632 -0.3689
   56CHL1  H26B 4139   4.733   1.250   8.480  0.1525  1.4313  0.3965
   56CHL1  H26C 4140   4.615   1.127   8.460  0.0184  0.2272 -2.8269
   56CHL1   C27 4141   4.397   1.311   8.357 -0.1474  0.2779 -0.2607
   56CHL1  H27A 4142   4.352   1.331   8.457  2.3458  1.3213  0.7541
   56CHL1  H27B 4143   4.356   1.377   8.278  1.0904  1.3643 -0.0325
   56CHL1  H27C 4144   4.371   1.205   8.337 -1.9775  0.2202  1.9455
   57SAPC     N 4145   2.898   3.660  10.933 -0.0317 -0.2401 -0.2164
   57SAPC   C12 4146   2.816   3.539  10.914 -0.2341  0.4382 -0.3014
   57SAPC  H12A 4147   2.733   3.566  10.850 -0.8516  0.5470  0.5293
   57SAPC  H12B 4148   2.780   3.496  11.006  2.1151  0.8307  0.8831
   57SAPC   C13 4149   2.997   3.649  11.040  0.8495  0.1682 -0.0507
   57SAPC  H13A 4150   3.045   3.553  11.035 -1.4504 -1.0154 -0.2884
   57SAPC  H13B 4151   3.074   3.724  11.024 -1.0478  1.7076 -2.8046
   57SAPC  H13C 4152   2.948   3.646  11.136  2.7586 -0.1070  0.9672
   57SAPC   C14 4153   2.972   3.697  10.811 -0.6462 -0.4523  0.2305
   57SAPC  H14A 4154   3.033   3.784  10.829 -1.5733  0.2763 -0.0145
   57SAPC  H14B 4155   3.043   3.620  10.785 -0.0639  0.0681  0.2543
   57SAPC  H14C 4156   2.918   3.714  10.719  0.7476  1.5252 -0.2831
   57SAPC   C15 4157   2.804   3.776  10.973  0.1050  0.8030 -0.9826
   57SAPC  H15A 4158   2.863   3.866  10.977  0.5203  0.6005 -2.1003
   57SAPC  H15B 4159   2.715   3.796  10.915  0.2120  2.7567 -0.5255
   57SAPC  H15C 4160   2.772   3.758  11.074  0.8618 -1.0947 -1.0439
   57SAPC   C11 4161   2.894   3.431  10.834  0.3145 -0.0454  0.7075
   57SAPC  H11A 4162   2.905   3.478  10.735  2.1134  0.4949  1.1286
   57SAPC  H11B 4163   2.826   3.347  10.808  0.2964  0.5168 -1.1958
   57SAPC     P 4164   3.124   3.338  10.785  0.2981  0.2609  0.5489
   57SAPC   O13 4165   3.256   3.342  10.847  0.0842 -0.4415 -0.6523
   57SAPC   O14 4166   3.093   3.204  10.734  0.3282 -0.4473  0.9088
   57SAPC   O12 4167   3.018   3.385  10.892 -0.0702  0.2808  0.4964
   57SAPC   O11 4168   3.124   3.453  10.671 -0.3005 -0.3550 -0.4812
   57SAPC    C1 4169   3.180   3.439  10.540  0.0439 -0.2079 -0.0593
   57SAPC    HA 4170   3.219   3.536  10.502  1.4626 -0.6551  0.2328
   57SAPC    HB 4171   3.263   3.366  10.545 -0.2364 -0.7552 -2.2908
   57SAPC    C2 4172   3.078   3.407  10.426  0.6590 -1.0193  0.5364
   57SAPC    HS 4173   3.000   3.485  10.439  1.2610 -0.1397 -0.9127
   57SAPC   O21 4174   3.026   3.276  10.447 -0.6182 -0.3898 -0.3819
   57SAPC   C21 4175   2.902   3.264  10.431  0.6182  0.0631 -0.5758
   57SAPC   O22 4176   2.817   3.350  10.410 -0.3763 -0.7151  0.2526
   57SAPC   C22 4177   2.878   3.119  10.421  0.0640 -0.1680 -0.0774
   57SAPC   H2R 4178   2.969   3.056  10.435  0.7325  1.3029  3.4745
   57SAPC   H2S 4179   2.819   3.088  10.510 -0.2997 -0.1182 -0.2982
   57SAPC    C3 4180   3.127   3.425  10.279 -0.2883 -0.2856 -0.5852
   57SAPC    HX 4181   3.040   3.401  10.216  1.0339 -0.9865 -2.2029
   57SAPC    HY 4182   3.203   3.345  10.269  0.4458  0.0740  1.5476
   57SAPC   O31 4183   3.189   3.552  10.251  0.0499  0.2776 -0.0608
   57SAPC   C31 4184   3.247   3.553  10.128  0.3536 -0.2533  0.2365
   57SAPC   O32 4185   3.255   3.457  10.054 -0.4099  0.0097  0.3150
   57SAPC   C32 4186   3.312   3.688  10.090 -0.4951  0.0234 -1.0920
   57SAPC   H2X 4187   3.419   3.658  10.099 -0.4052  0.6962  0.5924
   57SAPC   H2Y 4188   3.289   3.766  10.166  0.2828 -1.7192  1.0605
   57SAPC   C23 4189   2.804   3.087  10.286 -0.4557  0.2191 -0.6660
   57SAPC   H3R 4190   2.730   3.169  10.276 -0.7177  0.1495  0.5859
   57SAPC   H3S 4191   2.755   2.987  10.291  0.7657 -0.3279  1.0596
   57SAPC   C24 4192   2.889   3.091  10.158 -0.4335  0.5458  0.2389
   57SAPC   H4R 4193   2.950   3.001  10.179 -1.8470 -0.6232 -0.5097
   57SAPC   H4S 4194   2.945   3.186  10.148 -0.1061  0.3332  0.0501
   57SAPC   C25 4195   2.817   3.058  10.041  0.6291  0.4452  0.9260
   57SAPC   H5R 4196   2.755   2.968  10.038  3.6079 -1.7618  0.5787
   57SAPC   C26 4197   2.835   3.130   9.928 -0.3631 -0.1298 -0.0849
   57SAPC   H6R 4198   2.779   3.102   9.837  0.6763 -0.2826 -0.6926
   57SAPC   C27 4199   2.934   3.249   9.906 -0.2473  0.0235 -0.2837
   57SAPC   H7R 4200   2.929   3.312   9.998 -2.0757 -0.2184 -0.1735
   57SAPC   H7S 4201   2.899   3.317   9.825 -0.5127  0.1129 -0.0957
   57SAPC   C28 4202   3.076   3.198   9.890  0.0285 -0.6494 -0.1238
   57SAPC   H8R 4203   3.112   3.177   9.992  1.8769 -1.8622 -0.9751
   57SAPC   C29 4204   3.145   3.184   9.774 -0.4814 -0.1382 -0.3283
   57SAPC   H9R 4205   3.245   3.138   9.779 -1.1452 -1.5533  0.2478
   57SAPC  C210 4206   3.093   3.208   9.636 -0.5603  0.4035  0.2871
   57SAPC  H10R 4207   3.008   3.138   9.627 -0.6151  0.4524  0.4264
   57SAPC  H10S 4208   3.171   3.161   9.573  0.2870  2.0709  0.0139
   57SAPC  C211 4209   3.082   3.354   9.607 -0.1469  0.2796 -0.1492
   57SAPC  H11R 4210   2.979   3.393   9.608  1.0923  4.0370 -1.8365
   57SAPC  C212 4211   3.182   3.443   9.576  0.4489 -0.0647 -0.3450
   57SAPC  H12R 4212   3.153   3.549   9.583 -1.0704 -0.5526  2.0064
   57SAPC  C213 4213   3.324   3.417   9.566  0.0580 -0.0860 -0.8321
   57SAPC  H13R 4214   3.341   3.330   9.499 -0.2315 -2.0535  1.4729
   57SAPC  H13S 4215   3.368   3.390   9.665  0.5853  0.4220 -0.9246
   57SAPC  C214 4216   3.408   3.541   9.523 -0.6759 -0.3995 -0.0432
   57SAPC  H14R 4217   3.396   3.622   9.597 -0.7999 -0.3142 -0.1566
   57SAPC  C215 4218   3.476   3.560   9.408  1.0165 -0.2731  0.3992
   57SAPC  H15R 4219   3.530   3.654   9.387  0.4204  0.0867  0.4535
   57SAPC  C216 4220   3.486   3.451   9.301  1.0592  0.7626 -0.8708
   57SAPC  H16R 4221   3.489   3.492   9.197  0.7293  0.9610 -0.8057
   57SAPC  H16S 4222   3.388   3.397   9.301 -1.5442  5.0019  0.4179
   57SAPC  C217 4223   3.602   3.354   9.329  0.6954  1.0102  0.1296
   57SAPC  H17R 4224   3.582   3.300   9.424  2.1419 -0.9892 -0.6492
   57SAPC  H17S 4225   3.699   3.409   9.326 -1.6518  5.8255  1.7995
   57SAPC  C218 4226   3.607   3.226   9.240  0.5082  0.0257 -0.0656
   57SAPC  H18R 4227   3.597   3.255   9.133 -0.7847 -0.9215 -0.2256
   57SAPC  H18S 4228   3.524   3.156   9.260 -1.2535  1.6644 -1.2245
   57SAPC  C219 4229   3.743   3.159   9.269  0.1285  0.5013  0.2833
   57SAPC  H19R 4230   3.757   3.120   9.372  0.3859 -0.1468  0.0125
   57SAPC  H19S 4231   3.816   3.241   9.253 -0.4514  1.2935  1.5900
   57SAPC  C220 4232   3.787   3.047   9.171 -0.0293 -0.0908 -0.9639
   57SAPC  H20R 4233   3.891   3.020   9.199  0.1679  0.7321 -0.8966
   57SAPC  H20S 4234   3.766   3.088   9.070 -1.0120  0.2516 -0.6251
   57SAPC  H20T 4235   3.735   2.951   9.194  0.4118 -0.5894 -1.9621
   57SAPC   C33 4236   3.285   3.733   9.944  0.3444 -0.6484 -0.6345
   57SAPC   H3X 4237   3.304   3.648   9.875  2.7688 -0.2117 -0.6058
   57SAPC   H3Y 4238   3.357   3.817   9.932  0.3904 -0.7802 -1.2936
   57SAPC   C34 4239   3.142   3.779   9.930  0.0532 -0.0734 -0.8059
   57SAPC   H4X 4240   3.109   3.830  10.023  2.2160  0.3377 -0.2096
   57SAPC   H4Y 4241   3.088   3.682   9.919  0.0531 -0.4411  1.7951
   57SAPC   C35 4242   3.113   3.883   9.821  0.3076  0.4270 -0.0742
   57SAPC   H5X 4243   3.195   3.959   9.819  0.4772  0.3467  1.7693
   57SAPC   H5Y 4244   3.021   3.932   9.858  0.8668  0.4951  1.2788
   57SAPC   C36 4245   3.092   3.831   9.676 -0.1150  0.3854  0.4974
   57SAPC   H6X 4246   3.004   3.763   9.672 -0.3692  0.7434 -0.2196
   57SAPC   H6Y 4247   3.183   3.781   9.636 -1.2530 -0.9706 -0.4855
   57SAPC   C37 4248   3.070   3.953   9.586 -0.2819  0.6535  0.9034
   57SAPC   H7X 4249   3.149   4.025   9.618  0.3327  0.8299 -0.9204
   57SAPC   H7Y 4250   2.973   4.005   9.604 -1.1743 -0.9243  0.8050
   57SAPC   C38 4251   3.080   3.927   9.433  0.1475 -0.4417 -0.1689
   57SAPC   H8X 4252   3.057   4.027   9.391 -2.3315  0.2463  2.4914
   57SAPC   H8Y 4253   2.993   3.871   9.393 -0.3416 -0.3213  0.6931
   57SAPC   C39 4254   3.210   3.870   9.379 -0.0211  0.4757 -0.6200
   57SAPC   H9X 4255   3.210   3.766   9.419  0.7779  0.8435  0.3976
   57SAPC   H9Y 4256   3.298   3.914   9.430 -0.2351 -0.1406  0.3191
   57SAPC  C310 4257   3.221   3.879   9.226  0.5471 -1.0963  0.4066
   57SAPC  H10X 4258   3.197   3.984   9.202  0.1179 -1.3707 -0.4124
   57SAPC  H10Y 4259   3.139   3.818   9.181  0.0616 -0.5970  0.6045
   57SAPC  C311 4260   3.365   3.849   9.170  0.7071 -0.2516  0.0544
   57SAPC  H11X 4261   3.365   3.869   9.061  0.0033 -1.8154 -0.2674
   57SAPC  H11Y 4262   3.373   3.738   9.176  1.3836 -0.2577 -0.7608
   57SAPC  C312 4263   3.491   3.926   9.226 -0.1886 -0.0049  0.9927
   57SAPC  H12X 4264   3.567   3.894   9.152 -0.8967 -0.1992  0.3303
   57SAPC  H12Y 4265   3.504   3.906   9.335 -0.3684 -1.2936  0.7945
   57SAPC  C313 4266   3.474   4.078   9.209 -0.3595 -0.6540  0.1192
   57SAPC  H13X 4267   3.533   4.125   9.290 -0.2902 -0.5287 -0.0021
   57SAPC  H13Y 4268   3.370   4.109   9.232 -0.6217 -2.1941  1.1091
   57SAPC  C314 4269   3.507   4.123   9.064  0.2820  0.4834  0.4009
   57SAPC  H14X 4270   3.462   4.058   8.986 -0.2806  0.3442  0.8387
   57SAPC  H14Y 4271   3.616   4.107   9.050  0.2918  0.3354  0.6397
   57SAPC  C315 4272   3.473   4.273   9.035 -0.6386  0.5036 -0.4055
   57SAPC  H15X 4273   3.364   4.291   9.041 -0.7118 -0.1879  0.5122
   57SAPC  H15Y 4274   3.501   4.286   8.928  3.5135 -1.5208  0.2360
   57SAPC  C316 4275   3.556   4.365   9.119 -0.0483 -0.4306 -0.0994
   57SAPC  H16X 4276   3.667   4.351   9.116 -0.2024 -2.2710  1.1838
   57SAPC  H16Y 4277   3.539   4.357   9.228 -2.5134 -0.5154 -0.4356
   57SAPC  C317 4278   3.521   4.509   9.088 -1.7475 -0.0699 -0.8308
   57SAPC  H17X 4279   3.425   4.537   9.135 -1.1997 -1.6104  1.3434
   57SAPC  H17Y 4280   3.509   4.522   8.978  1.5092 -1.0421 -1.4000
   57SAPC  C318 4281   3.641   4.594   9.138  0.0671 -0.0629  0.1950
   57SAPC  H18X 4282   3.604   4.699   9.138 -1.1753 -0.4612 -1.6858
   57SAPC  H18Y 4283   3.724   4.566   9.070 -1.1481 -3.0156 -0.2432
   57SAPC  H18Z 4284   3.683   4.565   9.237  1.7248  0.7906 -0.2217
   58SAPC     N 4285   4.003   1.911  10.980  0.7032 -0.3665  0.3165
   58SAPC   C12 4286   3.942   1.868  10.852  0.1562 -0.9231 -0.5089
   58SAPC  H12A 4287   4.011   1.868  10.769 -1.4641  2.2660 -2.0642
   58SAPC  H12B 4288   3.889   1.949  10.803  2.6460 -0.7498 -3.1825
   58SAPC   C13 4289   4.099   2.031  10.949 -0.3142 -0.2505  0.7951
   58SAPC  H13A 4290   4.139   2.058  11.046 -1.2628  0.7095  0.9420
   58SAPC  H13B 4291   4.180   2.005  10.883 -1.2719 -0.0070 -0.5313
   58SAPC  H13C 4292   4.039   2.118  10.926  2.8809  2.1253  0.8940
   58SAPC   C14 4293   3.895   1.974  11.067  0.2288 -0.2743  0.3042
   58SAPC  H14A 4294   3.841   2.059  11.030 -0.8462 -0.0346  2.2879
   58SAPC  H14B 4295   3.813   1.905  11.084  0.6641 -0.2324  3.0752
   58SAPC  H14C 4296   3.940   2.009  11.159 -0.4505  1.5748 -0.0302
   58SAPC   C15 4297   4.082   1.811  11.053  0.1534 -0.1922  0.6381
   58SAPC  H15A 4298   4.174   1.800  10.999 -0.6356  1.8256 -1.2427
   58SAPC  H15B 4299   4.096   1.841  11.156  0.3205 -2.9420  1.4980
   58SAPC  H15C 4300   4.022   1.723  11.070 -1.5735  0.9347  0.6289
   58SAPC   C11 4301   3.860   1.743  10.856  0.2186 -0.2644 -0.5872
   58SAPC  H11A 4302   3.809   1.732  10.758 -0.1254  1.5183 -0.6519
   58SAPC  H11B 4303   3.772   1.767  10.919 -0.1818  0.7526 -1.4966
   58SAPC     P 4304   3.990   1.521  10.781  0.0701  0.1981 -0.0476
   58SAPC   O13 4305   4.131   1.490  10.818 -0.1826  0.0078  0.1499
   58SAPC   O14 4306   3.900   1.406  10.774 -0.8422  0.1566  0.6690
   58SAPC   O12 4307   3.928   1.622  10.882 -0.0808 -0.3887  0.6114
   58SAPC   O11 4308   3.983   1.593  10.648  0.0665 -0.4359 -0.0733
   58SAPC    C1 4309   4.089   1.661  10.580  0.0998 -0.2093  0.4079
   58SAPC    HA 4310   4.050   1.759  10.543 -0.4576 -0.5088  0.1926
   58SAPC    HB 4311   4.177   1.679  10.646 -0.1003  0.4976  0.4917
   58SAPC    C2 4312   4.144   1.590  10.453  0.7436  0.5610 -0.2928
   58SAPC    HS 4313   4.197   1.496  10.479  1.3962  0.9940 -0.0456
   58SAPC   O21 4314   4.223   1.683  10.382  0.6230 -0.5637  0.3386
   58SAPC   C21 4315   4.350   1.682  10.423 -0.2107 -0.3317 -0.3386
   58SAPC   O22 4316   4.389   1.615  10.516  0.2812 -0.1456  0.1069
   58SAPC   C22 4317   4.422   1.788  10.342  0.3271  0.5087  0.2651
   58SAPC   H2R 4318   4.364   1.836  10.260  1.5753 -0.1232 -1.0397
   58SAPC   H2S 4319   4.446   1.868  10.415  0.9490 -0.0757  0.7122
   58SAPC    C3 4320   4.026   1.551  10.361 -0.0644  0.1194  0.1098
   58SAPC    HX 4321   3.970   1.639  10.326  0.6597  0.8588  0.7670
   58SAPC    HY 4322   3.946   1.501  10.419 -0.3660  0.8984  0.3644
   58SAPC   O31 4323   4.084   1.474  10.251  0.0332 -0.0328  0.1777
   58SAPC   C31 4324   4.033   1.353  10.243 -0.0548  0.3258 -0.0224
   58SAPC   O32 4325   3.968   1.299  10.327  0.0218 -0.3798 -0.2111
   58SAPC   C32 4326   4.071   1.293  10.102 -0.4199  0.1723 -0.5116
   58SAPC   H2X 4327   4.102   1.186  10.109 -2.4432 -0.4102  0.2459
   58SAPC   H2Y 4328   4.160   1.354  10.075 -0.1358  1.7848  3.5400
   58SAPC   C23 4329   4.553   1.734  10.280 -0.0668  0.2900 -0.5227
   58SAPC   H3R 4330   4.533   1.642  10.221  0.4499 -1.7483  2.2395
   58SAPC   H3S 4331   4.630   1.711  10.357  1.3542  0.8829 -1.7242
   58SAPC   C24 4332   4.615   1.843  10.189  0.1034  0.4998  0.5799
   58SAPC   H4R 4333   4.693   1.795  10.125 -1.5935  0.1731 -1.3515
   58SAPC   H4S 4334   4.675   1.909  10.255  2.1134  0.3162 -0.9497
   58SAPC   C25 4335   4.520   1.921  10.089 -0.4454  0.1138 -0.1263
   58SAPC   H5R 4336   4.502   2.024  10.126 -1.2310 -0.0242 -0.1129
   58SAPC   C26 4337   4.474   1.887   9.970  0.6877  0.0056  0.6184
   58SAPC   H6R 4338   4.398   1.956   9.928  0.9499  0.7287  1.3188
   58SAPC   C27 4339   4.512   1.758   9.895 -0.1296  0.3273 -0.1512
   58SAPC   H7R 4340   4.618   1.738   9.921 -0.1974  1.1199  0.8088
   58SAPC   H7S 4341   4.511   1.784   9.787  1.5083  1.8304  0.1486
   58SAPC   C28 4342   4.426   1.637   9.929 -0.3781 -0.1900  0.3798
   58SAPC   H8R 4343   4.440   1.583  10.024 -1.7415 -1.3434 -0.0474
   58SAPC   C29 4344   4.349   1.569   9.838  0.0587 -0.1791 -0.5661
   58SAPC   H9R 4345   4.304   1.474   9.871 -1.5393  0.3873 -1.0377
   58SAPC  C210 4346   4.337   1.595   9.686 -0.3546  0.5238 -0.2632
   58SAPC  H10R 4347   4.318   1.705   9.684  0.9586  0.7686 -1.5605
   58SAPC  H10S 4348   4.249   1.534   9.659 -0.1076  0.4566 -0.9154
   58SAPC  C211 4349   4.461   1.563   9.599  0.4528  0.5585  0.5791
   58SAPC  H11R 4350   4.547   1.515   9.648  0.2472 -0.1603  0.2395
   58SAPC  C212 4351   4.466   1.550   9.466 -0.2493 -0.0662 -0.0420
   58SAPC  H12R 4352   4.564   1.522   9.425 -0.4318  0.4800 -0.8772
   58SAPC  C213 4353   4.360   1.578   9.359 -0.4051 -0.1383  0.2057
   58SAPC  H13R 4354   4.391   1.660   9.291 -1.1558 -0.1838 -0.2118
   58SAPC  H13S 4355   4.282   1.624   9.424 -0.1972 -0.8288  0.9700
   58SAPC  C214 4356   4.298   1.456   9.301  0.3699 -0.3081  0.4238
   58SAPC  H14R 4357   4.212   1.414   9.355  0.0657 -4.1915 -2.6574
   58SAPC  C215 4358   4.333   1.400   9.186  0.6015 -0.3588 -0.4100
   58SAPC  H15R 4359   4.271   1.318   9.147  1.3860 -1.0524 -0.2169
   58SAPC  C216 4360   4.438   1.431   9.087 -0.5270  0.4154 -0.0860
   58SAPC  H16R 4361   4.514   1.352   9.069 -0.7317  0.1160  0.3302
   58SAPC  H16S 4362   4.497   1.519   9.117 -0.4567 -0.0751  1.2582
   58SAPC  C217 4363   4.367   1.452   8.957 -0.4165 -0.2313  0.4828
   58SAPC  H17R 4364   4.446   1.487   8.888  1.0025 -0.7948  1.7706
   58SAPC  H17S 4365   4.300   1.541   8.956 -0.0096  0.1049 -1.4713
   58SAPC  C218 4366   4.302   1.327   8.893  0.2842  0.6091 -0.0929
   58SAPC  H18R 4367   4.241   1.269   8.965 -0.0932 -0.8448 -1.5260
   58SAPC  H18S 4368   4.376   1.244   8.880 -0.7616 -0.5373  0.9976
   58SAPC  C219 4369   4.228   1.350   8.757 -0.2172 -0.2293  0.5382
   58SAPC  H19R 4370   4.234   1.253   8.703  0.4605 -1.0717  2.0521
   58SAPC  H19S 4371   4.298   1.418   8.705  0.4061  0.2945  2.0246
   58SAPC  C220 4372   4.081   1.396   8.765  0.5058  0.1750  0.3160
   58SAPC  H20R 4373   4.021   1.321   8.821 -0.7722  1.3386  0.5730
   58SAPC  H20S 4374   4.037   1.417   8.665  0.7947 -1.1317 -0.0963
   58SAPC  H20T 4375   4.070   1.493   8.819  0.2961  0.6576 -0.5619
   58SAPC   C33 4376   3.960   1.316  10.003  0.9255  0.2451  0.3573
   58SAPC   H3X 4377   3.916   1.417  10.014 -2.7291 -1.1273 -0.4838
   58SAPC   H3Y 4378   3.878   1.243  10.020  0.6702  1.0008  2.7268
   58SAPC   C34 4379   4.004   1.296   9.859 -0.6581 -0.2718 -0.1144
   58SAPC   H4X 4380   4.065   1.203   9.851  0.3517  0.4866 -1.7913
   58SAPC   H4Y 4381   4.085   1.371   9.849 -1.5805  0.7468 -0.1258
   58SAPC   C35 4382   3.905   1.295   9.746 -0.7776 -0.0204  0.4619
   58SAPC   H5X 4383   3.828   1.376   9.742 -1.3527 -0.5219  1.0352
   58SAPC   H5Y 4384   3.848   1.200   9.751 -0.8256  0.0294  0.8694
   58SAPC   C36 4385   3.967   1.308   9.608  0.5609 -0.1715 -0.2056
   58SAPC   H6X 4386   4.048   1.232   9.620  0.7457  0.1774  0.8741
   58SAPC   H6Y 4387   4.018   1.407   9.605 -0.0635  0.1316 -2.6637
   58SAPC   C37 4388   3.869   1.283   9.488 -0.6127  0.2943 -0.6005
   58SAPC   H7X 4389   3.794   1.365   9.491  1.6604  2.5091 -0.0999
   58SAPC   H7Y 4390   3.833   1.180   9.503  0.4327 -0.0582 -0.3831
   58SAPC   C38 4391   3.942   1.305   9.357  0.0888  1.2196  0.0448
   58SAPC   H8X 4392   4.001   1.212   9.342 -1.6153  0.0439  0.3221
   58SAPC   H8Y 4393   4.009   1.393   9.365  2.2720 -0.0779 -2.2991
   58SAPC   C39 4394   3.857   1.320   9.228  0.6347  0.4714  0.0899
   58SAPC   H9X 4395   3.929   1.364   9.155 -1.0698  3.6083  0.1466
   58SAPC   H9Y 4396   3.781   1.400   9.239 -0.5098 -0.4087 -1.0336
   58SAPC  C310 4397   3.799   1.188   9.189  0.0526 -0.3551  0.3608
   58SAPC  H10X 4398   3.715   1.159   9.256 -1.0078 -0.7422 -1.0864
   58SAPC  H10Y 4399   3.874   1.108   9.171  2.6834  2.3465 -1.7034
   58SAPC  C311 4400   3.727   1.200   9.043  0.4130  0.3239  0.3783
   58SAPC  H11X 4401   3.796   1.263   8.982  0.8843 -1.8056 -1.4425
   58SAPC  H11Y 4402   3.628   1.249   9.050 -0.4489 -0.9702 -1.8139
   58SAPC  C312 4403   3.707   1.064   8.972 -0.1799  0.5717  0.0025
   58SAPC  H12X 4404   3.647   1.004   9.044 -0.5784 -1.6517 -2.0270
   58SAPC  H12Y 4405   3.811   1.023   8.968 -0.4625 -0.4484  2.0470
   58SAPC  C313 4406   3.654   1.061   8.824 -0.4010 -0.0871  0.4087
   58SAPC  H13X 4407   3.548   1.095   8.832 -0.2380  0.6714 -0.5112
   58SAPC  H13Y 4408   3.636   0.959   8.785 -2.1822  0.4054 -0.1782
   58SAPC  C314 4409   3.734   1.141   8.720 -0.0377 -0.2584  0.2077
   58SAPC  H14X 4410   3.843   1.135   8.741  1.2766  2.1904 -4.6218
   58SAPC  H14Y 4411   3.704   1.247   8.734  3.4620  0.6972  1.5844
   58SAPC  C315 4412   3.701   1.095   8.579  0.3542  0.2059 -0.2962
   58SAPC  H15X 4413   3.595   1.114   8.552  0.0793  1.7871  1.6571
   58SAPC  H15Y 4414   3.721   0.986   8.568  0.5977  0.3473 -1.3189
   58SAPC  C316 4415   3.787   1.164   8.470  0.1413 -0.1347 -0.1985
   58SAPC  H16X 4416   3.792   1.271   8.499 -0.9787 -0.1122 -0.0365
   58SAPC  H16Y 4417   3.732   1.146   8.376  1.8114 -1.3038 -0.9966
   58SAPC  C317 4418   3.943   1.126   8.460 -0.4479  0.9075 -0.0733
   58SAPC  H17X 4419   3.955   1.027   8.411 -0.5638  0.2773  1.1400
   58SAPC  H17Y 4420   3.984   1.111   8.562  0.7973  0.9289 -0.5577
   58SAPC  C318 4421   4.035   1.225   8.392 -0.9212 -0.3057  0.2547
   58SAPC  H18X 4422   4.142   1.215   8.421 -0.8827 -0.6067  0.0137
   58SAPC  H18Y 4423   4.020   1.331   8.420  2.1759  0.6733 -1.3031
   58SAPC  H18Z 4424   4.036   1.224   8.281  0.8320  1.2027  0.2171
   59SAPC     N 4425   5.493   3.822  11.139  0.1991  0.6689 -0.4060
   59SAPC   C12 4426   5.431   3.780  11.005 -0.0723 -0.5148 -0.0486
   59SAPC  H12A 4427   5.399   3.874  10.962 -0.3684 -0.0586  1.1551
   59SAPC  H12B 4428   5.344   3.717  11.018 -0.8985  0.1317 -2.0615
   59SAPC   C13 4429   5.403   3.902  11.221  0.2282  0.2640  0.0948
   59SAPC  H13A 4430   5.393   3.999  11.174  1.2865 -0.6513 -2.1856
   59SAPC  H13B 4431   5.309   3.850  11.230  1.2244 -1.6030  0.2778
   59SAPC  H13C 4432   5.430   3.916  11.324  0.6527  0.0689  0.0152
   59SAPC   C14 4433   5.519   3.694  11.217  0.3229  0.5502 -0.1305
   59SAPC  H14A 4434   5.430   3.636  11.237  0.2573  0.8097  0.3539
   59SAPC  H14B 4435   5.582   3.627  11.161 -0.2258 -1.9461  2.0584
   59SAPC  H14C 4436   5.566   3.731  11.307  1.1934  1.9220 -1.1104
   59SAPC   C15 4437   5.624   3.900  11.114  0.0891 -0.4078 -0.4659
   59SAPC  H15A 4438   5.694   3.841  11.057 -1.2675 -1.7275 -0.8254
   59SAPC  H15B 4439   5.603   3.990  11.058 -1.8631  0.5547  1.6495
   59SAPC  H15C 4440   5.675   3.926  11.207 -1.1867 -1.8591  0.6945
   59SAPC   C11 4441   5.520   3.709  10.898  0.4432 -0.4716  0.0699
   59SAPC  H11A 4442   5.574   3.785  10.838 -0.9104  1.4423  1.1623
   59SAPC  H11B 4443   5.440   3.669  10.832 -0.3613  0.8277  0.2133
   59SAPC     P 4444   5.561   3.456  10.933  0.0665  0.0875  0.3384
   59SAPC   O13 4445   5.652   3.385  11.022 -0.2394  0.4187  0.0550
   59SAPC   O14 4446   5.414   3.446  10.955 -0.1535  0.0273  0.2820
   59SAPC   O12 4447   5.609   3.602  10.942  0.2618  0.4680 -0.4593
   59SAPC   O11 4448   5.594   3.418  10.784  0.0270 -0.0485  0.4423
   59SAPC    C1 4449   5.724   3.466  10.722  0.8680  0.3435  0.3904
   59SAPC    HA 4450   5.748   3.574  10.723  3.3419 -0.1411  1.8026
   59SAPC    HB 4451   5.810   3.424  10.780  0.9033  2.4000  1.9256
   59SAPC    C2 4452   5.735   3.415  10.573  0.0203  0.1892  0.3067
   59SAPC    HS 4453   5.700   3.310  10.566 -0.4610  0.4066 -0.7376
   59SAPC   O21 4454   5.867   3.439  10.527 -0.1485  0.6344  0.1518
   59SAPC   C21 4455   5.895   3.342  10.429  0.1641 -0.5267  0.0817
   59SAPC   O22 4456   5.823   3.257  10.388 -0.2985 -0.0480 -0.5612
   59SAPC   C22 4457   6.042   3.357  10.392  0.1440 -0.2312  0.3167
   59SAPC   H2R 4458   6.109   3.381  10.478  0.7293  1.3252 -0.5323
   59SAPC   H2S 4459   6.079   3.259  10.356 -1.3156 -0.6076 -0.1926
   59SAPC    C3 4460   5.637   3.500  10.481  0.6204 -0.2146 -0.7612
   59SAPC    HX 4461   5.682   3.601  10.464  1.7077 -0.8699 -1.8956
   59SAPC    HY 4462   5.542   3.517  10.537  0.0163  0.7724 -2.0442
   59SAPC   O31 4463   5.610   3.445  10.355  0.0054  0.4626  0.0537
   59SAPC   C31 4464   5.526   3.346  10.349  0.3791 -0.3718  0.1053
   59SAPC   O32 4465   5.485   3.282  10.443 -0.6570  0.4498 -0.4854
   59SAPC   C32 4466   5.497   3.332  10.198  0.0434  0.4103  0.1720
   59SAPC   H2X 4467   5.487   3.435  10.158 -1.2356 -0.0413 -0.7437
   59SAPC   H2Y 4468   5.399   3.281  10.185  0.6216 -1.0481  1.3423
   59SAPC   C23 4469   6.046   3.465  10.279 -0.2820 -0.1029  0.2513
   59SAPC   H3R 4470   6.149   3.461  10.236 -0.8643  0.0465 -1.2202
   59SAPC   H3S 4471   6.033   3.567  10.322 -1.0009 -0.2889  0.4834
   59SAPC   C24 4472   5.949   3.451  10.163  0.3145  0.3774 -0.2376
   59SAPC   H4R 4473   5.971   3.536  10.094 -0.6246  0.0751 -0.9196
   59SAPC   H4S 4474   5.843   3.465  10.193  0.0552  1.7480 -1.6443
   59SAPC   C25 4475   5.956   3.320  10.092 -0.0092 -0.5096  0.1009
   59SAPC   H5R 4476   5.948   3.228  10.151 -0.5072 -0.2140  0.4943
   59SAPC   C26 4477   5.973   3.307   9.958  0.0920 -0.1453 -0.2447
   59SAPC   H6R 4478   5.985   3.202   9.928  1.2080 -0.0575 -0.1434
   59SAPC   C27 4479   5.991   3.412   9.846  0.9359  0.7818  0.3148
   59SAPC   H7R 4480   6.100   3.427   9.839  1.4325 -2.4819 -0.6171
   59SAPC   H7S 4481   5.935   3.507   9.863 -2.2196 -1.0781  1.2452
   59SAPC   C28 4482   5.937   3.353   9.715 -0.0479 -0.0699  0.6771
   59SAPC   H8R 4483   5.843   3.297   9.722  0.5768 -1.6047 -1.8518
   59SAPC   C29 4484   5.981   3.375   9.585  1.2090  0.6586 -0.1651
   59SAPC   H9R 4485   5.934   3.317   9.505 -3.1090  0.3787  2.2825
   59SAPC  C210 4486   6.093   3.464   9.541  0.1422 -0.0051  0.8389
   59SAPC  H10R 4487   6.153   3.506   9.624 -1.7682  2.3035  1.1511
   59SAPC  H10S 4488   6.041   3.548   9.492 -1.1254 -0.8685  0.6300
   59SAPC  C211 4489   6.183   3.396   9.443 -0.6227  0.4138  0.7332
   59SAPC  H11R 4490   6.275   3.351   9.485 -0.7753 -0.3592  0.2533
   59SAPC  C212 4491   6.165   3.378   9.310  0.0116 -0.3173 -0.3100
   59SAPC  H12R 4492   6.250   3.326   9.263  1.3769  2.4533 -1.1550
   59SAPC  C213 4493   6.043   3.419   9.225  0.3689  0.1166  0.2500
   59SAPC  H13R 4494   5.948   3.438   9.280  0.0857 -0.4804 -0.0277
   59SAPC  H13S 4495   6.016   3.331   9.163  0.5538  0.4020 -0.2418
   59SAPC  C214 4496   6.058   3.549   9.151  0.3072 -0.5484  0.2544
   59SAPC  H14R 4497   6.052   3.631   9.224  2.1035 -1.5511  1.6114
   59SAPC  C215 4498   6.076   3.551   9.015 -0.6532 -0.1666  0.0233
   59SAPC  H15R 4499   6.066   3.647   8.962 -1.2069 -1.2356 -1.9215
   59SAPC  C216 4500   6.088   3.430   8.916  0.4331 -0.2740 -0.8588
   59SAPC  H16R 4501   6.049   3.335   8.959 -1.1794 -0.8042 -3.2685
   59SAPC  H16S 4502   6.196   3.412   8.896  0.8085 -0.9446  1.5157
   59SAPC  C217 4503   6.014   3.456   8.785  0.7693  0.4296 -0.1285
   59SAPC  H17R 4504   6.053   3.556   8.758  1.6590  0.0799 -0.1864
   59SAPC  H17S 4505   5.905   3.475   8.792  0.2325 -2.5463  1.1814
   59SAPC  C218 4506   6.054   3.365   8.670  0.2618  0.1478 -0.1153
   59SAPC  H18R 4507   6.014   3.264   8.690 -2.4201  1.1663  0.1330
   59SAPC  H18S 4508   6.165   3.368   8.671  0.2595  0.3073  0.9736
   59SAPC  C219 4509   5.994   3.413   8.537 -0.2116 -0.9283 -0.7907
   59SAPC  H19R 4510   6.060   3.502   8.526 -0.6498 -0.4437  0.4092
   59SAPC  H19S 4511   5.890   3.451   8.540  0.7906  2.0570 -0.0667
   59SAPC  C220 4512   6.013   3.315   8.424 -0.5739 -0.4329  0.2795
   59SAPC  H20R 4513   6.109   3.259   8.427  0.1808  0.8130  0.0569
   59SAPC  H20S 4514   6.003   3.354   8.320 -1.9694 -0.2463  0.4763
   59SAPC  H20T 4515   5.934   3.242   8.449  0.3927 -1.4484  0.4634
   59SAPC   C33 4516   5.604   3.263  10.112  0.5004  0.4177 -0.3238
   59SAPC   H3X 4517   5.615   3.160  10.154 -1.5595  0.6352  0.8986
   59SAPC   H3Y 4518   5.703   3.311  10.118  0.7470 -0.2583  3.1230
   59SAPC   C34 4519   5.551   3.243   9.967 -0.2612  0.5472 -0.2303
   59SAPC   H4X 4520   5.451   3.194   9.956  0.1361 -0.1680 -0.7031
   59SAPC   H4Y 4521   5.618   3.173   9.913 -1.4450 -0.8224  0.0039
   59SAPC   C35 4522   5.556   3.374   9.884  0.0309 -0.0951 -0.7102
   59SAPC   H5X 4523   5.657   3.419   9.892  0.6029 -1.2945 -0.9424
   59SAPC   H5Y 4524   5.491   3.446   9.937  0.2645  1.2760 -2.2231
   59SAPC   C36 4525   5.532   3.355   9.734 -0.0280  0.2076  0.2981
   59SAPC   H6X 4526   5.428   3.325   9.712  0.2469 -0.2597 -0.4011
   59SAPC   H6Y 4527   5.598   3.274   9.696  2.6407  2.1853  0.4175
   59SAPC   C37 4528   5.548   3.487   9.659  0.3798  0.0269 -0.2279
   59SAPC   H7X 4529   5.652   3.521   9.676 -0.2278  1.9064 -0.0415
   59SAPC   H7Y 4530   5.476   3.565   9.691 -0.9507 -1.0004 -0.6475
   59SAPC   C38 4531   5.512   3.483   9.511  0.0057 -0.7369 -0.5425
   59SAPC   H8X 4532   5.556   3.576   9.470 -0.2903 -1.0838 -1.6955
   59SAPC   H8Y 4533   5.403   3.498   9.499  0.2019  2.1486  0.6003
   59SAPC   C39 4534   5.566   3.357   9.445 -0.5718  0.2289 -0.4142
   59SAPC   H9X 4535   5.513   3.269   9.488  0.0124 -0.4275 -1.0135
   59SAPC   H9Y 4536   5.673   3.347   9.471 -0.9342  0.7895  1.4392
   59SAPC  C310 4537   5.546   3.355   9.293  0.2656 -0.2404 -0.2826
   59SAPC  H10X 4538   5.445   3.386   9.258  0.5100 -2.0481 -2.9003
   59SAPC  H10Y 4539   5.567   3.258   9.241  0.2975 -0.2828 -0.1909
   59SAPC  C311 4540   5.641   3.450   9.221  0.0538  0.0120 -0.4414
   59SAPC  H11X 4541   5.743   3.407   9.232 -0.1627 -0.7963 -1.4458
   59SAPC  H11Y 4542   5.640   3.552   9.266  2.4000  0.3368 -0.9342
   59SAPC  C312 4543   5.599   3.454   9.073 -0.2998  0.0599 -0.0326
   59SAPC  H12X 4544   5.495   3.488   9.058 -0.4169  1.1929  2.8213
   59SAPC  H12Y 4545   5.605   3.349   9.036  1.0741  0.2128 -0.3186
   59SAPC  C313 4546   5.688   3.536   8.975  0.6672  0.2099  0.2459
   59SAPC  H13X 4547   5.790   3.492   8.977  1.1495  1.3308  0.9613
   59SAPC  H13Y 4548   5.707   3.640   9.009 -0.0704  0.2135  0.6545
   59SAPC  C314 4549   5.631   3.547   8.828 -1.0487 -0.6209  0.1167
   59SAPC  H14X 4550   5.521   3.563   8.834 -1.0003 -0.3955  0.4434
   59SAPC  H14Y 4551   5.656   3.448   8.785  4.0085  0.5045 -0.1301
   59SAPC  C315 4552   5.697   3.648   8.737  0.1118  0.1302  0.5291
   59SAPC  H15X 4553   5.662   3.621   8.635 -0.7890 -0.6256  1.0183
   59SAPC  H15Y 4554   5.807   3.649   8.744  0.1781 -1.4557  0.0346
   59SAPC  C316 4555   5.651   3.786   8.777  0.4432  0.0125 -0.4109
   59SAPC  H16X 4556   5.640   3.792   8.887  1.5537  1.0505 -0.3409
   59SAPC  H16Y 4557   5.547   3.797   8.739 -0.6133 -2.2926  1.5218
   59SAPC  C317 4558   5.749   3.892   8.723  0.2289 -0.5812 -0.2119
   59SAPC  H17X 4559   5.768   3.878   8.614 -0.8437 -0.3766 -0.4355
   59SAPC  H17Y 4560   5.852   3.889   8.765  0.4680  1.9255 -0.4841
   59SAPC  C318 4561   5.701   4.038   8.739 -0.1522  0.4921  0.3734
   59SAPC  H18X 4562   5.596   4.062   8.713  0.3804  1.3917 -1.0087
   59SAPC  H18Y 4563   5.757   4.111   8.677 -0.2893  1.0567  0.9079
   59SAPC  H18Z 4564   5.707   4.049   8.850  0.8488 -2.0525  0.6508
   60SAPC     N 4565   0.343   1.094  10.684 -0.7432  0.2268  0.0964
   60SAPC   C12 4566   0.425   1.125  10.806 -0.1050  0.0826 -0.7334
   60SAPC  H12A 4567   0.476   1.032  10.823  2.6540  1.8084  1.4767
   60SAPC  H12B 4568   0.364   1.136  10.894  1.3472 -1.3235  0.5100
   60SAPC   C13 4569   0.264   0.968  10.700 -0.8311  0.2799 -0.0763
   60SAPC  H13A 4570   0.192   0.978  10.780 -0.0952 -0.0114  0.6398
   60SAPC  H13B 4571   0.220   0.949  10.603  2.1202  2.6704 -2.0534
   60SAPC  H13C 4572   0.325   0.881  10.721 -0.0639  0.8467  0.0859
   60SAPC   C14 4573   0.256   1.211  10.657  0.2803  0.5425  0.3382
   60SAPC  H14A 4574   0.313   1.297  10.628  0.6465  0.7406  1.5636
   60SAPC  H14B 4575   0.191   1.191  10.573  2.0155 -0.4534 -0.8352
   60SAPC  H14C 4576   0.187   1.233  10.737 -0.1331 -1.3901  0.5790
   60SAPC   C15 4577   0.442   1.061  10.572  0.3096  0.2144 -0.1879
   60SAPC  H15A 4578   0.396   1.043  10.475  2.5014 -0.9600 -1.0919
   60SAPC  H15B 4579   0.511   1.144  10.562  2.1709 -1.3365 -1.1173
   60SAPC  H15C 4580   0.497   0.970  10.590  0.4926 -0.2096 -2.5058
   60SAPC   C11 4581   0.518   1.245  10.811 -0.0756  0.2469 -0.2965
   60SAPC  H11A 4582   0.556   1.244  10.916 -0.6385 -0.4188 -0.0944
   60SAPC  H11B 4583   0.457   1.338  10.808  1.1409  1.1688  1.4323
   60SAPC     P 4584   0.672   1.363  10.636  0.2150  0.1098 -0.2854
   60SAPC   O13 4585   0.556   1.419  10.569  0.6640  0.5275  0.2388
   60SAPC   O14 4586   0.746   1.456  10.725 -0.1980  0.1455  0.5279
   60SAPC   O12 4587   0.623   1.238  10.719 -0.2495  0.1913 -0.0782
   60SAPC   O11 4588   0.773   1.299  10.532 -0.5572  0.0992  0.0228
   60SAPC    C1 4589   0.729   1.214  10.426  1.1371 -0.4556  0.3058
   60SAPC    HA 4590   0.756   1.108  10.442 -1.8356 -1.3426 -0.0143
   60SAPC    HB 4591   0.618   1.212  10.420  0.8805 -0.2939  3.4450
   60SAPC    C2 4592   0.798   1.233  10.296  0.2292 -0.0169 -0.6050
   60SAPC    HS 4593   0.906   1.235  10.323  0.4172 -0.1595 -1.3325
   60SAPC   O21 4594   0.752   1.358  10.245 -0.0211  0.2579 -0.2118
   60SAPC   C21 4595   0.834   1.454  10.231 -0.2316  0.4578 -0.5826
   60SAPC   O22 4596   0.948   1.454  10.278  0.0456 -0.5875 -0.2954
   60SAPC   C22 4597   0.782   1.546  10.116 -0.1630  0.2050 -0.4601
   60SAPC   H2R 4598   0.763   1.481  10.027 -2.0400  0.0082  0.0328
   60SAPC   H2S 4599   0.687   1.584  10.159  1.0353  0.6392  1.9819
   60SAPC    C3 4600   0.774   1.124  10.197 -1.2610 -0.4249  0.0931
   60SAPC    HX 4601   0.669   1.123  10.162 -2.2057 -0.9169  2.7033
   60SAPC    HY 4602   0.800   1.023  10.235  2.1321 -0.7474 -2.5809
   60SAPC   O31 4603   0.851   1.152  10.079 -0.1324 -0.1604 -0.4337
   60SAPC   C31 4604   0.978   1.098  10.067  0.1691 -0.3460 -0.2400
   60SAPC   O32 4605   1.032   1.036  10.154 -0.0575 -0.5271  0.2028
   60SAPC   C32 4606   1.038   1.142   9.933  0.1266  0.9790 -0.0426
   60SAPC   H2X 4607   1.144   1.111   9.925 -0.0224  0.2380  0.6510
   60SAPC   H2Y 4608   1.030   1.251   9.913  0.0047  1.0815  0.5219
   60SAPC   C23 4609   0.869   1.670  10.104 -0.5168  0.4771 -0.5005
   60SAPC   H3R 4610   0.970   1.631  10.080  0.0891  1.5796  0.1543
   60SAPC   H3S 4611   0.878   1.735  10.194  1.5919 -0.9101  0.3559
   60SAPC   C24 4612   0.811   1.762   9.989 -0.6249 -0.0865 -0.3561
   60SAPC   H4R 4613   0.710   1.802  10.013 -1.1845 -2.2880  1.2933
   60SAPC   H4S 4614   0.786   1.700   9.901 -1.7074 -0.4560  0.1999
   60SAPC   C25 4615   0.908   1.872   9.948 -0.5527 -0.1370 -0.0831
   60SAPC   H5R 4616   0.897   1.966  10.005  2.2078 -1.2836  2.6720
   60SAPC   C26 4617   0.993   1.871   9.848 -0.0823 -0.3773  0.2792
   60SAPC   H6R 4618   1.043   1.968   9.834 -2.0492  0.7050  0.3731
   60SAPC   C27 4619   1.026   1.754   9.760 -0.5274  0.6900  0.5278
   60SAPC   H7R 4620   0.969   1.776   9.667  0.4102  2.6630  0.3770
   60SAPC   H7S 4621   0.977   1.657   9.786  1.0191 -0.0694  0.7188
   60SAPC   C28 4622   1.171   1.730   9.722 -0.2023 -0.4783  0.2564
   60SAPC   H8R 4623   1.239   1.690   9.799 -0.6593 -1.4022  0.1834
   60SAPC   C29 4624   1.241   1.764   9.603  0.0952 -0.3124  0.3712
   60SAPC   H9R 4625   1.350   1.754   9.600  0.1407  0.3885 -1.1033
   60SAPC  C210 4626   1.178   1.833   9.486  0.1104 -0.0978 -0.7611
   60SAPC  H10R 4627   1.198   1.942   9.493  0.3444 -0.2193  0.9239
   60SAPC  H10S 4628   1.070   1.810   9.485  0.0616  0.1283 -0.7334
   60SAPC  C211 4629   1.233   1.790   9.344  0.6159 -0.0296 -0.1840
   60SAPC  H11R 4630   1.331   1.740   9.341  0.1254 -0.9406 -1.6092
   60SAPC  C212 4631   1.163   1.798   9.231  0.0392  0.2043  0.3841
   60SAPC  H12R 4632   1.214   1.755   9.144  4.8358 -1.1946  3.4749
   60SAPC  C213 4633   1.028   1.860   9.206  0.2412 -0.0708 -0.0030
   60SAPC  H13R 4634   0.966   1.875   9.297  0.5641 -2.5362  0.6881
   60SAPC  H13S 4635   0.965   1.787   9.152 -0.2327 -0.3191  0.8663
   60SAPC  C214 4636   1.060   1.991   9.138  0.5613  0.2339 -0.6676
   60SAPC  H14R 4637   1.101   2.066   9.207  0.6281  0.5129 -1.0079
   60SAPC  C215 4638   1.020   2.034   9.012  0.4690  0.3828 -0.5191
   60SAPC  H15R 4639   1.038   2.139   8.982 -0.2601  1.7963  3.3450
   60SAPC  C216 4640   0.954   1.953   8.903  0.0485  0.1555  0.0342
   60SAPC  H16R 4641   0.902   2.023   8.835  2.8439  1.5547 -0.8329
   60SAPC  H16S 4642   0.877   1.885   8.945 -0.2697  1.1433  1.0899
   60SAPC  C217 4643   1.048   1.866   8.827  0.4887 -0.7475 -0.3590
   60SAPC  H17R 4644   0.986   1.816   8.750 -1.7436 -1.5312  1.8075
   60SAPC  H17S 4645   1.087   1.792   8.900  0.5185  0.9113  1.3867
   60SAPC  C218 4646   1.160   1.929   8.740  0.2223  0.1567 -0.3986
   60SAPC  H18R 4647   1.214   1.857   8.676  0.5338 -1.6144  1.7294
   60SAPC  H18S 4648   1.241   1.969   8.805 -0.0667 -0.2534  0.2320
   60SAPC  C219 4649   1.094   2.042   8.652 -0.1550 -0.4467  0.0232
   60SAPC  H19R 4650   1.185   2.083   8.603 -0.3619 -0.4487 -0.3725
   60SAPC  H19S 4651   1.058   2.122   8.719  1.5204  1.3145 -1.0657
   60SAPC  C220 4652   0.992   2.005   8.550  0.5713  0.0963 -0.2574
   60SAPC  H20R 4653   1.009   1.909   8.498 -3.4073  0.6442 -2.9894
   60SAPC  H20S 4654   0.979   2.093   8.483 -2.6494 -0.5344 -0.6296
   60SAPC  H20T 4655   0.895   2.000   8.604  0.9321  2.1740  0.6931
   60SAPC   C33 4656   0.966   1.070   9.820 -0.2212  0.9009 -0.7068
   60SAPC   H3X 4657   0.856   1.086   9.829 -0.2912 -0.0966  0.4119
   60SAPC   H3Y 4658   0.978   0.960   9.820 -1.8606  0.6008 -3.6918
   60SAPC   C34 4659   1.008   1.100   9.677  0.5032 -0.7896 -0.1555
   60SAPC   H4X 4660   0.953   1.027   9.614 -0.8864 -0.2183  0.3423
   60SAPC   H4Y 4661   1.113   1.067   9.662 -0.0981 -2.7848 -0.2198
   60SAPC   C35 4662   0.984   1.239   9.634  0.9360 -0.4580  0.3757
   60SAPC   H5X 4663   1.054   1.304   9.691  0.5731 -0.4580  0.8183
   60SAPC   H5Y 4664   0.878   1.262   9.658  0.9659 -0.2074  0.2762
   60SAPC   C36 4665   0.998   1.259   9.485 -0.5380 -0.1984  0.1304
   60SAPC   H6X 4666   0.912   1.198   9.449  0.2367 -0.9594 -0.4981
   60SAPC   H6Y 4667   1.100   1.227   9.456 -1.1962 -1.6443 -0.7331
   60SAPC   C37 4668   0.980   1.411   9.465  0.2992  0.8545 -0.3308
   60SAPC   H7X 4669   1.060   1.463   9.523 -0.1514 -1.7379  2.9372
   60SAPC   H7Y 4670   0.884   1.431   9.518  1.1965 -0.8754  2.1401
   60SAPC   C38 4671   1.002   1.439   9.320  0.5068  0.3610 -0.3582
   60SAPC   H8X 4672   1.084   1.379   9.277  1.4569  1.0419  0.4520
   60SAPC   H8Y 4673   1.039   1.543   9.305  0.5825  0.6069  1.3200
   60SAPC   C39 4674   0.884   1.416   9.220  0.7774  0.3231 -1.0131
   60SAPC   H9X 4675   0.801   1.475   9.266 -0.0058 -1.4700 -0.0409
   60SAPC   H9Y 4676   0.848   1.312   9.230  0.4955  0.5988  1.3799
   60SAPC  C310 4677   0.910   1.464   9.081  0.2118  0.6670 -0.0995
   60SAPC  H10X 4678   0.976   1.396   9.023  0.7788 -0.2064  1.5214
   60SAPC  H10Y 4679   0.958   1.564   9.087  0.3667  0.5427  0.9349
   60SAPC  C311 4680   0.780   1.487   9.008  0.1399 -0.5052 -0.2309
   60SAPC  H11X 4681   0.709   1.543   9.073 -1.6681 -0.0368 -2.4932
   60SAPC  H11Y 4682   0.738   1.390   8.974  0.1963 -0.7859  0.4862
   60SAPC  C312 4683   0.791   1.585   8.887  0.2698  0.3117 -0.2342
   60SAPC  H12X 4684   0.889   1.563   8.839 -0.2744 -1.2502 -0.7134
   60SAPC  H12Y 4685   0.788   1.685   8.934  1.1818  1.2226 -2.0281
   60SAPC  C313 4686   0.682   1.551   8.786  0.2254  0.0545  0.1229
   60SAPC  H13X 4687   0.590   1.542   8.847  1.7404 -0.3698  2.4533
   60SAPC  H13Y 4688   0.703   1.453   8.738 -0.5667  0.4134 -0.9893
   60SAPC  C314 4689   0.676   1.654   8.671 -0.8642  0.3591  0.3195
   60SAPC  H14X 4690   0.778   1.662   8.627 -1.2225  1.0820 -0.4086
   60SAPC  H14Y 4691   0.633   1.753   8.698 -0.3222  1.1075 -1.4121
   60SAPC  C315 4692   0.585   1.616   8.555  0.3464 -0.0394  0.5375
   60SAPC  H15X 4693   0.491   1.605   8.613  0.1336  2.1872  0.6909
   60SAPC  H15Y 4694   0.595   1.515   8.510  1.2550 -0.1141  0.8844
   60SAPC  C316 4695   0.559   1.726   8.447  0.6286 -0.1715 -0.4497
   60SAPC  H16X 4696   0.653   1.742   8.391  2.5693 -1.8157  2.0850
   60SAPC  H16Y 4697   0.533   1.823   8.495 -4.6961 -0.9644 -1.1269
   60SAPC  C317 4698   0.440   1.689   8.356 -0.3018  0.1912 -0.8277
   60SAPC  H17X 4699   0.343   1.735   8.384 -0.4511  0.1197 -1.2209
   60SAPC  H17Y 4700   0.427   1.581   8.375  2.9411 -0.3033 -0.8077
   60SAPC  C318 4701   0.471   1.716   8.211 -0.4905 -0.2057 -0.0177
   60SAPC  H18X 4702   0.382   1.714   8.144  0.4424  1.4523 -1.3873
   60SAPC  H18Y 4703   0.550   1.646   8.176  1.7374  1.7107  0.9025
   60SAPC  H18Z 4704   0.512   1.817   8.187  1.0691 -1.2458 -1.9997
   61SAPC     N 4705   3.989   6.000  10.964  0.0976  0.0653 -0.0682
   61SAPC   C12 4706   3.844   6.025  10.933  0.4476 -0.2210  0.0892
   61SAPC  H12A 4707   3.830   6.132  10.933 -0.9802 -0.3572  1.9407
   61SAPC  H12B 4708   3.786   6.000  11.020  0.2810  0.2422  0.1126
   61SAPC   C13 4709   4.077   6.009  10.844 -0.1454  0.5793  0.2555
   61SAPC  H13A 4710   4.048   6.090  10.778  2.1757 -0.9741 -2.9480
   61SAPC  H13B 4711   4.182   6.019  10.869  0.1122 -1.7377  0.2862
   61SAPC  H13C 4712   4.070   5.922  10.781 -0.7330  1.0760 -0.3785
   61SAPC   C14 4713   4.048   6.099  11.069  0.6561 -0.2829 -0.2985
   61SAPC  H14A 4714   3.993   6.106  11.161  0.0050  3.7829 -0.8300
   61SAPC  H14B 4715   4.154   6.084  11.085  0.2086 -2.2816  1.1623
   61SAPC  H14C 4716   4.056   6.198  11.028  4.2714 -1.0120 -1.7478
   61SAPC   C15 4717   3.998   5.862  11.023 -0.2783 -0.6086  0.4114
   61SAPC  H15A 4718   3.942   5.863  11.115 -2.4203 -1.1333 -0.8239
   61SAPC  H15B 4719   3.964   5.787  10.953  1.9599 -0.1653 -1.2711
   61SAPC  H15C 4720   4.104   5.846  11.043  0.0404  1.5871  0.6770
   61SAPC   C11 4721   3.778   5.964  10.809 -0.0930  0.0938 -0.4359
   61SAPC  H11A 4722   3.670   5.988  10.811 -0.1418 -0.1825  1.1824
   61SAPC  H11B 4723   3.790   5.854  10.806  0.0748  0.1302 -1.2889
   61SAPC     P 4724   3.790   6.151  10.622  0.1618 -0.0988 -0.0147
   61SAPC   O13 4725   3.762   6.261  10.710  0.1313 -0.5851  0.0223
   61SAPC   O14 4726   3.886   6.182  10.515 -0.0733 -0.1476 -0.1721
   61SAPC   O12 4727   3.837   6.016  10.689  0.1319  0.1621  0.0275
   61SAPC   O11 4728   3.663   6.095  10.551  0.0381 -0.7726  0.2519
   61SAPC    C1 4729   3.578   6.190  10.488 -0.1911  0.2853  0.4824
   61SAPC    HA 4730   3.472   6.157  10.491 -0.2876 -0.5129 -4.3953
   61SAPC    HB 4731   3.591   6.286  10.542  0.3044  1.8680 -2.2682
   61SAPC    C2 4732   3.615   6.211  10.342 -0.3386  0.2063  0.3138
   61SAPC    HS 4733   3.714   6.261  10.336  0.5314 -1.2980  1.4577
   61SAPC   O21 4734   3.515   6.278  10.271  0.6992  0.1118 -0.0102
   61SAPC   C21 4735   3.488   6.404  10.304  0.5785  0.1233  0.1211
   61SAPC   O22 4736   3.548   6.472  10.388 -0.4229 -0.5845 -0.4723
   61SAPC   C22 4737   3.370   6.452  10.213 -0.5741  0.0936 -0.3525
   61SAPC   H2R 4738   3.380   6.417  10.108 -0.4875  0.5793 -0.5073
   61SAPC   H2S 4739   3.284   6.393  10.252 -3.0040  1.2202 -3.5225
   61SAPC    C3 4740   3.643   6.078  10.270 -1.0884 -0.1484  0.4932
   61SAPC    HX 4741   3.556   6.010  10.283 -0.8322 -0.6853 -0.4835
   61SAPC    HY 4742   3.724   6.017  10.316 -0.7665 -1.5280 -1.7453
   61SAPC   O31 4743   3.669   6.093  10.129 -0.1941 -0.6070  0.3615
   61SAPC   C31 4744   3.794   6.114  10.092 -0.4816  0.6346  0.2128
   61SAPC   O32 4745   3.894   6.113  10.163  0.0509  0.2146 -0.0379
   61SAPC   C32 4746   3.793   6.115   9.947 -0.5389  0.2166 -0.3706
   61SAPC   H2X 4747   3.732   6.204   9.923 -2.9629 -1.3163 -0.2907
   61SAPC   H2Y 4748   3.733   6.029   9.910 -0.1719  0.5147 -1.7483
   61SAPC   C23 4749   3.335   6.603  10.217  0.3883 -0.9510 -0.1549
   61SAPC   H3R 4750   3.358   6.645  10.318 -1.2817 -2.2886  0.8470
   61SAPC   H3S 4751   3.224   6.603  10.218  0.2898 -0.9331  3.4256
   61SAPC   C24 4752   3.404   6.691  10.119 -0.4779  0.9602  0.7490
   61SAPC   H4R 4753   3.346   6.786  10.126 -1.3907  0.6089 -1.2329
   61SAPC   H4S 4754   3.387   6.645  10.019 -0.9935  0.1203  1.2126
   61SAPC   C25 4755   3.551   6.695  10.166 -0.1527 -0.3015 -0.0103
   61SAPC   H5R 4756   3.569   6.725  10.270  1.0600  0.5077 -0.4207
   61SAPC   C26 4757   3.659   6.692  10.077 -0.0775 -0.2676  0.0055
   61SAPC   H6R 4758   3.761   6.698  10.118 -0.3938 -0.6041  0.8585
   61SAPC   C27 4759   3.652   6.670   9.925  0.4670 -0.3252 -0.5031
   61SAPC   H7R 4760   3.748   6.704   9.883  1.0488  2.7903  2.8348
   61SAPC   H7S 4761   3.580   6.744   9.885  1.2690 -0.7006 -2.7331
   61SAPC   C28 4762   3.593   6.536   9.882 -0.2895 -0.9907  0.5543
   61SAPC   H8R 4763   3.572   6.464   9.962  0.6809 -0.4473  1.3317
   61SAPC   C29 4764   3.562   6.505   9.751  0.0715  0.0440  0.5274
   61SAPC   H9R 4765   3.506   6.412   9.731 -0.3968  0.4202  0.0799
   61SAPC  C210 4766   3.576   6.587   9.623 -0.0320 -0.1223  0.2281
   61SAPC  H10R 4767   3.573   6.694   9.653  0.8920  0.4750 -1.6722
   61SAPC  H10S 4768   3.489   6.569   9.556  1.1372 -1.0037 -1.1099
   61SAPC  C211 4769   3.703   6.579   9.541  0.0567 -0.3204  0.5390
   61SAPC  H11R 4770   3.789   6.610   9.603 -0.4304  0.1674  0.9890
   61SAPC  C212 4771   3.723   6.559   9.411  0.2093 -0.9843  0.7932
   61SAPC  H12R 4772   3.828   6.560   9.380 -0.2974 -0.3395 -0.9867
   61SAPC  C213 4773   3.615   6.552   9.301  0.8604 -0.2076 -0.1454
   61SAPC  H13R 4774   3.536   6.493   9.352  1.0184  0.3124  0.7162
   61SAPC  H13S 4775   3.641   6.481   9.219 -1.6784 -1.4625  0.0468
   61SAPC  C214 4776   3.550   6.682   9.264 -0.0293 -0.1291 -0.1978
   61SAPC  H14R 4777   3.536   6.746   9.353  2.9902  0.7882 -0.2870
   61SAPC  C215 4778   3.499   6.723   9.150 -0.1968 -0.4908  0.2133
   61SAPC  H15R 4779   3.458   6.824   9.143  2.2135  0.5096 -0.4046
   61SAPC  C216 4780   3.499   6.638   9.026  0.7384 -1.2467  0.2105
   61SAPC  H16R 4781   3.469   6.532   9.042 -1.6339 -0.5792  0.6194
   61SAPC  H16S 4782   3.605   6.640   8.992  0.4221 -0.2610 -0.7638
   61SAPC  C217 4783   3.423   6.685   8.892  0.2959  0.1274 -0.0673
   61SAPC  H17R 4784   3.486   6.768   8.855  1.3259 -0.7696 -0.3576
   61SAPC  H17S 4785   3.318   6.719   8.911 -0.5243 -2.9880  1.6359
   61SAPC  C218 4786   3.413   6.587   8.773  0.3166 -0.1358  0.0455
   61SAPC  H18R 4787   3.518   6.556   8.751  0.5319  0.0601  0.7939
   61SAPC  H18S 4788   3.376   6.632   8.678  0.8098  1.7047  0.6882
   61SAPC  C219 4789   3.326   6.461   8.793  0.3300  1.0614  0.2906
   61SAPC  H19R 4790   3.227   6.500   8.823 -0.8011 -0.8386 -0.7558
   61SAPC  H19S 4791   3.366   6.406   8.881 -1.5551 -0.7960  0.0619
   61SAPC  C220 4792   3.312   6.367   8.674  0.2428  0.0437 -0.3093
   61SAPC  H20R 4793   3.226   6.297   8.683  0.7352 -0.2979  2.9027
   61SAPC  H20S 4794   3.397   6.298   8.655  0.9821  0.9586 -0.3617
   61SAPC  H20T 4795   3.295   6.438   8.591  2.0577  1.2055  0.2590
   61SAPC   C33 4796   3.926   6.138   9.883 -0.9088  0.0581  0.4909
   61SAPC   H3X 4797   4.007   6.069   9.916 -2.1534 -1.2191  1.0027
   61SAPC   H3Y 4798   3.971   6.238   9.893  1.2829 -0.8290  0.0341
   61SAPC   C34 4799   3.922   6.107   9.723  0.1943  0.0315 -1.1536
   61SAPC   H4X 4800   3.874   6.008   9.711  0.3587 -0.3429  1.0187
   61SAPC   H4Y 4801   4.028   6.099   9.691  0.8370  0.0333  0.8297
   61SAPC   C35 4802   3.841   6.208   9.639  0.1918  0.2297 -0.0909
   61SAPC   H5X 4803   3.882   6.311   9.653 -0.6236  0.5510 -0.0185
   61SAPC   H5Y 4804   3.743   6.227   9.687 -0.0469  0.0016 -0.4829
   61SAPC   C36 4805   3.828   6.177   9.492 -0.2004 -0.3728  0.0288
   61SAPC   H6X 4806   3.760   6.250   9.442  2.8588  2.1249 -0.8419
   61SAPC   H6Y 4807   3.798   6.070   9.487  0.3641 -0.5038 -0.7717
   61SAPC   C37 4808   3.958   6.199   9.418 -0.0406  0.2131  0.9261
   61SAPC   H7X 4809   4.038   6.138   9.465  0.8498  1.0110  0.4826
   61SAPC   H7Y 4810   3.993   6.302   9.439  2.8271 -0.6936  1.0130
   61SAPC   C38 4811   3.957   6.170   9.270 -0.0951 -0.3116  0.2971
   61SAPC   H8X 4812   3.930   6.063   9.258 -0.0282 -0.4767  1.4941
   61SAPC   H8Y 4813   4.062   6.175   9.236 -0.4768  0.1081 -0.8688
   61SAPC   C39 4814   3.880   6.284   9.193 -0.4454  0.0822 -0.1332
   61SAPC   H9X 4815   3.915   6.385   9.223 -1.0255 -0.4043  2.4355
   61SAPC   H9Y 4816   3.773   6.265   9.218 -0.0440  1.2698  2.9806
   61SAPC  C310 4817   3.902   6.288   9.045 -0.1561  0.2675  0.3992
   61SAPC  H10X 4818   3.881   6.181   9.021 -0.3447  0.5628 -0.8307
   61SAPC  H10Y 4819   4.004   6.304   9.004 -1.2448 -0.1185 -2.7544
   61SAPC  C311 4820   3.811   6.371   8.945  0.3522 -0.0671 -0.0284
   61SAPC  H11X 4821   3.820   6.481   8.958 -0.1276 -0.0405  0.0984
   61SAPC  H11Y 4822   3.707   6.334   8.964  0.2307  0.4095  0.2411
   61SAPC  C312 4823   3.860   6.335   8.803 -0.3459 -0.2830  0.2891
   61SAPC  H12X 4824   3.876   6.225   8.789  3.6921  0.1746  0.0628
   61SAPC  H12Y 4825   3.962   6.378   8.789 -0.2281  0.5914  3.1880
   61SAPC  C313 4826   3.763   6.384   8.695  0.8402  0.0730  0.2191
   61SAPC  H13X 4827   3.794   6.490   8.679  1.6379 -0.2848 -0.7308
   61SAPC  H13Y 4828   3.654   6.366   8.706  0.7033  0.4460 -0.4340
   61SAPC  C314 4829   3.796   6.324   8.555  0.3936 -0.3590  0.0828
   61SAPC  H14X 4830   3.743   6.230   8.526 -4.0566  1.5604  1.1451
   61SAPC  H14Y 4831   3.906   6.323   8.543  0.4930  1.4162  0.5817
   61SAPC  C315 4832   3.749   6.423   8.435 -0.0695 -0.1038 -0.6717
   61SAPC  H15X 4833   3.802   6.520   8.433 -1.2206  0.5397 -0.7473
   61SAPC  H15Y 4834   3.642   6.440   8.458  0.6859  2.2467  1.6322
   61SAPC  C316 4835   3.759   6.364   8.292 -1.2187  1.0859  0.2225
   61SAPC  H16X 4836   3.679   6.287   8.284 -2.0914  2.0160 -0.2061
   61SAPC  H16Y 4837   3.853   6.312   8.262 -1.3965  0.1690  1.2101
   61SAPC  C317 4838   3.734   6.473   8.182  0.0884  0.2411 -0.3687
   61SAPC  H17X 4839   3.804   6.557   8.200  0.1331  0.0017  0.6228
   61SAPC  H17Y 4840   3.631   6.511   8.199  0.1082  1.6696 -2.8929
   61SAPC  C318 4841   3.743   6.412   8.045 -0.5553 -0.3673  0.3458
   61SAPC  H18X 4842   3.647   6.358   8.036 -1.8364  1.5125  1.9897
   61SAPC  H18Y 4843   3.831   6.346   8.032  0.4408  1.2363 -1.6960
   61SAPC  H18Z 4844   3.740   6.488   7.964 -0.8655 -1.8394 -1.0844
   62SAPC     N 4845   2.349   4.519  10.674  0.5427 -0.2825 -0.2521
   62SAPC   C12 4846   2.246   4.435  10.743  0.6332  0.3471 -0.0598
   62SAPC  H12A 4847   2.208   4.486  10.831  0.5549 -1.1859  0.8233
   62SAPC  H12B 4848   2.284   4.342  10.782 -1.3314 -0.8879 -0.9073
   62SAPC   C13 4849   2.443   4.451  10.577  0.7964  0.2928  0.7236
   62SAPC  H13A 4850   2.477   4.360  10.625  0.0044 -0.8269 -0.7523
   62SAPC  H13B 4851   2.387   4.436  10.486  0.1538  1.8150  0.8516
   62SAPC  H13C 4852   2.527   4.518  10.564 -0.2906  1.7704  1.1096
   62SAPC   C14 4853   2.289   4.637  10.599 -0.5830 -0.2661  0.4575
   62SAPC  H14A 4854   2.245   4.707  10.668  0.1474  0.4635  0.1978
   62SAPC  H14B 4855   2.363   4.698  10.549  1.4450 -2.1559  0.9929
   62SAPC  H14C 4856   2.210   4.613  10.529 -0.1993 -0.4714  0.0868
   62SAPC   C15 4857   2.446   4.583  10.776  0.7451  0.6316 -0.4272
   62SAPC  H15A 4858   2.482   4.510  10.846 -0.3957  1.0083  0.5805
   62SAPC  H15B 4859   2.537   4.616  10.728  1.8064 -1.3561  0.1486
   62SAPC  H15C 4860   2.394   4.660  10.832 -0.6834 -0.8985  0.4228
   62SAPC   C11 4861   2.136   4.380  10.656 -0.0447  0.0202 -0.3637
   62SAPC  H11A 4862   2.175   4.333  10.563 -0.7719 -1.5385  0.0886
   62SAPC  H11B 4863   2.082   4.468  10.616 -0.1192  0.9771  1.7573
   62SAPC     P 4864   2.111   4.139  10.775  0.1765 -0.3248 -0.1710
   62SAPC   O13 4865   2.247   4.136  10.830  0.2474 -0.7268  0.1269
   62SAPC   O14 4866   2.007   4.075  10.865 -0.7194 -0.3433  0.2577
   62SAPC   O12 4867   2.070   4.288  10.738  0.1225  0.3438  0.6980
   62SAPC   O11 4868   2.115   4.072  10.635 -0.6747 -0.1179 -0.5137
   62SAPC    C1 4869   2.220   3.993  10.580 -0.5992  0.0152  0.0341
   62SAPC    HA 4870   2.278   3.946  10.662  1.7501  2.0961 -0.3321
   62SAPC    HB 4871   2.182   3.906  10.523 -0.2878  0.5765 -1.0499
   62SAPC    C2 4872   2.309   4.057  10.470 -0.0568  1.1572  0.0529
   62SAPC    HS 4873   2.347   4.154  10.508 -1.2265  1.3655  0.7467
   62SAPC   O21 4874   2.240   4.049  10.336 -0.0679  0.3727  0.0295
   62SAPC   C21 4875   2.218   4.164  10.278  0.3864 -0.1554  0.0799
   62SAPC   O22 4876   2.258   4.279  10.301 -0.4274  0.2925 -0.3943
   62SAPC   C22 4877   2.134   4.127  10.159 -0.3676 -0.0666  0.0551
   62SAPC   H2R 4878   2.173   4.042  10.098  1.2654  1.5781 -1.3033
   62SAPC   H2S 4879   2.030   4.098  10.185 -0.0412 -1.6730 -0.3238
   62SAPC    C3 4880   2.441   3.977  10.469  0.1893  0.3266  0.5463
   62SAPC    HX 4881   2.412   3.880  10.423  1.1940  0.8570 -1.2843
   62SAPC    HY 4882   2.487   3.954  10.568 -0.6361 -2.6236  0.3362
   62SAPC   O31 4883   2.533   4.036  10.383 -0.7896 -0.4461  0.4645
   62SAPC   C31 4884   2.607   4.135  10.427 -0.3458  0.1817  0.5205
   62SAPC   O32 4885   2.598   4.179  10.541 -0.3673  0.5449 -0.8901
   62SAPC   C32 4886   2.718   4.164  10.326 -0.4960 -0.1638  0.1470
   62SAPC   H2X 4887   2.776   4.072  10.302 -1.4819 -0.4068 -1.4836
   62SAPC   H2Y 4888   2.788   4.237  10.371  0.4881 -0.0189 -1.5364
   62SAPC   C23 4889   2.112   4.235  10.051  0.0139 -0.3362 -0.6984
   62SAPC   H3R 4890   2.082   4.327  10.106 -1.2704 -0.6813 -0.7971
   62SAPC   H3S 4891   2.029   4.184   9.997 -1.1323 -1.8356  2.2555
   62SAPC   C24 4892   2.239   4.268   9.976 -0.9834 -0.5112  0.2654
   62SAPC   H4R 4893   2.267   4.171   9.929 -1.5289 -0.5934  0.1028
   62SAPC   H4S 4894   2.328   4.283  10.041 -1.4793 -4.0307  2.0366
   62SAPC   C25 4895   2.222   4.379   9.875  0.0819  0.8322  0.5676
   62SAPC   H5R 4896   2.222   4.478   9.922  1.0589  1.2925 -0.3651
   62SAPC   C26 4897   2.202   4.358   9.745 -0.3714 -0.0228 -0.3573
   62SAPC   H6R 4898   2.164   4.448   9.693 -0.3488 -0.4053 -1.0563
   62SAPC   C27 4899   2.209   4.239   9.656 -0.3962  0.6384  0.6149
   62SAPC   H7R 4900   2.206   4.144   9.714  0.3904  0.5567  0.5278
   62SAPC   H7S 4901   2.304   4.238   9.599 -0.3096  0.1503  0.7576
   62SAPC   C28 4902   2.093   4.220   9.555  0.1468 -0.7842 -0.1655
   62SAPC   H8R 4903   2.004   4.166   9.590 -2.2751  2.7958 -0.3734
   62SAPC   C29 4904   2.085   4.278   9.432  0.0878  0.0408  0.1396
   62SAPC   H9R 4905   1.997   4.261   9.367  0.3342  2.4606 -0.9236
   62SAPC  C210 4906   2.189   4.376   9.375 -0.0353  0.0997  0.5652
   62SAPC  H10R 4907   2.216   4.461   9.443  2.7205  0.6766 -1.1046
   62SAPC  H10S 4908   2.154   4.441   9.292  2.0823 -0.0074 -0.4824
   62SAPC  C211 4909   2.321   4.315   9.332 -0.2307  0.4030 -0.0015
   62SAPC  H11R 4910   2.387   4.289   9.417  2.5827  0.7636 -1.9263
   62SAPC  C212 4911   2.372   4.298   9.206  0.9305 -0.3238 -0.5789
   62SAPC  H12R 4912   2.471   4.250   9.196  1.4614  0.9360 -1.6674
   62SAPC  C213 4913   2.316   4.335   9.071 -0.6760 -0.5197 -0.2029
   62SAPC  H13R 4914   2.212   4.371   9.083 -0.2752  1.2641 -1.6266
   62SAPC  H13S 4915   2.310   4.242   9.010 -0.2891 -1.2897  0.9139
   62SAPC  C214 4916   2.405   4.429   8.992  0.2239 -0.2265 -0.0900
   62SAPC  H14R 4917   2.383   4.537   9.003 -2.8954 -0.3655 -3.3415
   62SAPC  C215 4918   2.509   4.395   8.920  0.2414  0.0547  0.3382
   62SAPC  H15R 4919   2.559   4.470   8.858 -1.2694  2.2230  1.6371
   62SAPC  C216 4920   2.558   4.254   8.903 -0.2611 -0.2502  0.0142
   62SAPC  H16R 4921   2.547   4.194   8.996  1.6618 -1.6620 -0.6030
   62SAPC  H16S 4922   2.666   4.245   8.878  0.3592 -2.4610  3.0237
   62SAPC  C217 4923   2.492   4.177   8.786 -0.3019 -0.3114 -0.2512
   62SAPC  H17R 4924   2.519   4.223   8.689 -0.2006 -1.6020 -0.8564
   62SAPC  H17S 4925   2.385   4.203   8.798 -0.0286  0.9648 -0.4537
   62SAPC  C218 4926   2.525   4.025   8.796 -0.6943 -0.4439 -0.3895
   62SAPC  H18R 4927   2.514   3.999   8.903  0.3419  0.3808 -0.0732
   62SAPC  H18S 4928   2.623   3.997   8.753 -0.3518  1.2854 -0.7989
   62SAPC  C219 4929   2.425   3.946   8.706 -0.2509 -0.4785 -0.1320
   62SAPC  H19R 4930   2.330   3.946   8.765 -0.1753  1.2404  0.0152
   62SAPC  H19S 4931   2.461   3.841   8.696  1.6052  0.2031 -1.0895
   62SAPC  C220 4932   2.399   4.012   8.574  0.3263 -0.0405 -0.0403
   62SAPC  H20R 4933   2.332   4.100   8.583 -0.1845 -0.4417  0.1078
   62SAPC  H20S 4934   2.343   3.943   8.507 -0.6857  2.0566 -1.4414
   62SAPC  H20T 4935   2.497   4.040   8.530 -0.0535  0.4799 -0.5733
   62SAPC   C33 4936   2.658   4.213  10.191  0.4015  0.3188  0.1826
   62SAPC   H3X 4937   2.721   4.298  10.157  1.6335 -0.6504 -0.0565
   62SAPC   H3Y 4938   2.553   4.248  10.199  0.9645  2.3613 -0.6593
   62SAPC   C34 4939   2.662   4.102  10.093 -0.6691  0.3397 -0.6893
   62SAPC   H4X 4940   2.577   4.034  10.114  0.4770 -1.3664 -1.3413
   62SAPC   H4Y 4941   2.759   4.047  10.095  0.4112  2.1339 -1.1265
   62SAPC   C35 4942   2.649   4.168   9.957 -0.3960  0.3142  0.3506
   62SAPC   H5X 4943   2.732   4.242   9.951 -0.4135  0.2902 -0.3043
   62SAPC   H5Y 4944   2.556   4.228   9.947 -0.1880  0.3173 -2.0089
   62SAPC   C36 4945   2.664   4.081   9.840 -0.2955  0.0520  0.8880
   62SAPC   H6X 4946   2.599   3.992   9.851  2.8422 -2.2087  3.1845
   62SAPC   H6Y 4947   2.770   4.048   9.831  0.9330  3.7590  0.1551
   62SAPC   C37 4948   2.625   4.150   9.708 -0.1363  0.4168  0.2088
   62SAPC   H7X 4949   2.681   4.245   9.693 -2.3338  1.7543 -0.0776
   62SAPC   H7Y 4950   2.515   4.168   9.705 -0.2973 -0.4817  0.5873
   62SAPC   C38 4951   2.659   4.065   9.586  0.4171  0.3132  0.6361
   62SAPC   H8X 4952   2.595   3.975   9.586  1.3301 -0.3572  1.3225
   62SAPC   H8Y 4953   2.761   4.027   9.606  0.5115 -0.3477 -1.0202
   62SAPC   C39 4954   2.655   4.128   9.444  0.4297  0.4065 -0.7279
   62SAPC   H9X 4955   2.706   4.226   9.450  1.9861 -0.4485  2.1419
   62SAPC   H9Y 4956   2.552   4.133   9.404  0.9568 -1.7894 -2.5557
   62SAPC  C310 4957   2.744   4.045   9.356  0.0177 -0.1277  1.0699
   62SAPC  H10X 4958   2.716   3.938   9.354 -0.6410  0.0462  0.4572
   62SAPC  H10Y 4959   2.849   4.059   9.389  0.5267  1.2220 -0.8886
   62SAPC  C311 4960   2.738   4.086   9.209  0.3136  1.1322  0.1647
   62SAPC  H11X 4961   2.755   4.195   9.196 -1.5942  1.5878  1.1279
   62SAPC  H11Y 4962   2.647   4.052   9.155  2.3288 -0.7144 -2.3750
   62SAPC  C312 4963   2.849   4.018   9.125 -0.2590 -0.5634  0.0453
   62SAPC  H12X 4964   2.829   3.916   9.088  2.4146 -0.7657 -1.0535
   62SAPC  H12Y 4965   2.938   4.012   9.191  0.0738  1.0552 -0.2179
   62SAPC  C313 4966   2.895   4.090   8.999 -0.3996 -0.0208 -0.4051
   62SAPC  H13X 4967   2.884   4.198   9.021  0.5395  0.1174 -0.5870
   62SAPC  H13Y 4968   2.833   4.058   8.912  1.8154 -0.7390 -1.8189
   62SAPC  C314 4969   3.044   4.068   8.956  0.2379 -0.3254 -0.7580
   62SAPC  H14X 4970   3.068   3.959   8.952 -1.0477 -0.5828 -2.0378
   62SAPC  H14Y 4971   3.112   4.113   9.032  2.7462 -0.9790 -2.5210
   62SAPC  C315 4972   3.073   4.124   8.817 -0.3771 -0.0943 -0.5145
   62SAPC  H15X 4973   3.026   4.225   8.810 -0.5625 -0.0498  1.0334
   62SAPC  H15Y 4974   3.043   4.063   8.730  2.4345 -0.5911 -1.2118
   62SAPC  C316 4975   3.229   4.139   8.795  0.1336  0.5037 -0.0159
   62SAPC  H16X 4976   3.276   4.038   8.797 -1.4861 -0.3374 -1.6884
   62SAPC  H16Y 4977   3.266   4.200   8.880  1.2919  1.3242 -1.0879
   62SAPC  C317 4978   3.274   4.182   8.657  0.0700 -1.3211  0.3016
   62SAPC  H17X 4979   3.221   4.279   8.644  0.3129 -1.0848  0.9964
   62SAPC  H17Y 4980   3.232   4.108   8.585  0.7375  0.0606 -1.6004
   62SAPC  C318 4981   3.423   4.189   8.623 -0.0327 -0.3585 -1.0362
   62SAPC  H18X 4982   3.482   4.244   8.699 -1.7451  1.1722 -0.7339
   62SAPC  H18Y 4983   3.439   4.228   8.520  0.9805 -1.2308 -1.2235
   62SAPC  H18Z 4984   3.459   4.084   8.627 -1.6861 -0.9947 -1.7336
   63SAPC     N 4985   6.464   2.001   5.908  0.4932 -0.1528 -0.3174
   63SAPC   C12 4986   6.435   1.908   6.031 -0.3089 -0.0041 -0.4113
   63SAPC  H12A 4987   6.494   1.818   6.028 -0.1595  0.0644  0.2908
   63SAPC  H12B 4988   6.331   1.882   6.018 -0.7078  0.6388  1.2922
   63SAPC   C13 4989   6.408   1.930   5.791  0.1942  0.5522  0.0200
   63SAPC  H13A 4990   6.456   1.836   5.767  0.1923  0.6356 -0.3086
   63SAPC  H13B 4991   6.301   1.925   5.796  0.2208  0.8186  3.5633
   63SAPC  H13C 4992   6.420   1.993   5.705  0.3583  1.7600  0.8965
   63SAPC   C14 4993   6.399   2.132   5.919  0.7511 -0.3220  0.4109
   63SAPC  H14A 4994   6.294   2.122   5.944  0.7572  0.1406  0.6255
   63SAPC  H14B 4995   6.439   2.184   6.005  0.2791  1.8681 -0.6088
   63SAPC  H14C 4996   6.414   2.196   5.833 -0.7630 -0.3011  0.1307
   63SAPC   C15 4997   6.610   2.010   5.884  0.0662 -0.3521 -0.1414
   63SAPC  H15A 4998   6.654   1.913   5.864  0.7381 -0.7131  2.6427
   63SAPC  H15B 4999   6.616   2.079   5.801 -0.2614  0.2395  0.3254
   63SAPC  H15C 5000   6.668   2.048   5.966 -0.6505 -1.3346  0.8482
   63SAPC   C11 5001   6.471   1.972   6.170 -0.2198  0.4291 -0.2017
   63SAPC  H11A 5002   6.406   2.056   6.201 -2.5644 -1.7412  1.1369
   63SAPC  H11B 5003   6.571   2.020   6.165 -1.8153  4.2117  1.1361
   63SAPC     P 5004   6.330   1.798   6.305  0.4259  0.2735 -0.8086
   63SAPC   O13 5005   6.279   1.737   6.185  0.3630 -0.7002  0.8005
   63SAPC   O14 5006   6.354   1.710   6.425 -0.7011 -0.4669 -1.3807
   63SAPC   O12 5007   6.467   1.863   6.263  0.6149  0.0706  0.6781
   63SAPC   O11 5008   6.251   1.927   6.345  1.2823 -0.1025 -0.0692
   63SAPC    C1 5009   6.222   1.963   6.481 -1.0528  0.0511  0.0300
   63SAPC    HA 5010   6.117   1.946   6.511 -0.9891 -1.9892 -0.7146
   63SAPC    HB 5011   6.286   1.900   6.546 -0.6855 -0.4307 -0.7797
   63SAPC    C2 5012   6.258   2.109   6.504 -0.2981  1.0751  0.4186
   63SAPC    HS 5013   6.229   2.169   6.415  0.2520  2.3011  1.0357
   63SAPC   O21 5014   6.398   2.119   6.534 -0.1616 -0.2764  1.0550
   63SAPC   C21 5015   6.471   2.208   6.465  0.7874  0.3378 -0.2577
   63SAPC   O22 5016   6.421   2.296   6.392 -0.6188  0.3405 -0.5683
   63SAPC   C22 5017   6.607   2.201   6.514  0.5726 -0.1581  0.5204
   63SAPC   H2R 5018   6.608   2.153   6.614 -0.0082 -1.8146 -0.2181
   63SAPC   H2S 5019   6.652   2.120   6.452  1.0791  0.4616  0.0743
   63SAPC    C3 5020   6.180   2.153   6.631 -0.5636  0.2237 -0.0379
   63SAPC    HX 5021   6.072   2.166   6.607 -0.4783  0.6351 -0.2076
   63SAPC    HY 5022   6.224   2.252   6.655  0.9514 -0.3671 -0.2558
   63SAPC   O31 5023   6.180   2.054   6.737  0.1372  0.7559  0.1380
   63SAPC   C31 5024   6.163   2.095   6.854 -0.5564  0.6915 -0.0458
   63SAPC   O32 5025   6.142   2.208   6.885  0.8632 -0.5337 -0.1270
   63SAPC   C32 5026   6.198   1.983   6.950  0.2551 -0.4914 -0.3749
   63SAPC   H2X 5027   6.304   1.953   6.941  0.4831  0.3626 -0.5854
   63SAPC   H2Y 5028   6.142   1.892   6.919  2.3914 -1.6212 -1.1336
   63SAPC   C23 5029   6.697   2.330   6.491 -0.1405  0.9299 -0.3350
   63SAPC   H3R 5030   6.683   2.391   6.399 -0.3897  0.0844 -0.8676
   63SAPC   H3S 5031   6.801   2.291   6.491  0.2956  2.0107 -1.2540
   63SAPC   C24 5032   6.696   2.416   6.612 -0.0825  0.4655  0.1466
   63SAPC   H4R 5033   6.777   2.492   6.606  0.0734  0.2042 -2.4208
   63SAPC   H4S 5034   6.710   2.352   6.701  0.9774 -1.5672 -1.3701
   63SAPC   C25 5035   6.567   2.502   6.619 -0.4617  0.5074  0.5786
   63SAPC   H5R 5036   6.548   2.547   6.521  0.3377  2.3221  1.2248
   63SAPC   C26 5037   6.492   2.518   6.728  0.1109  0.3286 -0.4941
   63SAPC   H6R 5038   6.406   2.586   6.714  1.6180  1.8924 -2.8405
   63SAPC   C27 5039   6.524   2.456   6.860 -0.5949  0.8557 -0.1251
   63SAPC   H7R 5040   6.499   2.532   6.937 -0.4867  0.4035  0.3598
   63SAPC   H7S 5041   6.634   2.440   6.868 -0.7925 -1.8856 -1.6343
   63SAPC   C28 5042   6.449   2.335   6.903 -0.4853  0.7940  0.1480
   63SAPC   H8R 5043   6.412   2.261   6.830  3.1055 -2.2467  1.1173
   63SAPC   C29 5044   6.429   2.289   7.030  0.7459 -0.1656 -0.0537
   63SAPC   H9R 5045   6.372   2.195   7.031 -1.7982  1.2625 -0.9283
   63SAPC  C210 5046   6.474   2.357   7.166  0.2583 -0.3585  0.0107
   63SAPC  H10R 5047   6.394   2.377   7.241 -0.0377  0.4283 -0.5005
   63SAPC  H10S 5048   6.511   2.460   7.148 -2.5669  1.2658  2.6135
   63SAPC  C211 5049   6.584   2.284   7.240  0.0148  0.4526  0.4065
   63SAPC  H11R 5050   6.624   2.192   7.197  1.0385  2.2174 -2.7697
   63SAPC  C212 5051   6.636   2.317   7.359  0.2346  0.2232 -0.1383
   63SAPC  H12R 5052   6.709   2.250   7.407 -1.8465 -2.6062 -0.6664
   63SAPC  C213 5053   6.601   2.439   7.437 -0.1302  0.1537 -0.3075
   63SAPC  H13R 5054   6.569   2.510   7.358  1.6505  0.9132 -0.4015
   63SAPC  H13S 5055   6.693   2.492   7.470 -0.6235  2.5273 -2.4168
   63SAPC  C214 5056   6.496   2.426   7.543  0.3076  0.0750  0.3234
   63SAPC  H14R 5057   6.394   2.432   7.501 -0.3621 -0.6888  1.7434
   63SAPC  C215 5058   6.511   2.419   7.679 -0.3897 -0.1312 -0.0280
   63SAPC  H15R 5059   6.430   2.383   7.743  0.0419 -1.2412 -0.0798
   63SAPC  C216 5060   6.638   2.415   7.758 -1.0319 -0.2803  0.2980
   63SAPC  H16R 5061   6.733   2.438   7.705 -0.2621 -0.0542  1.7268
   63SAPC  H16S 5062   6.646   2.311   7.794 -0.6401 -0.9716 -1.6457
   63SAPC  C217 5063   6.636   2.505   7.881  0.1718  0.0043 -0.1774
   63SAPC  H17R 5064   6.597   2.607   7.860  0.3307  0.0051 -0.4733
   63SAPC  H17S 5065   6.741   2.522   7.914  0.1686  1.9676 -1.0455
   63SAPC  C218 5066   6.550   2.452   7.999  0.4377  0.0522  0.0110
   63SAPC  H18R 5067   6.608   2.364   8.035  0.6969  0.7281  1.2648
   63SAPC  H18S 5068   6.446   2.429   7.966 -0.7262  2.5485  1.6728
   63SAPC  C219 5069   6.536   2.540   8.116  0.4511  0.1448 -0.8071
   63SAPC  H19R 5070   6.489   2.633   8.078 -1.1501  0.3478  1.4631
   63SAPC  H19S 5071   6.628   2.570   8.171 -0.5388  0.6318  0.6472
   63SAPC  C220 5072   6.445   2.487   8.223 -0.2398  0.7325 -0.0703
   63SAPC  H20R 5073   6.346   2.453   8.186 -0.4769  1.4893 -0.1566
   63SAPC  H20S 5074   6.429   2.569   8.296 -0.2987  0.7332 -0.0833
   63SAPC  H20T 5075   6.489   2.404   8.282 -2.6839 -0.5092  0.1501
   63SAPC   C33 5076   6.165   2.018   7.091 -0.5692 -0.0039 -0.2993
   63SAPC   H3X 5077   6.059   1.992   7.110 -0.8705 -0.3613 -2.2606
   63SAPC   H3Y 5078   6.184   2.126   7.104  2.9327 -0.4638 -0.5215
   63SAPC   C34 5079   6.264   1.937   7.186  0.6354  0.2849 -0.6732
   63SAPC   H4X 5080   6.372   1.944   7.162  0.4898 -0.8787 -1.8289
   63SAPC   H4Y 5081   6.242   1.830   7.167  2.9678 -0.3443 -0.1790
   63SAPC   C35 5082   6.240   1.963   7.343 -0.7973 -0.7518 -0.5641
   63SAPC   H5X 5083   6.285   1.876   7.396 -0.2787 -0.7965 -1.0738
   63SAPC   H5Y 5084   6.129   1.959   7.345 -0.8623  0.1973 -1.6298
   63SAPC   C36 5085   6.299   2.090   7.403 -0.1231 -0.0619  1.1739
   63SAPC   H6X 5086   6.266   2.171   7.334 -0.4595 -0.1594  1.2198
   63SAPC   H6Y 5087   6.409   2.084   7.388 -0.4901 -0.2933 -2.3719
   63SAPC   C37 5088   6.236   2.116   7.539  0.2749  0.1551  0.2600
   63SAPC   H7X 5089   6.136   2.069   7.547  0.4794 -0.8746 -2.3817
   63SAPC   H7Y 5090   6.223   2.226   7.528  3.2750  0.4585 -1.4423
   63SAPC   C38 5091   6.326   2.089   7.662  0.2870  0.0450 -0.1646
   63SAPC   H8X 5092   6.431   2.126   7.651  1.5436 -2.9004  0.9140
   63SAPC   H8Y 5093   6.337   1.978   7.659 -0.0689  0.0235 -0.7493
   63SAPC   C39 5094   6.275   2.140   7.801  0.5480  0.2774  0.2028
   63SAPC   H9X 5095   6.185   2.083   7.833  2.4723 -2.0130  1.8715
   63SAPC   H9Y 5096   6.253   2.249   7.802  1.2351  0.4130  0.5585
   63SAPC  C310 5097   6.390   2.115   7.903 -0.3446  0.4682  0.4915
   63SAPC  H10X 5098   6.480   2.176   7.880 -0.6203 -0.1414 -2.6989
   63SAPC  H10Y 5099   6.410   2.008   7.882 -0.9776  0.6072 -0.8808
   63SAPC  C311 5100   6.336   2.153   8.041 -0.4598  0.1416  0.0653
   63SAPC  H11X 5101   6.241   2.097   8.055 -1.6854  1.7231 -1.5211
   63SAPC  H11Y 5102   6.306   2.259   8.048  1.4094  0.6732  0.4718
   63SAPC  C312 5103   6.431   2.113   8.161 -0.0987  0.5185  0.0366
   63SAPC  H12X 5104   6.383   2.153   8.253 -0.3412 -1.5292  0.8525
   63SAPC  H12Y 5105   6.528   2.163   8.138 -0.3072  0.3202 -1.3713
   63SAPC  C313 5106   6.445   1.956   8.165  0.5340 -0.7765 -0.1511
   63SAPC  H13X 5107   6.469   1.905   8.069 -1.2478 -0.8118 -0.6037
   63SAPC  H13Y 5108   6.350   1.909   8.199  2.2413 -2.9474  2.0046
   63SAPC  C314 5109   6.566   1.917   8.244 -0.8387  0.1938 -0.4706
   63SAPC  H14X 5110   6.559   1.957   8.347  0.3961 -3.6520  1.2932
   63SAPC  H14Y 5111   6.666   1.957   8.216  0.3047 -0.7116  2.0367
   63SAPC  C315 5112   6.574   1.760   8.263 -0.2343 -0.1587  0.1649
   63SAPC  H15X 5113   6.567   1.713   8.163  1.4946  1.2950 -0.6892
   63SAPC  H15Y 5114   6.490   1.724   8.326 -1.8648  0.6585 -1.4660
   63SAPC  C316 5115   6.706   1.719   8.315  0.0239 -0.3667 -0.0801
   63SAPC  H16X 5116   6.732   1.790   8.397 -0.1234 -2.1469  1.5783
   63SAPC  H16Y 5117   6.771   1.740   8.228 -1.8648  1.1298 -1.2263
   63SAPC  C317 5118   6.705   1.572   8.353 -0.1864  0.2680  0.0121
   63SAPC  H17X 5119   6.647   1.520   8.274  1.2690 -2.3452  0.5483
   63SAPC  H17Y 5120   6.656   1.555   8.452  0.1314 -1.3071 -0.0725
   63SAPC  C318 5121   6.833   1.493   8.370  0.3896  0.1648  0.2996
   63SAPC  H18X 5122   6.892   1.558   8.438  0.5830  0.7657 -0.4273
   63SAPC  H18Y 5123   6.888   1.497   8.274  0.8586  1.0638  0.5974
   63SAPC  H18Z 5124   6.834   1.388   8.406  0.2027 -1.0542 -2.9166
   64SAPC     N 5125   2.317   2.881   5.836 -0.3044  0.7246  0.6021
   64SAPC   C12 5126   2.403   2.999   5.887 -0.4028  0.6491  0.5939
   64SAPC  H12A 5127   2.385   3.084   5.823  1.9383 -0.1033 -1.1897
   64SAPC  H12B 5128   2.506   2.969   5.875 -0.7601 -0.5492  0.3905
   64SAPC   C13 5129   2.169   2.920   5.840  0.0627 -0.3923  0.0125
   64SAPC  H13A 5130   2.112   2.836   5.802  2.1008 -0.9365 -2.0913
   64SAPC  H13B 5131   2.138   2.948   5.939 -0.7275 -0.5834 -0.1681
   64SAPC  H13C 5132   2.154   3.002   5.771  1.3479  0.4106  0.6669
   64SAPC   C14 5133   2.363   2.846   5.698  0.8239 -0.9478 -0.3990
   64SAPC  H14A 5134   2.307   2.758   5.669 -1.4221  0.1672  0.3381
   64SAPC  H14B 5135   2.342   2.931   5.635 -2.0045  0.1737  1.8533
   64SAPC  H14C 5136   2.470   2.826   5.692  0.8300 -1.1134  0.2357
   64SAPC   C15 5137   2.340   2.763   5.924  0.7163 -0.3943  0.4007
   64SAPC  H15A 5138   2.444   2.739   5.912  1.1695  0.9867  1.3309
   64SAPC  H15B 5139   2.308   2.790   6.024 -1.7559 -1.2284 -0.0997
   64SAPC  H15C 5140   2.281   2.678   5.893 -0.9529  0.6335  0.6290
   64SAPC   C11 5141   2.390   3.058   6.027  0.6498  0.3879 -0.0342
   64SAPC  H11A 5142   2.472   3.126   6.059 -0.0706  0.3537  2.0428
   64SAPC  H11B 5143   2.396   2.973   6.099  0.5215 -1.1127 -1.7277
   64SAPC     P 5144   2.250   3.284   6.076  0.2715 -0.2622 -0.0095
   64SAPC   O13 5145   2.324   3.372   5.985  0.2191  0.1909  0.0777
   64SAPC   O14 5146   2.106   3.306   6.084 -0.0721 -0.5901 -0.2497
   64SAPC   O12 5147   2.267   3.125   6.039 -0.1800 -0.5770  0.4882
   64SAPC   O11 5148   2.310   3.295   6.217  0.3034  0.3908 -0.2839
   64SAPC    C1 5149   2.307   3.196   6.315 -0.1282 -0.1735 -0.2747
   64SAPC    HA 5150   2.260   3.104   6.274  1.5580 -0.8937 -0.6692
   64SAPC    HB 5151   2.409   3.172   6.350 -0.3159  3.1822  3.3289
   64SAPC    C2 5152   2.227   3.242   6.436  0.3187 -0.1245  0.6960
   64SAPC    HS 5153   2.278   3.333   6.475 -0.5901  1.0623 -0.7676
   64SAPC   O21 5154   2.208   3.138   6.526 -0.9542  0.5742 -0.1656
   64SAPC   C21 5155   2.258   3.155   6.650 -0.1543 -0.0972  0.2733
   64SAPC   O22 5156   2.301   3.261   6.697  0.0256 -0.6014  0.5435
   64SAPC   C22 5157   2.246   3.030   6.738 -0.2817  0.8956  0.0422
   64SAPC   H2R 5158   2.143   2.988   6.742  0.2437 -0.4004  0.5863
   64SAPC   H2S 5159   2.306   2.950   6.689 -2.9023 -0.2935 -1.5062
   64SAPC    C3 5160   2.090   3.284   6.391  0.0992 -0.4504  0.4831
   64SAPC    HX 5161   2.052   3.202   6.326 -2.4189  1.5528 -0.7484
   64SAPC    HY 5162   2.078   3.374   6.327 -1.2798 -1.1569 -0.2991
   64SAPC   O31 5163   2.002   3.304   6.508 -0.6776 -0.3499 -0.3275
   64SAPC   C31 5164   1.886   3.247   6.514 -0.6128 -0.0513 -0.5496
   64SAPC   O32 5165   1.833   3.190   6.423 -0.0725 -0.0408  0.5770
   64SAPC   C32 5166   1.827   3.259   6.652  0.5127 -0.6662 -0.4346
   64SAPC   H2X 5167   1.733   3.200   6.654  0.1729 -0.1246 -0.1772
   64SAPC   H2Y 5168   1.801   3.367   6.661 -0.3430 -0.7403 -1.6714
   64SAPC   C23 5169   2.290   3.048   6.886  0.4797  0.7058 -0.4061
   64SAPC   H3R 5170   2.234   3.137   6.921 -0.5954  0.0991 -0.5171
   64SAPC   H3S 5171   2.399   3.068   6.890  0.3355  1.3178  0.7574
   64SAPC   C24 5172   2.247   2.927   6.980 -1.3798  0.6722 -0.2327
   64SAPC   H4R 5173   2.137   2.925   6.990 -1.3995 -0.4812 -0.5854
   64SAPC   H4S 5174   2.291   2.956   7.078  2.1923  0.2807 -1.5413
   64SAPC   C25 5175   2.303   2.788   6.948 -0.4422  0.1563  1.1678
   64SAPC   H5R 5176   2.267   2.751   6.851  1.3557 -0.1259  0.5660
   64SAPC   C26 5177   2.389   2.708   7.014 -0.2648 -0.8123 -0.2370
   64SAPC   H6R 5178   2.427   2.614   6.973 -1.1966 -1.1645 -0.3060
   64SAPC   C27 5179   2.448   2.730   7.148  0.5065 -0.2212  0.7245
   64SAPC   H7R 5180   2.396   2.813   7.199 -1.0649  0.4082 -1.7073
   64SAPC   H7S 5181   2.555   2.756   7.130  0.4731  0.9364  2.0704
   64SAPC   C28 5182   2.448   2.615   7.249  0.1820  0.3208  0.2185
   64SAPC   H8R 5183   2.416   2.523   7.198 -6.3963  1.4433  1.3914
   64SAPC   C29 5184   2.467   2.620   7.385  0.6419 -0.4368  0.5611
   64SAPC   H9R 5185   2.466   2.526   7.443 -0.0557  0.8302  2.7262
   64SAPC  C210 5186   2.491   2.748   7.465 -1.4307 -0.7707  0.1014
   64SAPC  H10R 5187   2.557   2.819   7.412  0.3824 -2.7132 -0.3586
   64SAPC  H10S 5188   2.538   2.729   7.564 -0.0166 -0.9679 -0.5843
   64SAPC  C211 5189   2.351   2.804   7.476 -0.2036 -0.3323  0.5956
   64SAPC  H11R 5190   2.315   2.866   7.393 -0.2121  0.6537  1.3207
   64SAPC  C212 5191   2.273   2.795   7.585 -0.0303  1.0365  0.7037
   64SAPC  H12R 5192   2.170   2.833   7.578 -0.3312  0.4786  1.9292
   64SAPC  C213 5193   2.309   2.731   7.716  0.2523 -0.3899  0.6167
   64SAPC  H13R 5194   2.251   2.789   7.791 -0.2965  0.4786 -0.4569
   64SAPC  H13S 5195   2.416   2.745   7.742  0.1547  0.8803  0.3877
   64SAPC  C214 5196   2.256   2.590   7.716  0.2734  0.7554  0.0355
   64SAPC  H14R 5197   2.183   2.555   7.642  0.4245  0.0864  0.1922
   64SAPC  C215 5198   2.318   2.498   7.798 -0.1380  0.0414 -0.7336
   64SAPC  H15R 5199   2.299   2.390   7.807  4.3896 -0.8003  1.7031
   64SAPC  C216 5200   2.438   2.535   7.882 -0.2653 -0.6065  0.0407
   64SAPC  H16R 5201   2.418   2.639   7.915  0.5112 -0.0622 -1.1708
   64SAPC  H16S 5202   2.520   2.531   7.808 -1.2196 -0.0080 -1.0975
   64SAPC  C217 5203   2.463   2.449   8.009  0.1932  0.0197  0.1565
   64SAPC  H17R 5204   2.545   2.485   8.075  0.3657 -2.1762  1.2367
   64SAPC  H17S 5205   2.476   2.341   7.983  0.4064  0.1828 -0.4255
   64SAPC  C218 5206   2.345   2.447   8.097 -0.3271  0.0673 -0.1368
   64SAPC  H18R 5207   2.247   2.431   8.046 -1.0240  1.7533  0.6026
   64SAPC  H18S 5208   2.332   2.543   8.151 -0.1020 -0.4160  0.7892
   64SAPC  C219 5209   2.357   2.342   8.211 -0.4266 -0.8302 -0.0831
   64SAPC  H19R 5210   2.458   2.349   8.256  0.0438  0.2241 -1.2539
   64SAPC  H19S 5211   2.353   2.237   8.174 -3.4124 -1.4849  1.7198
   64SAPC  C220 5212   2.261   2.353   8.329 -0.1339 -0.0114 -0.8090
   64SAPC  H20R 5213   2.245   2.459   8.357 -0.1618 -0.5604  1.4495
   64SAPC  H20S 5214   2.291   2.290   8.416 -1.1997 -1.8385 -1.7118
   64SAPC  H20T 5215   2.163   2.316   8.292  0.1893 -2.1220  0.2657
   64SAPC   C33 5216   1.922   3.219   6.773 -0.2394  0.0740  0.3506
   64SAPC   H3X 5217   2.017   3.277   6.784  0.5575 -0.9082 -1.0293
   64SAPC   H3Y 5218   1.968   3.118   6.760  1.1299  0.8055 -0.8110
   64SAPC   C34 5219   1.849   3.211   6.909  0.0174 -0.0008 -0.9080
   64SAPC   H4X 5220   1.774   3.130   6.906 -0.6328  0.4390  1.3390
   64SAPC   H4Y 5221   1.812   3.314   6.928 -0.2022  0.4122 -3.3096
   64SAPC   C35 5222   1.938   3.173   7.030 -0.7635  0.1260  0.7304
   64SAPC   H5X 5223   2.005   3.260   7.047  2.3661 -1.6168 -1.5410
   64SAPC   H5Y 5224   2.004   3.084   7.013 -0.4830  0.4292  0.1860
   64SAPC   C36 5225   1.844   3.156   7.139  0.2416 -0.7913 -0.4746
   64SAPC   H6X 5226   1.767   3.079   7.117 -1.9839  0.6577  1.7106
   64SAPC   H6Y 5227   1.786   3.249   7.158  1.8404  0.1929 -0.2455
   64SAPC   C37 5228   1.914   3.138   7.269  0.1264  0.3415  0.2960
   64SAPC   H7X 5229   2.016   3.183   7.271  0.0340  0.5384  1.5914
   64SAPC   H7Y 5230   1.932   3.029   7.281 -2.1863 -0.1020  0.1708
   64SAPC   C38 5231   1.833   3.177   7.392  0.0614 -0.3749 -0.5013
   64SAPC   H8X 5232   1.737   3.122   7.383 -0.5042  0.2063  1.4388
   64SAPC   H8Y 5233   1.803   3.284   7.394  0.0545 -0.3720 -0.8031
   64SAPC   C39 5234   1.909   3.158   7.523 -0.0049  0.4675 -0.1466
   64SAPC   H9X 5235   1.994   3.230   7.531  0.0958  0.1560  2.5983
   64SAPC   H9Y 5236   1.938   3.051   7.513 -0.0950  0.1009  2.6827
   64SAPC  C310 5237   1.832   3.179   7.656 -0.1887 -0.8920  0.1968
   64SAPC  H10X 5238   1.725   3.155   7.641  0.3837 -2.5730 -1.5832
   64SAPC  H10Y 5239   1.822   3.289   7.672 -0.0492 -0.6462 -1.2646
   64SAPC  C311 5240   1.893   3.094   7.770  0.3996 -0.1724  0.1792
   64SAPC  H11X 5241   1.994   3.132   7.796 -0.4159  1.1736  1.5194
   64SAPC  H11Y 5242   1.900   2.987   7.743 -0.7247 -0.1858 -0.1152
   64SAPC  C312 5243   1.810   3.083   7.891  0.6875 -0.4408  0.0272
   64SAPC  H12X 5244   1.864   3.020   7.965  3.4082  1.8230  0.1441
   64SAPC  H12Y 5245   1.712   3.033   7.875 -0.2648  1.7774 -1.4810
   64SAPC  C313 5246   1.773   3.220   7.952 -0.1418 -0.2427 -0.4102
   64SAPC  H13X 5247   1.714   3.287   7.886  0.6492  1.7055  0.7702
   64SAPC  H13Y 5248   1.869   3.272   7.972 -1.1524  2.0848 -1.2863
   64SAPC  C314 5249   1.700   3.211   8.089 -0.5028  0.2461 -0.7181
   64SAPC  H14X 5250   1.605   3.157   8.071 -1.2364  1.2791 -0.0456
   64SAPC  H14Y 5251   1.670   3.315   8.115 -1.5987  0.3113 -2.1123
   64SAPC  C315 5252   1.790   3.149   8.200  0.9993 -0.8911  0.2473
   64SAPC  H15X 5253   1.876   3.219   8.208 -0.4303  0.8133  1.1534
   64SAPC  H15Y 5254   1.817   3.044   8.173  0.4840 -0.3233 -2.7732
   64SAPC  C316 5255   1.732   3.146   8.338 -0.1477 -0.0800  0.3226
   64SAPC  H16X 5256   1.781   3.062   8.393  6.0659  1.4820 -1.9810
   64SAPC  H16Y 5257   1.624   3.125   8.321 -0.7458  1.6946  1.5972
   64SAPC  C317 5258   1.751   3.268   8.424 -0.3272  0.2469 -0.2657
   64SAPC  H17X 5259   1.757   3.357   8.359  1.6377  0.8626  0.6825
   64SAPC  H17Y 5260   1.846   3.241   8.476 -0.5327 -0.0829 -0.0548
   64SAPC  C318 5261   1.641   3.291   8.537  0.2523 -0.3831  0.5148
   64SAPC  H18X 5262   1.671   3.384   8.589 -1.5071  1.2754 -1.2444
   64SAPC  H18Y 5263   1.635   3.209   8.612  0.2192 -1.0835 -0.2256
   64SAPC  H18Z 5264   1.540   3.307   8.493 -0.0570  0.4420  1.5023
   65SAPC     N 5265   1.336   5.382   5.803 -0.3255 -0.6404 -0.0935
   65SAPC   C12 5266   1.199   5.316   5.832  0.7912 -0.0406  0.4806
   65SAPC  H12A 5267   1.227   5.224   5.881  1.3885 -0.3585 -0.4309
   65SAPC  H12B 5268   1.149   5.289   5.740 -2.0491 -1.6398  2.3317
   65SAPC   C13 5269   1.326   5.514   5.738  0.2223  0.2067 -0.1544
   65SAPC  H13A 5270   1.295   5.495   5.636  0.4781 -0.8086 -0.0539
   65SAPC  H13B 5271   1.242   5.573   5.772  0.9482  0.8706  0.5346
   65SAPC  H13C 5272   1.414   5.575   5.752  1.2767 -0.6065 -2.6039
   65SAPC   C14 5273   1.395   5.403   5.941  0.0563  0.2777  0.0651
   65SAPC  H14A 5274   1.332   5.470   5.998  0.1861  0.8365 -0.4384
   65SAPC  H14B 5275   1.384   5.311   5.997 -1.3815  1.6684  2.2023
   65SAPC  H14C 5276   1.500   5.429   5.943 -0.1690  1.1812  1.9946
   65SAPC   C15 5277   1.433   5.296   5.724 -0.1425 -0.2919  0.0602
   65SAPC  H15A 5278   1.529   5.344   5.717 -0.0440  0.0505  2.7319
   65SAPC  H15B 5279   1.455   5.205   5.777 -1.5044  0.2380  1.6324
   65SAPC  H15C 5280   1.393   5.277   5.625 -0.0769  0.3857 -0.0993
   65SAPC   C11 5281   1.093   5.388   5.917  0.1196 -0.1621  1.1599
   65SAPC  H11A 5282   1.134   5.416   6.016  1.5588 -0.8860  0.7999
   65SAPC  H11B 5283   1.023   5.301   5.918  2.1494 -2.0694 -2.5683
   65SAPC     P 5284   1.000   5.624   5.902 -0.3708 -0.3721 -0.2482
   65SAPC   O13 5285   1.121   5.705   5.917 -0.2227  0.2207 -0.1760
   65SAPC   O14 5286   0.877   5.680   5.839  0.0090 -0.1555  0.1232
   65SAPC   O12 5287   1.037   5.491   5.838 -0.3139  0.2731 -0.0977
   65SAPC   O11 5288   0.952   5.585   6.048 -0.1882  0.3043 -0.7865
   65SAPC    C1 5289   0.839   5.500   6.070 -0.0901  0.7226  0.9609
   65SAPC    HA 5290   0.742   5.554   6.073 -1.0120 -0.8153 -0.1897
   65SAPC    HB 5291   0.832   5.416   5.998  1.2032  1.3155  0.0962
   65SAPC    C2 5292   0.837   5.425   6.219  0.1329 -0.5986 -0.4942
   65SAPC    HS 5293   0.739   5.372   6.218 -0.1974 -0.2407 -4.2574
   65SAPC   O21 5294   0.840   5.526   6.320  0.2663  0.3633  0.1421
   65SAPC   C21 5295   0.736   5.534   6.403 -0.6625 -0.2046  0.3840
   65SAPC   O22 5296   0.640   5.460   6.401  0.1116 -0.3545 -0.3353
   65SAPC   C22 5297   0.758   5.652   6.495  0.0176  0.0910  0.0300
   65SAPC   H2R 5298   0.838   5.723   6.465 -1.3267  1.6663  0.0424
   65SAPC   H2S 5299   0.666   5.713   6.481 -0.8586 -1.3840 -0.9133
   65SAPC    C3 5300   0.955   5.331   6.243  0.1263 -0.1026  0.4226
   65SAPC    HX 5301   1.051   5.388   6.238 -1.0983  2.0670  0.4038
   65SAPC    HY 5302   0.951   5.260   6.158 -0.8145 -2.3220  2.2466
   65SAPC   O31 5303   0.947   5.255   6.366  0.4730 -0.4016 -0.2842
   65SAPC   C31 5304   1.061   5.209   6.405  0.0042  0.3358 -0.4186
   65SAPC   O32 5305   1.165   5.197   6.341 -0.1377 -0.1521 -0.0015
   65SAPC   C32 5306   1.037   5.163   6.548  0.2000  0.2813  0.5157
   65SAPC   H2X 5307   0.929   5.152   6.571 -0.1173  0.3427 -0.8719
   65SAPC   H2Y 5308   1.072   5.247   6.613  0.4661  0.4107  0.2059
   65SAPC   C23 5309   0.779   5.601   6.638 -0.0834 -0.4937  0.8261
   65SAPC   H3R 5310   0.685   5.549   6.666  0.6724 -1.3391  1.8760
   65SAPC   H3S 5311   0.804   5.691   6.698  1.4577 -0.2006 -0.1959
   65SAPC   C24 5312   0.899   5.515   6.662 -0.2761 -0.6618  0.4656
   65SAPC   H4R 5313   0.898   5.425   6.596 -0.4763 -0.4023  0.1140
   65SAPC   H4S 5314   0.896   5.478   6.767  2.1854 -2.1347  0.1029
   65SAPC   C25 5315   1.039   5.579   6.640 -0.1848 -0.0901  0.1834
   65SAPC   H5R 5316   1.048   5.628   6.542  0.5906  1.5384  1.0440
   65SAPC   C26 5317   1.141   5.599   6.730  0.5332 -0.0756  0.6220
   65SAPC   H6R 5318   1.232   5.648   6.691  1.2008 -0.7738  1.2710
   65SAPC   C27 5319   1.141   5.558   6.872 -0.1725  0.7698  0.1307
   65SAPC   H7R 5320   1.045   5.583   6.921 -0.5818  2.1202 -1.2926
   65SAPC   H7S 5321   1.213   5.625   6.924  1.2658 -1.0918  0.6483
   65SAPC   C28 5322   1.200   5.428   6.895  0.4689  0.2846  0.1281
   65SAPC   H8R 5323   1.253   5.377   6.813 -0.5925 -1.0324  0.2479
   65SAPC   C29 5324   1.186   5.352   7.003 -0.0966  1.4804  0.0639
   65SAPC   H9R 5325   1.231   5.252   7.005  0.3655  1.6556  3.1110
   65SAPC  C210 5326   1.099   5.389   7.127 -0.2464  0.3985  0.0422
   65SAPC  H10R 5327   1.074   5.497   7.132 -0.9443  0.1746  1.9561
   65SAPC  H10S 5328   1.172   5.375   7.210  0.5179  0.7478 -0.5491
   65SAPC  C211 5329   0.981   5.301   7.121 -0.7386  0.5754  0.2960
   65SAPC  H11R 5330   0.935   5.284   7.022  0.3257 -0.1467 -0.0909
   65SAPC  C212 5331   0.928   5.250   7.226 -0.2288 -0.1448 -0.4300
   65SAPC  H12R 5332   0.831   5.199   7.211  0.5869 -1.9622  0.1491
   65SAPC  C213 5333   0.962   5.264   7.373  0.1059  0.1526 -0.2936
   65SAPC  H13R 5334   1.059   5.216   7.396 -0.8762 -0.7448  2.5051
   65SAPC  H13S 5335   0.890   5.199   7.428  0.5379 -0.5717 -0.5651
   65SAPC  C214 5336   0.959   5.403   7.435 -0.4505  0.1205  0.3610
   65SAPC  H14R 5337   0.869   5.462   7.412  0.2054  1.5830  1.4533
   65SAPC  C215 5338   1.060   5.457   7.504 -0.3116  0.4466 -0.1061
   65SAPC  H15R 5339   1.044   5.555   7.551 -1.3288  1.0805 -1.7045
   65SAPC  C216 5340   1.191   5.394   7.536 -0.4480 -0.0455  0.4675
   65SAPC  H16R 5341   1.253   5.382   7.445  0.0065 -0.9510  0.8787
   65SAPC  H16S 5342   1.167   5.292   7.573  0.2396  0.0100  1.1004
   65SAPC  C217 5343   1.274   5.467   7.638  0.0596  0.5102 -0.3250
   65SAPC  H17R 5344   1.226   5.487   7.736  1.9205 -2.0168  1.2082
   65SAPC  H17S 5345   1.302   5.568   7.599  0.6029  0.9723  1.2058
   65SAPC  C218 5346   1.412   5.404   7.658  0.0991 -0.0003 -0.0542
   65SAPC  H18R 5347   1.471   5.431   7.568 -2.1851 -1.0802 -2.0022
   65SAPC  H18S 5348   1.383   5.297   7.649  1.1951 -0.1501 -2.5007
   65SAPC  C219 5349   1.479   5.448   7.789  0.5990 -0.2519 -0.3203
   65SAPC  H19R 5350   1.422   5.433   7.884  0.7005  1.5956  0.0640
   65SAPC  H19S 5351   1.496   5.558   7.786  0.5906 -0.2576 -0.5729
   65SAPC  C220 5352   1.613   5.374   7.801  0.5822 -0.7251  0.4617
   65SAPC  H20R 5353   1.605   5.273   7.847  2.1159 -1.3872 -0.6382
   65SAPC  H20S 5354   1.679   5.429   7.872  2.9970  0.8780 -2.7590
   65SAPC  H20T 5355   1.671   5.369   7.706  2.0539  2.3537  1.0537
   65SAPC   C33 5356   1.121   5.038   6.567 -0.3672 -0.5002  0.7149
   65SAPC   H3X 5357   1.229   5.062   6.559 -0.2736 -0.5139  1.8033
   65SAPC   H3Y 5358   1.096   4.963   6.489  0.6741 -0.3787  0.2618
   65SAPC   C34 5359   1.078   4.973   6.700  0.6712 -0.0202 -0.1718
   65SAPC   H4X 5360   1.059   4.864   6.690  0.9387 -0.3959  2.5506
   65SAPC   H4Y 5361   0.983   5.025   6.726  0.9838  0.1139  0.7509
   65SAPC   C35 5362   1.161   5.005   6.820 -0.5454 -0.6213  0.5283
   65SAPC   H5X 5363   1.163   5.116   6.820 -0.3356 -0.6178 -0.1376
   65SAPC   H5Y 5364   1.264   4.964   6.815 -0.6606 -0.9446  0.7586
   65SAPC   C36 5365   1.100   4.950   6.951  0.3162  0.2625 -0.0957
   65SAPC   H6X 5366   1.088   4.841   6.933 -0.6887  0.5936 -1.6144
   65SAPC   H6Y 5367   1.001   4.998   6.965  0.1956  0.1012 -0.3854
   65SAPC   C37 5368   1.184   4.976   7.073  0.0622 -0.3737 -0.2822
   65SAPC   H7X 5369   1.198   5.085   7.093  1.6673 -0.8437  1.3796
   65SAPC   H7Y 5370   1.287   4.937   7.062  0.6936  0.9554  0.5862
   65SAPC   C38 5371   1.119   4.923   7.201  0.4546  0.4228  0.1424
   65SAPC   H8X 5372   1.126   4.812   7.197  0.1348  0.4010  0.1341
   65SAPC   H8Y 5373   1.013   4.955   7.207  0.3352 -0.1945  2.0119
   65SAPC   C39 5374   1.195   4.959   7.331 -0.2035  0.4887 -0.5844
   65SAPC   H9X 5375   1.181   5.069   7.339 -1.8100  0.4759 -2.3574
   65SAPC   H9Y 5376   1.304   4.939   7.332 -0.1430  0.5279  2.6667
   65SAPC  C310 5377   1.129   4.900   7.460  0.5670 -0.1825  0.0173
   65SAPC  H10X 5378   1.153   4.791   7.460 -0.2507 -0.3740  0.1459
   65SAPC  H10Y 5379   1.018   4.914   7.463  0.7716  2.7477 -1.8410
   65SAPC  C311 5380   1.184   4.957   7.587  0.1354 -0.2669  0.0556
   65SAPC  H11X 5381   1.198   5.066   7.570 -3.2209  0.2177 -0.1624
   65SAPC  H11Y 5382   1.283   4.914   7.614  0.2132 -1.0580 -1.4433
   65SAPC  C312 5383   1.092   4.945   7.708 -0.2452 -0.1628 -0.0598
   65SAPC  H12X 5384   0.992   4.987   7.682 -0.1434  0.5440  0.6624
   65SAPC  H12Y 5385   1.122   5.010   7.793  2.3326 -0.8682 -0.3650
   65SAPC  C313 5386   1.078   4.796   7.750 -0.7370  0.6701  0.4804
   65SAPC  H13X 5387   1.177   4.759   7.783 -0.5523  1.3382  0.6816
   65SAPC  H13Y 5388   1.043   4.729   7.668 -0.5842 -0.9556  1.6806
   65SAPC  C314 5389   0.979   4.776   7.867 -0.5180 -0.4892 -0.0676
   65SAPC  H14X 5390   0.982   4.666   7.880 -1.9769 -0.6904 -1.2188
   65SAPC  H14Y 5391   0.878   4.812   7.839  0.0545 -0.4533 -2.2345
   65SAPC  C315 5392   1.025   4.856   7.993 -0.2296  0.2865  0.0393
   65SAPC  H15X 5393   1.002   4.960   7.962  0.0958 -0.1516 -1.7949
   65SAPC  H15Y 5394   1.134   4.840   8.006 -0.1633 -3.7122 -3.3681
   65SAPC  C316 5395   0.939   4.817   8.120  0.5159  0.5116 -0.1366
   65SAPC  H16X 5396   0.963   4.712   8.149  1.0632  0.2808 -1.3236
   65SAPC  H16Y 5397   0.832   4.833   8.094  0.4859  0.0102 -0.3455
   65SAPC  C317 5398   0.984   4.907   8.246 -0.2198 -0.1553  0.4833
   65SAPC  H17X 5399   1.004   5.009   8.209 -2.1609 -0.0302 -0.3076
   65SAPC  H17Y 5400   1.080   4.871   8.290 -0.7520  0.7828  2.5231
   65SAPC  C318 5401   0.895   4.906   8.366 -0.6345  0.0556  0.0592
   65SAPC  H18X 5402   0.941   4.961   8.452  1.8125 -0.3799 -0.8939
   65SAPC  H18Y 5403   0.874   4.801   8.397  1.4547 -0.4721 -0.1215
   65SAPC  H18Z 5404   0.802   4.963   8.344 -0.6145  0.8459  1.8238
   66SAPC     N 5405   5.817   3.665   5.708 -0.0191 -0.5780  0.2090
   66SAPC   C12 5406   5.818   3.653   5.858 -0.0958  0.7052  0.5804
   66SAPC  H12A 5407   5.756   3.572   5.893  0.4619  0.0070 -0.0013
   66SAPC  H12B 5408   5.767   3.741   5.892  0.0030  0.4399  1.4540
   66SAPC   C13 5409   5.892   3.782   5.656  1.0979 -0.6237  0.5071
   66SAPC  H13A 5410   5.977   3.795   5.721 -1.2280  1.3823  3.4121
   66SAPC  H13B 5411   5.929   3.776   5.554  2.1407 -0.1491  0.8444
   66SAPC  H13C 5412   5.820   3.861   5.669  0.4414 -1.3031  1.0350
   66SAPC   C14 5413   5.869   3.544   5.642 -0.1391  0.3614  0.2403
   66SAPC  H14A 5414   5.789   3.472   5.651 -0.1864 -0.0662 -2.5732
   66SAPC  H14B 5415   5.877   3.566   5.536  2.1184 -0.9792  0.0839
   66SAPC  H14C 5416   5.960   3.505   5.683 -0.7148 -1.4097 -0.1018
   66SAPC   C15 5417   5.679   3.674   5.651 -0.2327  0.6834 -0.2875
   66SAPC  H15A 5418   5.615   3.591   5.676  2.1066 -1.2892 -0.5252
   66SAPC  H15B 5419   5.642   3.770   5.685  0.7263  0.9688 -0.0138
   66SAPC  H15C 5420   5.682   3.679   5.543 -0.7242  1.8940 -0.2636
   66SAPC   C11 5421   5.956   3.647   5.928 -1.1271  0.1146  0.6363
   66SAPC  H11A 5422   6.003   3.556   5.886 -4.2614 -2.1162  1.5924
   66SAPC  H11B 5423   5.947   3.619   6.035 -2.7428 -0.6575  0.3219
   66SAPC     P 5424   6.005   3.894   6.007 -0.0586 -0.6158  0.4429
   66SAPC   O13 5425   6.038   4.025   5.936  0.1139  0.1480 -0.0126
   66SAPC   O14 5426   5.867   3.879   6.071  0.0696  0.4340 -0.4987
   66SAPC   O12 5427   6.025   3.770   5.904  0.0933 -0.2520 -0.7047
   66SAPC   O11 5428   6.116   3.868   6.124 -0.4119  0.0719  0.3502
   66SAPC    C1 5429   6.245   3.810   6.092 -1.0938 -0.2265 -0.2553
   66SAPC    HA 5430   6.221   3.709   6.053 -2.2894 -0.3908  0.8134
   66SAPC    HB 5431   6.286   3.875   6.012 -3.1046  1.6890  0.1433
   66SAPC    C2 5432   6.342   3.812   6.216  0.4548  0.0069  0.1166
   66SAPC    HS 5433   6.435   3.763   6.182  0.6059 -0.4593  1.1690
   66SAPC   O21 5434   6.271   3.742   6.328 -0.0690  0.9898 -1.1126
   66SAPC   C21 5435   6.347   3.664   6.396  0.2853  0.6464 -0.1664
   66SAPC   O22 5436   6.466   3.641   6.380  0.4605 -0.3977 -0.0593
   66SAPC   C22 5437   6.256   3.604   6.499 -0.0600  0.5849 -0.3619
   66SAPC   H2R 5438   6.170   3.671   6.520 -0.3473  0.7577 -1.9521
   66SAPC   H2S 5439   6.215   3.510   6.457 -1.8630  1.8732 -1.6843
   66SAPC    C3 5440   6.371   3.962   6.257 -0.2917 -0.9800 -0.8814
   66SAPC    HX 5441   6.275   4.001   6.295 -0.7317 -3.0018  0.2427
   66SAPC    HY 5442   6.409   4.025   6.174  0.8550  0.8335  0.9124
   66SAPC   O31 5443   6.464   3.969   6.367 -0.2421 -0.1997  0.7545
   66SAPC   C31 5444   6.596   3.950   6.339 -0.2250 -0.1064  0.4418
   66SAPC   O32 5445   6.645   3.933   6.228  0.0073  0.0326  0.6089
   66SAPC   C32 5446   6.672   3.947   6.469 -0.2233  0.7502 -0.5262
   66SAPC   H2X 5447   6.654   4.043   6.522 -0.7164  1.1492 -1.3972
   66SAPC   H2Y 5448   6.779   3.930   6.444 -0.6513 -2.5834 -0.4797
   66SAPC   C23 5449   6.323   3.569   6.638  0.0863  0.3654  0.3721
   66SAPC   H3R 5450   6.342   3.666   6.689  0.5611  0.4632  0.0148
   66SAPC   H3S 5451   6.424   3.525   6.626  0.0265  0.3522 -0.1269
   66SAPC   C24 5452   6.241   3.478   6.730  0.9892  0.0012 -0.4901
   66SAPC   H4R 5453   6.306   3.428   6.805  2.3494 -1.0147 -2.2659
   66SAPC   H4S 5454   6.190   3.393   6.680 -1.4739 -1.4953  4.0113
   66SAPC   C25 5455   6.127   3.548   6.798  0.4102  1.0291  0.5650
   66SAPC   H5R 5456   6.041   3.573   6.734  1.5158  0.3846 -1.2787
   66SAPC   C26 5457   6.124   3.577   6.925  0.3606 -0.1905 -0.5467
   66SAPC   H6R 5458   6.043   3.638   6.968 -2.4351 -2.5979 -2.0671
   66SAPC   C27 5459   6.222   3.544   7.029  0.1262 -0.6386 -0.2121
   66SAPC   H7R 5460   6.273   3.447   7.008  0.6369 -0.0136 -1.9619
   66SAPC   H7S 5461   6.156   3.530   7.118 -0.4133 -0.1301 -0.5248
   66SAPC   C28 5462   6.314   3.657   7.060 -0.4977 -0.2638 -1.0137
   66SAPC   H8R 5463   6.360   3.704   6.972 -0.6225 -1.1945 -1.5835
   66SAPC   C29 5464   6.338   3.709   7.185 -0.0766  0.4188 -0.0527
   66SAPC   H9R 5465   6.415   3.787   7.189  2.2683 -1.6643 -1.5785
   66SAPC  C210 5466   6.285   3.666   7.313  0.5725  0.5085 -0.9641
   66SAPC  H10R 5467   6.369   3.634   7.378 -0.0060  2.6645  1.0219
   66SAPC  H10S 5468   6.222   3.575   7.309  1.1914 -0.0116  0.5092
   66SAPC  C211 5469   6.215   3.783   7.368  0.5837 -0.3794  0.0567
   66SAPC  H11R 5470   6.136   3.833   7.311 -1.3148 -0.5117  2.4183
   66SAPC  C212 5471   6.243   3.831   7.494  0.7228 -0.4496 -0.7969
   66SAPC  H12R 5472   6.180   3.911   7.535  1.0938 -1.3167  1.6287
   66SAPC  C213 5473   6.342   3.773   7.594 -0.5983 -0.4152  0.1698
   66SAPC  H13R 5474   6.377   3.857   7.657  0.0433 -0.2013 -0.4687
   66SAPC  H13S 5475   6.434   3.738   7.543  0.2883  0.3455  1.2133
   66SAPC  C214 5476   6.275   3.668   7.675  0.3400  0.2063 -0.5706
   66SAPC  H14R 5477   6.281   3.562   7.645 -0.6622 -0.6872  2.0505
   66SAPC  C215 5478   6.193   3.676   7.786  0.0745  0.2911  0.1269
   66SAPC  H15R 5479   6.151   3.581   7.823  2.3554 -0.9893 -0.3944
   66SAPC  C216 5480   6.151   3.796   7.867 -0.6108  0.0436  0.2213
   66SAPC  H16R 5481   6.055   3.838   7.830 -0.1420  3.0038  2.0076
   66SAPC  H16S 5482   6.236   3.867   7.878  1.7120 -2.9027  4.1133
   66SAPC  C217 5483   6.115   3.760   8.012  0.1315 -0.6975  0.1169
   66SAPC  H17R 5484   6.085   3.857   8.058  0.7126  0.7960 -2.4695
   66SAPC  H17S 5485   6.208   3.736   8.068  0.8851  3.7874  1.2328
   66SAPC  C218 5486   6.010   3.652   8.030 -0.0052 -0.5201 -0.1556
   66SAPC  H18R 5487   6.064   3.562   7.994  1.1460  0.3891 -0.7453
   66SAPC  H18S 5488   5.925   3.675   7.963  0.8217  1.8624 -0.4840
   66SAPC  C219 5489   5.966   3.623   8.175 -0.4262  0.3991 -0.0362
   66SAPC  H19R 5490   6.048   3.596   8.245 -0.9173 -1.9217 -0.2862
   66SAPC  H19S 5491   5.900   3.534   8.172 -0.8813  0.7450 -0.6739
   66SAPC  C220 5492   5.877   3.730   8.240 -0.1826 -0.0221 -0.0615
   66SAPC  H20R 5493   5.783   3.750   8.185 -0.6851 -0.4846  0.6158
   66SAPC  H20S 5494   5.930   3.825   8.264 -1.9881  0.9288  0.3490
   66SAPC  H20T 5495   5.847   3.686   8.338 -0.6260  1.0053  0.2767
   66SAPC   C33 5496   6.642   3.821   6.553 -0.4520 -0.1375 -0.3766
   66SAPC   H3X 5497   6.663   3.734   6.488 -0.2894 -0.4511  0.0940
   66SAPC   H3Y 5498   6.533   3.835   6.573 -0.9070 -0.8548 -2.1883
   66SAPC   C34 5499   6.710   3.822   6.689  0.2809 -0.1817  0.2519
   66SAPC   H4X 5500   6.820   3.837   6.680  0.3013 -0.8059 -0.6208
   66SAPC   H4Y 5501   6.684   3.724   6.734  1.9537  0.1054  1.9683
   66SAPC   C35 5502   6.671   3.931   6.784  0.3652 -0.5770  0.2224
   66SAPC   H5X 5503   6.567   3.918   6.823 -0.4495  0.8094 -1.3379
   66SAPC   H5Y 5504   6.686   4.031   6.738  0.1580 -0.6066  0.0874
   66SAPC   C36 5505   6.763   3.941   6.906 -0.7610  0.7181 -0.1855
   66SAPC   H6X 5506   6.721   4.016   6.976  0.6047  1.9694 -0.6578
   66SAPC   H6Y 5507   6.870   3.961   6.884 -0.6583 -1.0032 -1.4976
   66SAPC   C37 5508   6.781   3.814   7.006 -0.2889  0.1099  0.8750
   66SAPC   H7X 5509   6.824   3.735   6.941  0.8352  0.5645  1.0417
   66SAPC   H7Y 5510   6.681   3.778   7.040 -1.3613  2.1671  0.0903
   66SAPC   C38 5511   6.864   3.839   7.133  0.3117  0.0730  0.3194
   66SAPC   H8X 5512   6.947   3.906   7.102 -1.6154  2.3780 -0.1151
   66SAPC   H8Y 5513   6.897   3.742   7.178 -0.5444 -0.3770 -0.0058
   66SAPC   C39 5514   6.786   3.930   7.233 -0.1140 -0.3267  0.8882
   66SAPC   H9X 5515   6.690   3.887   7.269 -0.4840  2.3374  3.5226
   66SAPC   H9Y 5516   6.764   4.022   7.175 -0.2879 -1.8433 -1.5830
   66SAPC  C310 5517   6.870   3.982   7.360 -0.0576 -0.6661  0.5143
   66SAPC  H10X 5518   6.803   4.036   7.430 -0.6148 -0.7390  0.0504
   66SAPC  H10Y 5519   6.949   4.048   7.317 -1.3666  0.1574 -0.7034
   66SAPC  C311 5520   6.940   3.872   7.444  0.8003 -0.5990 -0.5373
   66SAPC  H11X 5521   7.020   3.821   7.388  1.9003 -0.3732  0.7718
   66SAPC  H11Y 5522   6.866   3.796   7.479 -2.8085  1.7634 -2.4016
   66SAPC  C312 5523   6.991   3.929   7.581  0.5607 -0.2619  0.8264
   66SAPC  H12X 5524   7.072   4.006   7.578  1.8794 -1.5845  1.2992
   66SAPC  H12Y 5525   7.048   3.841   7.618  1.2740 -0.2922 -0.2871
   66SAPC  C313 5526   6.878   3.946   7.680  0.4136 -0.2769 -0.6492
   66SAPC  H13X 5527   6.833   3.845   7.693 -0.7231 -0.1103 -2.8135
   66SAPC  H13Y 5528   6.794   4.010   7.647 -0.5813 -1.0962  0.2185
   66SAPC  C314 5529   6.920   4.006   7.820 -0.1754 -0.3237 -0.0513
   66SAPC  H14X 5530   6.840   3.995   7.896 -0.2809 -1.1286 -0.2729
   66SAPC  H14Y 5531   6.915   4.116   7.800  1.0371 -0.3759 -0.8106
   66SAPC  C315 5532   7.060   3.965   7.876 -0.2144  0.0141 -0.7181
   66SAPC  H15X 5533   7.138   3.994   7.802 -1.8150 -0.1745 -2.5645
   66SAPC  H15Y 5534   7.064   3.856   7.893  0.5781  0.0481 -0.6258
   66SAPC  C316 5535   7.085   4.042   8.011  0.1781  0.6533  0.5251
   66SAPC  H16X 5536   7.077   4.151   7.994 -0.3002  0.7184  1.1308
   66SAPC  H16Y 5537   7.194   4.023   8.024 -0.0658 -1.8151 -0.5006
   66SAPC  C317 5538   7.018   3.990   8.134 -0.8463  0.9108 -0.4475
   66SAPC  H17X 5539   7.022   3.880   8.146  1.8989  1.0004  0.3764
   66SAPC  H17Y 5540   6.912   4.019   8.126 -0.9167  0.1592 -4.4736
   66SAPC  C318 5541   7.077   4.049   8.266  0.1272  0.8325  0.5110
   66SAPC  H18X 5542   7.186   4.036   8.284  1.0360  1.0283 -3.7855
   66SAPC  H18Y 5543   7.032   4.004   8.357  1.7512 -1.2879  0.3601
   66SAPC  H18Z 5544   7.062   4.159   8.258 -0.4958  0.7274  0.2048
   67SAPC     N 5545   4.718   1.659   6.565 -0.1341 -0.4779 -0.2966
   67SAPC   C12 5546   4.719   1.511   6.530 -0.8845  0.3988  0.4485
   67SAPC  H12A 5547   4.812   1.464   6.557  1.0758  4.4015  1.2465
   67SAPC  H12B 5548   4.712   1.496   6.423  0.5990 -1.7926  0.6023
   67SAPC   C13 5549   4.687   1.697   6.709 -0.9423 -0.1336 -0.4057
   67SAPC  H13A 5550   4.696   1.803   6.724  0.6055 -0.3550  0.5079
   67SAPC  H13B 5551   4.588   1.661   6.735 -0.6683 -0.8752 -0.3631
   67SAPC  H13C 5552   4.764   1.648   6.767 -2.8874 -2.0428  0.7273
   67SAPC   C14 5553   4.850   1.718   6.532 -0.5026  0.1817 -0.2767
   67SAPC  H14A 5554   4.924   1.686   6.604 -2.0603 -2.3227  0.3043
   67SAPC  H14B 5555   4.879   1.696   6.431 -1.8271  0.3417 -0.7065
   67SAPC  H14C 5556   4.856   1.824   6.553  1.3121 -0.1247  1.0070
   67SAPC   C15 5557   4.622   1.723   6.473 -0.0182 -0.1807  0.3104
   67SAPC  H15A 5558   4.622   1.830   6.488  0.0379  0.0538 -1.2103
   67SAPC  H15B 5559   4.648   1.713   6.369 -0.4343  4.0390 -0.3803
   67SAPC  H15C 5560   4.523   1.681   6.480  0.5248 -1.7861 -1.0938
   67SAPC   C11 5561   4.613   1.417   6.582  0.2460 -0.2089  0.4446
   67SAPC  H11A 5562   4.510   1.455   6.561  0.5030 -0.4102 -1.3540
   67SAPC  H11B 5563   4.633   1.420   6.691  0.0278 -1.4928  0.5389
   67SAPC     P 5564   4.567   1.237   6.388 -0.1528  0.0399 -0.1707
   67SAPC   O13 5565   4.608   1.337   6.291 -0.4871 -0.3577  0.0736
   67SAPC   O14 5566   4.587   1.094   6.357 -0.1674  0.3596 -0.2785
   67SAPC   O12 5567   4.639   1.288   6.523 -0.3056  0.3805  0.1219
   67SAPC   O11 5568   4.413   1.267   6.413 -0.1360 -0.0834 -0.3668
   67SAPC    C1 5569   4.346   1.176   6.496  0.2110 -0.3505 -0.3103
   67SAPC    HA 5570   4.323   1.079   6.447 -1.1172  0.5470 -1.5742
   67SAPC    HB 5571   4.393   1.166   6.596  0.2592  3.1939  0.1548
   67SAPC    C2 5572   4.208   1.241   6.531 -0.0645  0.0614 -0.3666
   67SAPC    HS 5573   4.182   1.309   6.448 -2.4262 -0.8901 -0.4806
   67SAPC   O21 5574   4.231   1.313   6.650 -0.3000 -0.3622  0.1696
   67SAPC   C21 5575   4.150   1.415   6.688 -0.2358  0.2792 -0.4116
   67SAPC   O22 5576   4.056   1.451   6.623  0.7536  0.1041 -0.0467
   67SAPC   C22 5577   4.185   1.457   6.835  0.1914  0.8904  0.0938
   67SAPC   H2R 5578   4.155   1.368   6.895 -0.3719  1.6727  1.0103
   67SAPC   H2S 5579   4.292   1.474   6.859  0.3284 -0.1615  0.2897
   67SAPC    C3 5580   4.097   1.136   6.548  0.5112  0.1814 -0.8613
   67SAPC    HX 5581   4.089   1.082   6.451 -1.4847 -0.9160 -0.1288
   67SAPC    HY 5582   4.004   1.189   6.575  0.8633 -0.5092  2.0102
   67SAPC   O31 5583   4.140   1.042   6.650 -0.2665  0.6073  0.4348
   67SAPC   C31 5584   4.079   1.054   6.770 -0.8728  0.1213  0.5231
   67SAPC   O32 5585   3.993   1.138   6.798 -0.5001 -0.2817 -0.1917
   67SAPC   C32 5586   4.135   0.961   6.868 -0.0322 -0.0019 -0.4001
   67SAPC   H2X 5587   4.246   0.955   6.868  0.0169  0.5859  0.5136
   67SAPC   H2Y 5588   4.097   0.862   6.834  0.9241 -1.1444  1.6646
   67SAPC   C23 5589   4.109   1.580   6.880  0.5263 -0.3122  0.1907
   67SAPC   H3R 5590   4.122   1.661   6.806  2.6121  0.4107  1.2872
   67SAPC   H3S 5591   4.151   1.612   6.977  1.0725 -0.9717  0.1819
   67SAPC   C24 5592   3.970   1.545   6.922 -0.6223 -0.3160  0.1693
   67SAPC   H4R 5593   3.923   1.494   6.835  0.9877  0.1174 -1.0070
   67SAPC   H4S 5594   3.914   1.640   6.935 -1.3686 -0.8532  0.9782
   67SAPC   C25 5595   3.952   1.463   7.046 -0.1517  0.0663  0.6218
   67SAPC   H5R 5596   4.015   1.373   7.055  0.2141  0.3226  0.6110
   67SAPC   C26 5597   3.872   1.488   7.153 -0.2863  0.5700  0.4136
   67SAPC   H6R 5598   3.882   1.413   7.233  2.9819 -0.4808 -0.8087
   67SAPC   C27 5599   3.776   1.610   7.158 -0.2060 -0.3227  0.3028
   67SAPC   H7R 5600   3.813   1.692   7.093  0.0042 -0.8102 -0.2010
   67SAPC   H7S 5601   3.762   1.654   7.259  0.6608 -1.4264  0.9210
   67SAPC   C28 5602   3.640   1.562   7.119  0.3706 -0.2858  0.4366
   67SAPC   H8R 5603   3.640   1.518   7.019 -1.6857  0.5082  0.0502
   67SAPC   C29 5604   3.524   1.568   7.188  0.7161  0.2024 -0.3602
   67SAPC   H9R 5605   3.433   1.534   7.137 -0.1452  0.4370  0.9542
   67SAPC  C210 5606   3.509   1.641   7.321 -0.2852 -0.3126  0.0490
   67SAPC  H10R 5607   3.520   1.751   7.311 -3.8280  0.3998  2.1340
   67SAPC  H10S 5608   3.586   1.603   7.392 -0.0916  1.7850  1.0457
   67SAPC  C211 5609   3.376   1.627   7.396  0.7969  0.4555 -0.1807
   67SAPC  H11R 5610   3.280   1.651   7.347 -0.9568 -0.5933  2.4688
   67SAPC  C212 5611   3.358   1.584   7.523  1.2848 -0.2994  0.1668
   67SAPC  H12R 5612   3.250   1.585   7.546  1.4241 -1.2002  0.8916
   67SAPC  C213 5613   3.462   1.530   7.622  0.2659 -0.2754  0.4195
   67SAPC  H13R 5614   3.523   1.462   7.559 -0.7545 -0.5055 -0.3360
   67SAPC  H13S 5615   3.421   1.468   7.704  0.6917 -1.5333 -0.2947
   67SAPC  C214 5616   3.564   1.631   7.678  0.3746 -0.4440  0.7918
   67SAPC  H14R 5617   3.517   1.726   7.707  0.8483 -0.2300  0.8658
   67SAPC  C215 5618   3.696   1.613   7.703 -0.2055  0.0762  0.2164
   67SAPC  H15R 5619   3.748   1.697   7.751 -1.8487  1.2446  0.0101
   67SAPC  C216 5620   3.779   1.491   7.686  0.1386 -0.3541  0.9224
   67SAPC  H16R 5621   3.817   1.491   7.581 -0.3442  0.1559  0.7438
   67SAPC  H16S 5622   3.723   1.396   7.700 -0.2997 -0.1079  0.8401
   67SAPC  C217 5623   3.909   1.487   7.762 -0.6444  0.4058 -0.9724
   67SAPC  H17R 5624   3.973   1.573   7.735  0.5456  0.3446  1.4006
   67SAPC  H17S 5625   3.956   1.390   7.737  1.1937  0.9273  0.2622
   67SAPC  C218 5626   3.890   1.487   7.916  0.4067  0.3751 -0.0110
   67SAPC  H18R 5627   3.855   1.384   7.940  1.7081 -0.0385  0.1484
   67SAPC  H18S 5628   3.810   1.562   7.936  1.9939  1.8593  1.0516
   67SAPC  C219 5629   4.019   1.526   7.982 -0.3805 -0.1585 -1.3810
   67SAPC  H19R 5630   4.071   1.613   7.936 -1.3090  0.3538 -1.4751
   67SAPC  H19S 5631   4.090   1.441   7.969 -0.1390  0.2213 -2.6390
   67SAPC  C220 5632   4.001   1.579   8.127 -0.0708  0.1315  0.0873
   67SAPC  H20R 5633   3.945   1.499   8.182  0.0548  0.3984  0.6134
   67SAPC  H20S 5634   3.933   1.665   8.141 -0.7963 -0.4282  0.0759
   67SAPC  H20T 5635   4.099   1.591   8.179  0.3679  1.1780 -0.9422
   67SAPC   C33 5636   4.084   0.978   7.008  0.3413 -0.3620  0.4142
   67SAPC   H3X 5637   3.974   0.980   6.994  0.1063  1.0601  2.0983
   67SAPC   H3Y 5638   4.121   1.078   7.038  0.9838 -0.6202  0.5056
   67SAPC   C34 5639   4.123   0.880   7.113 -0.2273  0.7924 -0.3293
   67SAPC   H4X 5640   4.221   0.913   7.155  0.1361 -1.3609  0.6268
   67SAPC   H4Y 5641   4.147   0.782   7.067  0.3380  0.1798  1.1958
   67SAPC   C35 5642   4.023   0.866   7.230  0.3341  0.3158  0.4003
   67SAPC   H5X 5643   3.927   0.819   7.200  0.7361 -0.3739  0.1592
   67SAPC   H5Y 5644   4.015   0.968   7.274  1.1082  1.2512 -1.5002
   67SAPC   C36 5645   4.066   0.769   7.347  0.6269 -0.4941  0.4793
   67SAPC   H6X 5646   4.176   0.780   7.361  0.5247  2.4956 -0.2355
   67SAPC   H6Y 5647   4.035   0.665   7.327 -3.4308  0.1958  2.2250
   67SAPC   C37 5648   3.998   0.803   7.478 -0.2833  0.5442  0.0254
   67SAPC   H7X 5649   3.890   0.781   7.460 -0.2616 -0.5798  1.1425
   67SAPC   H7Y 5650   4.011   0.912   7.499 -0.3543  0.1576  2.3911
   67SAPC   C38 5651   4.059   0.742   7.601  0.1278  0.1915  1.0688
   67SAPC   H8X 5652   4.167   0.771   7.602 -0.0097  0.7123  0.9385
   67SAPC   H8Y 5653   4.060   0.633   7.580 -3.3811  0.1717  0.5557
   67SAPC   C39 5654   3.980   0.761   7.733  0.5916  0.4238  0.2444
   67SAPC   H9X 5655   3.872   0.772   7.707  0.8279 -0.9920 -1.5007
   67SAPC   H9Y 5656   4.002   0.860   7.779 -0.4557  0.0195  1.6806
   67SAPC  C310 5657   4.005   0.644   7.824  0.1104  0.5106  0.4513
   67SAPC  H10X 5658   3.971   0.545   7.786 -0.3661  0.4986  0.9015
   67SAPC  H10Y 5659   3.944   0.666   7.914 -0.1871 -0.4504  0.4933
   67SAPC  C311 5660   4.154   0.629   7.860 -0.8341 -0.3572  0.7182
   67SAPC  H11X 5661   4.195   0.730   7.881 -1.8505 -0.3090  2.7062
   67SAPC  H11Y 5662   4.216   0.597   7.774  1.3806  1.8054  1.4033
   67SAPC  C312 5663   4.178   0.541   7.985  0.1134 -0.1983  0.1594
   67SAPC  H12X 5664   4.128   0.598   8.067 -1.0932  0.5621 -1.0671
   67SAPC  H12Y 5665   4.288   0.543   8.003 -0.1771 -1.7775  2.5858
   67SAPC  C313 5666   4.135   0.392   7.977  0.0491  0.4793  0.5215
   67SAPC  H13X 5667   4.176   0.357   7.880 -2.9342  0.5166 -0.8468
   67SAPC  H13Y 5668   4.025   0.386   7.966 -0.0095  1.2427  0.6746
   67SAPC  C314 5669   4.188   0.311   8.089  0.1753  0.2299  0.0831
   67SAPC  H14X 5670   4.140   0.349   8.182  1.1099 -3.0565  2.0701
   67SAPC  H14Y 5671   4.296   0.333   8.094  0.1718  0.8282 -1.6831
   67SAPC  C315 5672   4.165   0.156   8.084 -0.1595 -0.7898  0.0736
   67SAPC  H15X 5673   4.215   0.120   7.992 -0.9559  2.9273 -2.0103
   67SAPC  H15Y 5674   4.057   0.133   8.071 -0.4905  0.4005  0.5386
   67SAPC  C316 5675   4.233   0.087   8.206  0.1675  0.3416 -0.4959
   67SAPC  H16X 5676   4.340   0.117   8.215 -0.0210  0.8074  0.3492
   67SAPC  H16Y 5677   4.218  -0.023   8.196  1.5915 -0.0945  1.4710
   67SAPC  C317 5678   4.163   0.127   8.342 -0.8964  0.4991  0.4554
   67SAPC  H17X 5679   4.059   0.161   8.326 -0.1750  2.3381 -0.7776
   67SAPC  H17Y 5680   4.207   0.223   8.376  1.2707 -0.8199  1.6108
   67SAPC  C318 5681   4.185   0.025   8.449 -0.0383 -0.0883 -0.2408
   67SAPC  H18X 5682   4.283  -0.027   8.461  0.2035  0.4740  0.2950
   67SAPC  H18Y 5683   4.116  -0.061   8.432 -0.4785  0.0356  0.8312
   67SAPC  H18Z 5684   4.165   0.070   8.548 -0.1721 -1.3417  0.3234
   68SAPC     N 5685   1.947   6.767   5.925 -0.5175 -0.7439 -0.2978
   68SAPC   C12 5686   1.948   6.776   6.081  0.9911 -0.0996 -0.3688
   68SAPC  H12A 5687   2.015   6.697   6.109  2.6302  0.4911 -2.4078
   68SAPC  H12B 5688   1.849   6.750   6.116  1.6945  0.0415  1.8881
   68SAPC   C13 5689   1.914   6.633   5.878 -0.1782 -0.4142  0.1045
   68SAPC  H13A 5690   1.918   6.629   5.770 -1.2973  1.3564 -0.0344
   68SAPC  H13B 5691   1.977   6.552   5.914 -1.8334 -0.9787  1.9211
   68SAPC  H13C 5692   1.813   6.611   5.907 -1.1633 -0.0815 -2.7474
   68SAPC   C14 5693   1.844   6.853   5.864  0.9729  0.5091 -0.0723
   68SAPC  H14A 5694   1.750   6.822   5.907  0.6882  0.5069 -0.6834
   68SAPC  H14B 5695   1.847   6.961   5.873  0.9632  0.6602 -1.5980
   68SAPC  H14C 5696   1.837   6.841   5.757  1.5487 -3.0176  0.1676
   68SAPC   C15 5697   2.081   6.813   5.884 -0.0824 -0.1871  0.1339
   68SAPC  H15A 5698   2.086   6.912   5.926 -0.1785  0.2853 -0.9153
   68SAPC  H15B 5699   2.146   6.744   5.936 -1.5632 -0.0387  2.2606
   68SAPC  H15C 5700   2.103   6.818   5.778  1.1905  0.3323  0.4048
   68SAPC   C11 5701   1.995   6.911   6.152  0.1913  0.2751 -0.0584
   68SAPC  H11A 5702   2.101   6.943   6.142  0.2050  0.6702  1.2472
   68SAPC  H11B 5703   1.978   6.892   6.260 -0.1689  2.5181  0.3276
   68SAPC     P 5704   1.771   7.053   6.169  0.0343 -0.3135 -0.0336
   68SAPC   O13 5705   1.784   7.199   6.197  0.0117 -0.1849  0.1640
   68SAPC   O14 5706   1.664   7.003   6.079 -0.0205 -0.1248  0.1246
   68SAPC   O12 5707   1.916   7.018   6.107  0.6717  0.3678 -0.2483
   68SAPC   O11 5708   1.779   6.974   6.311 -0.3587  0.3973 -0.4601
   68SAPC    C1 5709   1.658   6.922   6.376 -0.5399  0.1940 -0.3191
   68SAPC    HA 5710   1.601   6.857   6.307 -0.0641  0.5763 -1.0819
   68SAPC    HB 5711   1.691   6.855   6.458 -0.8715 -0.5637 -0.7895
   68SAPC    C2 5712   1.565   7.030   6.437  0.3211  0.0468 -0.4825
   68SAPC    HS 5713   1.560   7.109   6.360  0.0975  2.4948  1.8962
   68SAPC   O21 5714   1.630   7.073   6.561 -0.3111  0.0518  0.0570
   68SAPC   C21 5715   1.628   7.199   6.593  0.4194 -0.3114 -0.5196
   68SAPC   O22 5716   1.565   7.282   6.521 -0.3941 -0.0360 -0.2120
   68SAPC   C22 5717   1.724   7.231   6.710  0.9631  0.0928  0.5932
   68SAPC   H2R 5718   1.814   7.170   6.687  0.9677 -0.4223  1.9037
   68SAPC   H2S 5719   1.751   7.339   6.706  1.0496  0.0605  0.2503
   68SAPC    C3 5720   1.422   6.974   6.465 -0.4635  0.2341  0.5526
   68SAPC    HX 5721   1.425   6.873   6.511  1.8299  0.6317  1.3769
   68SAPC    HY 5722   1.385   6.964   6.360  0.6048 -2.0849  0.3296
   68SAPC   O31 5723   1.356   7.073   6.548  0.2988 -0.0788 -0.1327
   68SAPC   C31 5724   1.263   7.134   6.484  0.8425 -0.1062 -0.7825
   68SAPC   O32 5725   1.220   7.123   6.369  0.2862 -0.2466 -0.3695
   68SAPC   C32 5726   1.204   7.238   6.583  0.8752  0.6987  0.4341
   68SAPC   H2X 5727   1.137   7.303   6.523 -0.4105 -0.0804  0.9907
   68SAPC   H2Y 5728   1.289   7.297   6.623 -0.0571  3.0881 -0.9484
   68SAPC   C23 5729   1.654   7.199   6.830 -0.2930  0.4225 -0.7922
   68SAPC   H3R 5730   1.732   7.203   6.909  0.5559 -1.0616 -1.5038
   68SAPC   H3S 5731   1.619   7.094   6.821  1.4235 -0.3758  1.1533
   68SAPC   C24 5732   1.533   7.296   6.860  0.3487 -0.0500 -0.1364
   68SAPC   H4R 5733   1.449   7.275   6.790  1.2250  1.9143 -1.8424
   68SAPC   H4S 5734   1.562   7.400   6.836 -0.5464 -0.1916 -1.9706
   68SAPC   C25 5735   1.480   7.272   6.997  0.4974  0.5369  0.7704
   68SAPC   H5R 5736   1.426   7.177   7.003  1.1856 -0.0265 -1.2570
   68SAPC   C26 5737   1.474   7.361   7.098 -1.4043  0.0020 -0.0761
   68SAPC   H6R 5738   1.416   7.329   7.186 -0.6554  0.5287  0.6196
   68SAPC   C27 5739   1.539   7.494   7.088 -0.0696  0.9266  0.1673
   68SAPC   H7R 5740   1.459   7.556   7.043 -1.2660 -1.1916 -0.8085
   68SAPC   H7S 5741   1.623   7.494   7.015  0.2192  0.0597  0.4884
   68SAPC   C28 5742   1.597   7.551   7.212 -0.3906  0.0112 -0.2923
   68SAPC   H8R 5743   1.705   7.570   7.204 -0.8976  3.2274 -0.7008
   68SAPC   C29 5744   1.528   7.601   7.315 -0.1593  0.2004 -1.1445
   68SAPC   H9R 5745   1.582   7.629   7.407 -1.0847 -0.4969 -0.3620
   68SAPC  C210 5746   1.381   7.600   7.340 -0.0839 -0.6417 -0.0064
   68SAPC  H10R 5747   1.367   7.563   7.444  1.0885 -1.3213 -0.0791
   68SAPC  H10S 5748   1.315   7.536   7.277 -0.4010 -0.5176  0.1978
   68SAPC  C211 5749   1.323   7.734   7.314  0.1615  0.7625  0.1004
   68SAPC  H11R 5750   1.354   7.782   7.220  1.8211  0.9140  0.6780
   68SAPC  C212 5751   1.243   7.809   7.390 -0.3512  0.3335 -0.7562
   68SAPC  H12R 5752   1.197   7.898   7.344 -0.2034  0.4061 -0.7643
   68SAPC  C213 5753   1.195   7.782   7.526 -0.0099 -0.0083 -0.3457
   68SAPC  H13R 5754   1.217   7.871   7.589  3.1462 -0.6774 -0.3254
   68SAPC  H13S 5755   1.264   7.716   7.581 -2.3782 -2.3101  0.0350
   68SAPC  C214 5756   1.050   7.735   7.541  0.3399 -0.6631 -0.5233
   68SAPC  H14R 5757   0.997   7.706   7.449 -0.7564 -0.1742 -0.0650
   68SAPC  C215 5758   0.988   7.725   7.661  1.1125  0.4334 -0.2674
   68SAPC  H15R 5759   0.891   7.672   7.658  0.5037  1.5167 -3.6551
   68SAPC  C216 5760   1.059   7.750   7.793 -0.4381 -0.2322 -0.7111
   68SAPC  H16R 5761   1.006   7.829   7.851 -1.2903  0.4718 -2.3875
   68SAPC  H16S 5762   1.168   7.767   7.779 -0.2436  1.3215  2.0088
   68SAPC  C217 5763   1.062   7.616   7.882  0.1203 -0.3203  0.0644
   68SAPC  H17R 5764   0.956   7.582   7.886 -0.6961  1.7537 -1.6877
   68SAPC  H17S 5765   1.101   7.655   7.978  0.7723  0.2295 -0.4207
   68SAPC  C218 5766   1.156   7.498   7.838  0.5083 -0.4337  0.5707
   68SAPC  H18R 5767   1.148   7.504   7.727  0.5437  0.9001  0.6246
   68SAPC  H18S 5768   1.109   7.404   7.874 -0.7278  0.6192  1.7822
   68SAPC  C219 5769   1.307   7.499   7.867  0.1566 -0.2824 -0.3980
   68SAPC  H19R 5770   1.338   7.392   7.861 -3.3820 -1.3620 -2.8406
   68SAPC  H19S 5771   1.320   7.529   7.973 -2.4259  1.0985 -0.3956
   68SAPC  C220 5772   1.380   7.592   7.779  0.0002  0.6971 -0.9791
   68SAPC  H20R 5773   1.379   7.547   7.678 -2.4915 -0.7354 -0.3833
   68SAPC  H20S 5774   1.487   7.592   7.809  0.2155 -0.1645 -1.7131
   68SAPC  H20T 5775   1.340   7.695   7.788 -1.1200  0.2722 -0.9629
   68SAPC   C33 5776   1.115   7.173   6.691  0.8937 -0.6459 -0.6240
   68SAPC   H3X 5777   1.048   7.103   6.636  1.2104 -0.7953 -0.8190
   68SAPC   H3Y 5778   1.049   7.254   6.729  0.8392 -2.0722  2.7506
   68SAPC   C34 5779   1.191   7.108   6.806  0.0639  0.2280 -0.8004
   68SAPC   H4X 5780   1.252   7.187   6.856  0.3159 -0.9585  0.8689
   68SAPC   H4Y 5781   1.273   7.045   6.764  0.6270 -0.1850  0.8380
   68SAPC   C35 5782   1.116   7.014   6.903  0.2022 -0.0243  0.5486
   68SAPC   H5X 5783   1.185   6.949   6.960  0.1501  0.4833  1.2066
   68SAPC   H5Y 5784   1.051   6.939   6.853 -0.5201  1.2897 -0.5489
   68SAPC   C36 5785   1.022   7.099   6.996  0.2452 -0.0715 -0.5944
   68SAPC   H6X 5786   0.965   7.172   6.933 -0.2079 -2.0353 -2.5902
   68SAPC   H6Y 5787   1.092   7.142   7.071  1.1507 -1.8602 -0.3685
   68SAPC   C37 5788   0.913   7.017   7.066 -0.5854 -0.1404  0.3969
   68SAPC   H7X 5789   0.847   6.964   6.994  0.9273 -2.9362  0.8924
   68SAPC   H7Y 5790   0.857   7.093   7.125 -1.1621  0.6029 -1.0530
   68SAPC   C38 5791   0.973   6.908   7.165  0.1172 -0.0844  0.4431
   68SAPC   H8X 5792   1.070   6.950   7.200  1.2099 -0.8724 -1.4610
   68SAPC   H8Y 5793   1.007   6.815   7.114 -0.5549 -1.5550  2.5733
   68SAPC   C39 5794   0.884   6.875   7.279 -0.3804  0.2790 -0.1164
   68SAPC   H9X 5795   0.793   6.823   7.242  0.2299  0.0707 -1.4207
   68SAPC   H9Y 5796   0.853   6.975   7.316 -2.6404 -0.3203 -0.2661
   68SAPC  C310 5797   0.958   6.793   7.389 -0.1499  0.7251 -0.0148
   68SAPC  H10X 5798   1.056   6.842   7.405 -0.1265  0.9196 -0.7033
   68SAPC  H10Y 5799   0.977   6.689   7.355 -0.4214  0.3206  1.0557
   68SAPC  C311 5800   0.869   6.771   7.509 -0.3205  0.4153  0.2658
   68SAPC  H11X 5801   0.768   6.735   7.481  0.8483 -3.1339  0.0776
   68SAPC  H11Y 5802   0.849   6.867   7.560 -0.8041  0.4920 -0.0599
   68SAPC  C312 5803   0.934   6.678   7.603 -0.5349  0.6674  0.1898
   68SAPC  H12X 5804   1.041   6.703   7.619 -0.5802  1.2793 -0.4609
   68SAPC  H12Y 5805   0.937   6.576   7.559  1.1756  1.1951 -1.0121
   68SAPC  C313 5806   0.869   6.674   7.748  0.3224  0.2636  0.0684
   68SAPC  H13X 5807   0.773   6.622   7.729 -0.1251  1.7809 -2.0939
   68SAPC  H13Y 5808   0.859   6.775   7.792  0.3883 -0.1762  1.1228
   68SAPC  C314 5809   0.954   6.591   7.854  0.3888 -0.5181 -0.4420
   68SAPC  H14X 5810   0.973   6.491   7.809 -3.1920 -2.0903  1.2019
   68SAPC  H14Y 5811   0.896   6.577   7.947  1.4843 -1.1569  0.1653
   68SAPC  C315 5812   1.079   6.658   7.905 -0.3481 -0.5630  0.2765
   68SAPC  H15X 5813   1.036   6.738   7.970  1.5236  0.8336 -0.1269
   68SAPC  H15Y 5814   1.134   6.711   7.824 -1.3286 -2.6514 -1.8612
   68SAPC  C316 5815   1.176   6.578   7.998  0.0449 -0.0909 -0.5633
   68SAPC  H16X 5816   1.270   6.634   8.014  0.3104 -0.7788  0.4733
   68SAPC  H16Y 5817   1.203   6.486   7.941 -0.9171  0.8619 -2.6357
   68SAPC  C317 5818   1.114   6.536   8.138 -0.3575  0.4383 -0.1487
   68SAPC  H17X 5819   1.026   6.598   8.164  0.6791  0.9580  2.3576
   68SAPC  H17Y 5820   1.188   6.553   8.219  0.8594 -4.1780 -0.0003
   68SAPC  C318 5821   1.061   6.393   8.146 -0.1891  0.5365 -0.3334
   68SAPC  H18X 5822   1.141   6.322   8.117 -0.8720 -0.9909  1.3504
   68SAPC  H18Y 5823   0.971   6.371   8.084 -1.3415 -1.8817  2.0170
   68SAPC  H18Z 5824   1.032   6.383   8.253  0.9035  1.7290  0.0998
   69SLPC     N 5825   3.173   5.447  11.136 -0.3415  0.4913 -0.5754
   69SLPC   C13 5826   3.179   5.515  11.010 -0.9309  0.0009  0.0490
   69SLPC  H13A 5827   3.165   5.621  11.024 -3.4341 -0.0802 -1.3052
   69SLPC  H13B 5828   3.281   5.511  10.975 -0.2758  2.4105  1.4413
   69SLPC  H13C 5829   3.103   5.473  10.946 -0.3179 -2.0921  0.6027
   69SLPC   C14 5830   3.153   5.297  11.124  0.1363  0.1877  0.3809
   69SLPC  H14A 5831   3.249   5.250  11.107  0.1678  0.3191  0.2016
   69SLPC  H14B 5832   3.125   5.253  11.218 -0.3181 -0.9726 -0.2754
   69SLPC  H14C 5833   3.076   5.269  11.054 -0.1912  0.8017  0.4965
   69SLPC   C15 5834   3.060   5.500  11.216  0.0893 -0.4167 -0.9937
   69SLPC  H15A 5835   2.973   5.482  11.153 -0.0970  0.3207 -0.9468
   69SLPC  H15B 5836   3.047   5.459  11.315 -0.8357  3.2607  0.5584
   69SLPC  H15C 5837   3.059   5.608  11.218  5.1784 -0.1273 -0.8829
   69SLPC   C12 5838   3.302   5.490  11.215 -0.3103 -0.7617 -0.7850
   69SLPC  H12A 5839   3.310   5.431  11.304  0.2957  1.1120  0.4722
   69SLPC  H12B 5840   3.297   5.594  11.244  1.1898 -1.3987  2.1031
   69SLPC   C11 5841   3.442   5.480  11.143 -0.0375  0.2446  0.1608
   69SLPC  H11A 5842   3.517   5.515  11.217 -2.4010 -1.0432  3.3951
   69SLPC  H11B 5843   3.461   5.540  11.052  0.7475  0.6756  0.6009
   69SLPC     P 5844   3.567   5.290  11.017  0.1208  0.1586 -0.0513
   69SLPC   O13 5845   3.701   5.341  11.037 -0.6345 -0.0292 -0.5709
   69SLPC   O14 5846   3.555   5.144  11.022  0.2034  0.3925  0.2351
   69SLPC   O12 5847   3.467   5.343  11.122 -0.2425 -0.1097 -0.1952
   69SLPC   O11 5848   3.507   5.350  10.890 -0.3023 -0.2310  0.4956
   69SLPC    C1 5849   3.395   5.310  10.820 -0.1681  0.1616  0.2408
   69SLPC    HA 5850   3.305   5.275  10.875  0.3946 -2.9803 -0.6633
   69SLPC    HB 5851   3.370   5.403  10.763  1.1350 -0.3063 -1.1665
   69SLPC    C2 5852   3.422   5.206  10.716 -0.2309 -0.1099 -0.9708
   69SLPC    HS 5853   3.439   5.108  10.766 -2.0256  0.3951  0.7184
   69SLPC   O21 5854   3.539   5.257  10.643 -0.0120  0.4539  0.4358
   69SLPC   C21 5855   3.584   5.164  10.561 -0.1763  0.9596  0.2279
   69SLPC   O22 5856   3.557   5.044  10.568  0.0253  0.4464  0.1719
   69SLPC   C22 5857   3.689   5.222  10.468 -0.3716  0.2205 -0.2605
   69SLPC   H2R 5858   3.682   5.332  10.472 -0.0053  0.5577 -4.3146
   69SLPC   H2S 5859   3.794   5.194  10.491 -0.9302 -1.4107  0.4861
   69SLPC    C3 5860   3.302   5.196  10.623 -0.1919  0.4952  0.0292
   69SLPC    HX 5861   3.217   5.144  10.674  0.2310 -0.3364 -0.0986
   69SLPC    HY 5862   3.336   5.124  10.546 -3.3142 -0.3643 -0.7129
   69SLPC   O31 5863   3.252   5.325  10.566 -0.8333  0.0841  0.1736
   69SLPC   C31 5864   3.290   5.347  10.444 -0.3384  0.5203 -0.0020
   69SLPC   O32 5865   3.354   5.271  10.374 -0.1967 -0.1545  0.0864
   69SLPC   C32 5866   3.233   5.477  10.403 -0.4292 -0.0368 -0.0535
   69SLPC   H2X 5867   3.215   5.530  10.498  0.4953 -0.7957  0.5679
   69SLPC   H2Y 5868   3.139   5.456  10.349 -1.1169  0.6612  0.8540
   69SLPC   C23 5869   3.666   5.178  10.318  0.0992  0.3342  1.2694
   69SLPC   H3R 5870   3.570   5.225  10.287 -0.5781 -1.4636  0.5343
   69SLPC   H3S 5871   3.655   5.069  10.303  2.6226  0.1008  0.6593
   69SLPC   C24 5872   3.763   5.229  10.204  0.1175 -0.1868 -0.1249
   69SLPC   H4R 5873   3.861   5.177  10.197  1.0092  1.4646 -0.3740
   69SLPC   H4S 5874   3.778   5.334  10.236 -1.6887  1.3062 -3.6508
   69SLPC   C25 5875   3.695   5.234  10.067 -0.0161  0.0481  0.1067
   69SLPC   H5R 5876   3.625   5.319  10.075  3.0695  2.7171  1.1228
   69SLPC   H5S 5877   3.640   5.143  10.035  0.3296  0.4173 -1.6250
   69SLPC   C26 5878   3.782   5.270   9.951 -0.5033 -0.3432 -0.0425
   69SLPC   H6R 5879   3.868   5.200   9.948 -0.8043 -0.8604  1.8858
   69SLPC   H6S 5880   3.817   5.374   9.971  0.7353 -0.9226  0.9376
   69SLPC   C27 5881   3.707   5.266   9.819  0.4891 -0.3608  0.3781
   69SLPC   H7R 5882   3.625   5.341   9.825 -0.8651 -1.8223  0.9110
   69SLPC   H7S 5883   3.660   5.166   9.807  1.7597 -1.0985  1.3256
   69SLPC   C28 5884   3.794   5.273   9.697  0.6169 -0.7933  0.1517
   69SLPC   H8R 5885   3.855   5.181   9.685  1.5748 -0.0017 -1.2027
   69SLPC   H8S 5886   3.869   5.354   9.713  2.7209 -1.8453 -3.3612
   69SLPC   C29 5887   3.711   5.301   9.573 -0.2674 -0.2767  0.1221
   69SLPC   H9R 5888   3.626   5.368   9.592 -0.8311 -0.8505 -0.3474
   69SLPC  C210 5889   3.720   5.240   9.454  0.5421  0.2752  0.4340
   69SLPC  H10R 5890   3.645   5.264   9.378 -0.5710  0.1515  1.4595
   69SLPC  C211 5891   3.823   5.134   9.417 -0.1113 -0.3202  0.2823
   69SLPC  H11R 5892   3.837   5.059   9.497  0.0742 -0.2629  0.3029
   69SLPC  H11S 5893   3.919   5.190   9.411  0.8282 -1.9282 -0.5159
   69SLPC  C212 5894   3.802   5.059   9.287  0.7004 -0.4210 -0.5103
   69SLPC  H12R 5895   3.741   4.968   9.294 -0.2889  0.2863  0.1599
   69SLPC  C213 5896   3.851   5.088   9.166 -0.0269 -0.3036 -0.2994
   69SLPC  H13R 5897   3.823   5.034   9.074 -1.5246 -1.1785  0.6182
   69SLPC  C214 5898   3.937   5.214   9.140  0.0741  0.5541 -0.4253
   69SLPC  H14R 5899   4.015   5.200   9.062 -2.0504 -3.9598 -2.0319
   69SLPC  H14S 5900   3.991   5.233   9.235 -1.9160  1.0679  0.6572
   69SLPC  C215 5901   3.875   5.353   9.119  0.2852 -0.3667  0.6281
   69SLPC  H15R 5902   3.955   5.429   9.136 -0.5406  1.2392 -2.1209
   69SLPC  H15S 5903   3.797   5.374   9.195 -1.0681 -0.6042 -0.6608
   69SLPC  C216 5904   3.817   5.369   8.981 -0.2344 -0.2415 -0.4458
   69SLPC  H16R 5905   3.763   5.466   8.970 -1.7957 -1.0859 -0.4298
   69SLPC  H16S 5906   3.746   5.286   8.960 -0.9311 -0.1986  1.5254
   69SLPC  C217 5907   3.913   5.367   8.862  0.5139  0.4768 -0.6375
   69SLPC  H17R 5908   3.951   5.264   8.849 -2.3190 -0.4969 -1.9326
   69SLPC  H17S 5909   3.996   5.437   8.887  1.3710 -0.4902 -0.7192
   69SLPC  C218 5910   3.846   5.407   8.725  0.2813  0.0923 -0.1437
   69SLPC  H18R 5911   3.737   5.389   8.730 -0.1064  2.2598  0.2456
   69SLPC  H18S 5912   3.893   5.353   8.640  1.3255 -1.9651  1.6367
   69SLPC  H18T 5913   3.859   5.517   8.725  1.2878  0.0013  0.9983
   69SLPC   C33 5914   3.328   5.561  10.310  0.5168 -0.5292  0.0087
   69SLPC   H3X 5915   3.437   5.541  10.311  0.5781 -0.7274 -2.8125
   69SLPC   H3Y 5916   3.313   5.670  10.331 -1.4312 -0.9288  0.9085
   69SLPC   C34 5917   3.283   5.532  10.169  0.8863  0.2805  0.2660
   69SLPC   H4X 5918   3.178   5.566  10.163 -0.1613 -2.5746  1.0095
   69SLPC   H4Y 5919   3.272   5.422  10.164 -0.9456  0.4946 -1.6802
   69SLPC   C35 5920   3.385   5.581  10.069 -0.0274  0.5519 -0.4404
   69SLPC   H5X 5921   3.474   5.516  10.085  0.0741  0.2004 -2.2171
   69SLPC   H5Y 5922   3.413   5.688  10.080 -0.6276  0.9338 -2.2700
   69SLPC   C36 5923   3.337   5.539   9.931  0.0626 -0.5632  0.7834
   69SLPC   H6X 5924   3.242   5.593   9.911 -0.4248 -1.4457  0.6947
   69SLPC   H6Y 5925   3.309   5.432   9.938 -0.8310 -0.3986 -0.0109
   69SLPC   C37 5926   3.426   5.570   9.815  0.5190  0.1301 -0.1902
   69SLPC   H7X 5927   3.511   5.499   9.821 -1.9041 -2.8199  2.2088
   69SLPC   H7Y 5928   3.466   5.673   9.826 -0.2991  0.4827 -0.3822
   69SLPC   C38 5929   3.362   5.553   9.672  0.5049 -0.4287  0.2808
   69SLPC   H8X 5930   3.264   5.607   9.672  1.5795  1.6799 -1.3942
   69SLPC   H8Y 5931   3.337   5.446   9.657 -0.1132 -0.3919  0.9479
   69SLPC   C39 5932   3.449   5.606   9.562 -0.2638 -0.3117 -0.1170
   69SLPC   H9X 5933   3.544   5.548   9.561 -0.0779 -0.0167  0.3244
   69SLPC   H9Y 5934   3.473   5.710   9.593 -1.3763 -0.5157  1.5123
   69SLPC  C310 5935   3.390   5.600   9.421 -0.4351  0.0336  0.1266
   69SLPC  H10X 5936   3.442   5.678   9.361 -1.4773  0.3590 -0.3761
   69SLPC  H10Y 5937   3.283   5.629   9.429  0.1231  1.8585  1.8456
   69SLPC  C311 5938   3.402   5.466   9.349  0.5169 -0.2227  0.4819
   69SLPC  H11X 5939   3.347   5.394   9.413 -0.5143  0.2193  0.1006
   69SLPC  H11Y 5940   3.507   5.431   9.359  0.4600 -0.3135  0.7956
   69SLPC  C312 5941   3.349   5.462   9.199  0.8834  0.3817  0.8386
   69SLPC  H12X 5942   3.248   5.507   9.190  0.5583 -0.0058  2.2010
   69SLPC  H12Y 5943   3.341   5.357   9.163  0.0832  0.4727  0.7242
   69SLPC  C313 5944   3.442   5.532   9.094 -0.6588 -0.1258 -0.1161
   69SLPC  H13X 5945   3.539   5.478   9.090  0.0318  1.0857  0.0027
   69SLPC  H13Y 5946   3.452   5.637   9.129  1.1094 -0.4420  0.4247
   69SLPC  C314 5947   3.376   5.539   8.957 -0.5674 -0.0355  0.0755
   69SLPC  H14X 5948   3.312   5.630   8.963  0.7980  0.9252  0.8735
   69SLPC  H14Y 5949   3.311   5.452   8.936 -2.2793  0.5319  2.6153
   69SLPC  C315 5950   3.483   5.571   8.855  0.5064  0.1396 -0.4572
   69SLPC  H15X 5951   3.420   5.596   8.767 -1.2815 -1.9795  0.1133
   69SLPC  H15Y 5952   3.544   5.485   8.821 -0.3918  0.4004 -2.9777
   69SLPC  C316 5953   3.573   5.688   8.884  0.3788 -0.3604  0.4544
   69SLPC  H16X 5954   3.618   5.682   8.985  1.2707  0.7808  0.1467
   69SLPC  H16Y 5955   3.509   5.779   8.894  2.4636  1.1697  0.4316
   69SLPC  C317 5956   3.678   5.715   8.776  0.7820 -0.0299 -0.0029
   69SLPC  H17X 5957   3.686   5.617   8.723  0.2560 -1.3180  2.1776
   69SLPC  H17Y 5958   3.773   5.736   8.828 -0.2842  1.5242  1.4140
   69SLPC  C318 5959   3.649   5.826   8.682  0.1952  0.1020  0.9146
   69SLPC  H18X 5960   3.557   5.816   8.620  0.4887  1.7933  0.1585
   69SLPC  H18Y 5961   3.732   5.830   8.608  0.5697 -0.5057  1.2878
   69SLPC  H18Z 5962   3.647   5.924   8.734  0.4181 -0.5943  2.2904
   70SLPC     N 5963   3.704   3.606  11.212 -0.2168  0.0098  0.2354
   70SLPC   C13 5964   3.663   3.748  11.211 -0.4304 -0.3309  0.0927
   70SLPC  H13A 5965   3.662   3.781  11.108  2.8326  1.8528  0.6087
   70SLPC  H13B 5966   3.562   3.759  11.250  0.2249  1.2926  1.4706
   70SLPC  H13C 5967   3.734   3.817  11.256 -1.2160  0.8252 -0.3937
   70SLPC   C14 5968   3.593   3.525  11.150  1.0126  0.7930  0.5702
   70SLPC  H14A 5969   3.586   3.559  11.048  1.8053  1.9575  0.8845
   70SLPC  H14B 5970   3.634   3.425  11.141  0.8393  0.8961 -2.2369
   70SLPC  H14C 5971   3.500   3.529  11.204  0.2469  0.2513 -0.6696
   70SLPC   C15 5972   3.711   3.562  11.347 -0.5997 -0.1170  0.1541
   70SLPC  H15A 5973   3.627   3.537  11.409  0.6980  1.6364  2.8254
   70SLPC  H15B 5974   3.766   3.469  11.352 -3.1659 -1.6877  2.6748
   70SLPC  H15C 5975   3.779   3.628  11.400  0.0316 -0.4875 -0.1858
   70SLPC   C12 5976   3.835   3.585  11.138 -0.5965  0.5524  0.6094
   70SLPC  H12A 5977   3.852   3.479  11.142  1.6814  0.8856  1.7269
   70SLPC  H12B 5978   3.917   3.634  11.189  0.5985 -1.3917  0.6521
   70SLPC   C11 5979   3.833   3.624  10.986  0.2025 -0.2657  0.6319
   70SLPC  H11A 5980   3.936   3.622  10.945 -0.9532  0.5543 -2.5659
   70SLPC  H11B 5981   3.801   3.730  10.984  0.0798 -0.3164 -0.3045
   70SLPC     P 5982   3.789   3.423  10.836  0.0053  0.6382 -0.4879
   70SLPC   O13 5983   3.830   3.322  10.930 -0.3892  0.1587  0.0414
   70SLPC   O14 5984   3.677   3.382  10.749 -0.1968 -0.5546 -0.3905
   70SLPC   O12 5985   3.743   3.556  10.904 -0.2057  0.8373  0.8740
   70SLPC   O11 5986   3.912   3.453  10.741  0.2119  0.0305  0.1487
   70SLPC    C1 5987   3.934   3.593  10.699 -0.0894 -0.0175  0.8005
   70SLPC    HA 5988   3.850   3.663  10.716 -0.3826  0.3980 -1.9442
   70SLPC    HB 5989   4.028   3.632  10.743 -0.0673  0.9061 -0.0395
   70SLPC    C2 5990   3.963   3.602  10.543 -0.0796  0.0104 -0.5155
   70SLPC    HS 5991   4.004   3.704  10.527  1.6965 -0.7576 -1.1475
   70SLPC   O21 5992   3.842   3.575  10.460 -0.2342  0.0020  0.3591
   70SLPC   C21 5993   3.749   3.669  10.463 -0.0835  0.3151 -0.2976
   70SLPC   O22 5994   3.758   3.778  10.513  0.5324 -0.2123 -0.5300
   70SLPC   C22 5995   3.624   3.615  10.386  0.3097  0.6366  0.1181
   70SLPC   H2R 5996   3.624   3.658  10.283 -0.5756  0.3272 -0.0281
   70SLPC   H2S 5997   3.615   3.504  10.378  1.5032  0.5505 -0.2042
   70SLPC    C3 5998   4.082   3.506  10.498  0.5384  0.0755  0.0284
   70SLPC    HX 5999   4.062   3.402  10.531 -1.6959  0.0856 -1.1361
   70SLPC    HY 6000   4.179   3.539  10.541  0.2406  0.2908  0.5373
   70SLPC   O31 6001   4.096   3.508  10.349  0.1963 -0.2992 -0.1476
   70SLPC   C31 6002   4.145   3.626  10.306 -1.1659 -0.1028  0.1722
   70SLPC   O32 6003   4.186   3.715  10.382 -0.3344  0.4515  0.4577
   70SLPC   C32 6004   4.137   3.634  10.155  0.1274  0.5366 -1.1338
   70SLPC   H2X 6005   4.144   3.533  10.108  3.4652  0.7882 -1.4224
   70SLPC   H2Y 6006   4.222   3.692  10.114  1.1718 -0.8558 -1.0363
   70SLPC   C23 6007   3.483   3.656  10.440  0.2900  0.0197 -0.6186
   70SLPC   H3R 6008   3.458   3.620  10.542 -2.4107  2.9994 -0.0617
   70SLPC   H3S 6009   3.410   3.612  10.369  1.4889 -1.4953 -0.9610
   70SLPC   C24 6010   3.454   3.804  10.459  0.2189 -0.0417  0.0067
   70SLPC   H4R 6011   3.486   3.870  10.376  3.2114 -1.7923 -0.3803
   70SLPC   H4S 6012   3.489   3.845  10.555  0.4414  1.2610 -0.6181
   70SLPC   C25 6013   3.303   3.823  10.479 -0.0137  0.8872 -0.0814
   70SLPC   H5R 6014   3.271   3.773  10.573 -0.2304  2.8262  0.9354
   70SLPC   H5S 6015   3.256   3.790  10.383  2.7710  0.4631 -1.3899
   70SLPC   C26 6016   3.265   3.975  10.509  0.5781  0.7192 -0.0891
   70SLPC   H6R 6017   3.304   4.014  10.605  0.3147  0.5245  0.1013
   70SLPC   H6S 6018   3.154   3.971  10.509  0.5870 -2.2196 -1.1018
   70SLPC   C27 6019   3.306   4.081  10.410  0.3486 -0.6006  0.3964
   70SLPC   H7R 6020   3.417   4.082  10.409  0.3858  2.3186 -0.2885
   70SLPC   H7S 6021   3.274   4.180  10.448  0.3246 -1.0195  1.5084
   70SLPC   C28 6022   3.256   4.070  10.265  0.7897  0.0136 -0.2808
   70SLPC   H8R 6023   3.274   3.967  10.227  0.4872  0.0332 -0.4882
   70SLPC   H8S 6024   3.319   4.140  10.205  2.3704 -1.0428  0.1042
   70SLPC   C29 6025   3.113   4.111  10.254  0.0295 -0.2787 -0.0781
   70SLPC   H9R 6026   3.065   4.061  10.339  2.9561 -2.7252  0.3215
   70SLPC  C210 6027   3.051   4.186  10.161 -0.3016 -0.4569  0.5810
   70SLPC  H10R 6028   2.946   4.210  10.183  0.1544  0.4832  1.9153
   70SLPC  C211 6029   3.117   4.255  10.042  0.0856  0.2517 -0.2036
   70SLPC  H11R 6030   3.165   4.180   9.975  0.3969  0.3572 -0.1028
   70SLPC  H11S 6031   3.202   4.320  10.073  0.1882 -0.3596  0.8427
   70SLPC  C212 6032   3.012   4.345   9.973 -0.1529 -0.3025 -0.1107
   70SLPC  H12R 6033   2.921   4.365  10.032 -0.5171 -1.9231 -0.0831
   70SLPC  C213 6034   3.026   4.399   9.856  0.4767  0.6751 -0.1034
   70SLPC  H13R 6035   2.955   4.463   9.802  1.1086 -0.6935 -2.7781
   70SLPC  C214 6036   3.148   4.366   9.779 -0.2439 -0.1785 -0.0526
   70SLPC  H14R 6037   3.169   4.257   9.769  1.2586  0.2170 -1.7435
   70SLPC  H14S 6038   3.226   4.423   9.834 -1.1402  1.4624 -0.4373
   70SLPC  C215 6039   3.134   4.416   9.637  1.0179  0.6589  0.7778
   70SLPC  H15R 6040   3.239   4.412   9.601  1.0287 -1.3055  0.8943
   70SLPC  H15S 6041   3.088   4.515   9.620  1.4336  0.4530 -1.9871
   70SLPC  C216 6042   3.041   4.318   9.556 -0.6802  0.5145  0.1036
   70SLPC  H16R 6043   2.932   4.338   9.558 -0.7197  0.3777  2.2192
   70SLPC  H16S 6044   3.047   4.213   9.592  2.3174  0.2731 -0.8213
   70SLPC  C217 6045   3.080   4.314   9.401 -0.0890  0.1111  0.2757
   70SLPC  H17R 6046   3.058   4.421   9.376 -0.6706 -0.1312 -0.2856
   70SLPC  H17S 6047   3.008   4.253   9.343 -0.2412  0.4293  0.1267
   70SLPC  C218 6048   3.219   4.274   9.370 -0.4658  0.3039 -0.6044
   70SLPC  H18R 6049   3.257   4.181   9.417 -0.7008  0.1610 -0.6924
   70SLPC  H18S 6050   3.272   4.364   9.409 -1.3097  0.0849  1.1822
   70SLPC  H18T 6051   3.245   4.262   9.263  1.0434  4.1980 -0.8595
   70SLPC   C33 6052   4.001   3.696  10.112 -1.2849  0.0365  0.0583
   70SLPC   H3X 6053   3.918   3.636  10.155 -1.6802  1.6279  1.6317
   70SLPC   H3Y 6054   3.996   3.693  10.001  3.8415 -1.6524 -0.4092
   70SLPC   C34 6055   3.974   3.844  10.156  1.0137  0.5188  0.1944
   70SLPC   H4X 6056   3.975   3.842  10.267  2.4965  0.1482  0.1897
   70SLPC   H4Y 6057   3.870   3.881  10.144  1.5533  2.2191  0.4374
   70SLPC   C35 6058   4.074   3.949  10.112 -0.2491 -1.2153 -0.0516
   70SLPC   H5X 6059   4.177   3.915  10.134 -0.2830 -0.5142  1.2975
   70SLPC   H5Y 6060   4.043   4.046  10.156  0.0603 -1.4319  0.6593
   70SLPC   C36 6061   4.075   3.974   9.960  0.3377  0.1622 -0.7119
   70SLPC   H6X 6062   3.975   4.015   9.934 -0.2510  1.8563  3.4191
   70SLPC   H6Y 6063   4.091   3.892   9.887 -0.9812 -0.6174 -0.1625
   70SLPC   C37 6064   4.180   4.081   9.922 -0.2220  0.0763 -1.0173
   70SLPC   H7X 6065   4.184   4.162   9.997 -2.2669 -0.2164 -0.5474
   70SLPC   H7Y 6066   4.130   4.130   9.836 -1.4611  0.3060 -0.1812
   70SLPC   C38 6067   4.311   4.019   9.881 -0.6593  0.2177  0.3086
   70SLPC   H8X 6068   4.291   3.942   9.802  3.1221  0.8800 -1.4979
   70SLPC   H8Y 6069   4.358   3.978   9.973  1.8761  0.3381 -0.8550
   70SLPC   C39 6070   4.407   4.118   9.820 -0.0727  0.4136  0.4880
   70SLPC   H9X 6071   4.509   4.075   9.820 -0.0989  0.0600  3.9740
   70SLPC   H9Y 6072   4.410   4.213   9.877 -1.5720  2.0224 -1.9278
   70SLPC  C310 6073   4.372   4.159   9.678  0.4095 -0.6935 -0.4255
   70SLPC  H10X 6074   4.422   4.258   9.670 -2.4118  0.8897  0.3083
   70SLPC  H10Y 6075   4.264   4.170   9.657  0.5469  0.4863 -0.5421
   70SLPC  C311 6076   4.420   4.064   9.568  0.7243  0.7185 -0.4146
   70SLPC  H11X 6077   4.360   3.970   9.570 -0.1670  1.2834  0.8697
   70SLPC  H11Y 6078   4.525   4.046   9.598  0.5269  0.1195 -0.0711
   70SLPC  C312 6079   4.412   4.132   9.433 -0.7933 -0.6594  0.2323
   70SLPC  H12X 6080   4.485   4.216   9.432  0.3148 -1.6072 -0.4111
   70SLPC  H12Y 6081   4.310   4.177   9.437 -0.5145 -0.1212  3.7862
   70SLPC  C313 6082   4.433   4.040   9.319  0.3354 -0.1971  1.4098
   70SLPC  H13X 6083   4.361   3.955   9.320  1.3029 -1.0369  1.2813
   70SLPC  H13Y 6084   4.535   3.996   9.325 -0.0029 -0.9894  1.5342
   70SLPC  C314 6085   4.419   4.109   9.185 -0.6800  0.1285  0.2814
   70SLPC  H14X 6086   4.480   4.201   9.200 -3.3451  1.8569  1.2579
   70SLPC  H14Y 6087   4.321   4.156   9.164  0.4680  2.3037 -0.5383
   70SLPC  C315 6088   4.454   4.026   9.058  0.1004  0.1122  0.0146
   70SLPC  H15X 6089   4.559   3.990   9.062  0.1016 -0.0685 -1.3051
   70SLPC  H15Y 6090   4.448   4.103   8.979 -2.2719  1.3748  1.3135
   70SLPC  C316 6091   4.363   3.905   9.028 -0.4904 -0.1517  0.4439
   70SLPC  H16X 6092   4.263   3.938   8.993  0.1072  3.0111  1.3912
   70SLPC  H16Y 6093   4.344   3.847   9.121  0.3121  0.1774  0.8322
   70SLPC  C317 6094   4.424   3.798   8.933 -0.2828 -0.5177  0.1390
   70SLPC  H17X 6095   4.379   3.708   8.981 -1.2083  0.6834  1.6158
   70SLPC  H17Y 6096   4.534   3.792   8.944 -0.0834 -1.1660 -1.8679
   70SLPC  C318 6097   4.383   3.826   8.789 -0.0470 -1.2060  0.5254
   70SLPC  H18X 6098   4.276   3.856   8.777  0.1027 -0.1464  1.6049
   70SLPC  H18Y 6099   4.397   3.737   8.724 -3.1580 -2.0550  0.8190
   70SLPC  H18Z 6100   4.442   3.913   8.754  0.1410 -0.8893  1.5794
   71SLPC     N 6101   3.280   2.712  10.844 -0.0043  0.1684  0.0933
   71SLPC   C13 6102   3.173   2.786  10.913  0.4341  0.1365 -0.2254
   71SLPC  H13A 6103   3.084   2.725  10.922 -0.0937  0.8708 -0.4069
   71SLPC  H13B 6104   3.207   2.822  11.009 -0.0192 -0.0667  0.0140
   71SLPC  H13C 6105   3.153   2.875  10.855  0.5998  2.0469  2.4754
   71SLPC   C14 6106   3.316   2.583  10.910  0.0273 -0.6544  0.1553
   71SLPC  H14A 6107   3.251   2.502  10.879 -1.9044  0.3572  1.3451
   71SLPC  H14B 6108   3.415   2.554  10.878  0.7059  0.7719  0.8920
   71SLPC  H14C 6109   3.309   2.594  11.017  1.4139 -1.6233  0.3655
   71SLPC   C15 6110   3.395   2.806  10.826 -0.1091 -0.4526 -0.1517
   71SLPC  H15A 6111   3.362   2.903  10.789 -1.7548 -0.4231  1.2479
   71SLPC  H15B 6112   3.445   2.822  10.920  0.4313 -0.9044 -0.3581
   71SLPC  H15C 6113   3.467   2.752  10.766  1.2152  0.4229  0.6115
   71SLPC   C12 6114   3.238   2.671  10.705 -0.1881 -0.3353  0.1885
   71SLPC  H12A 6115   3.312   2.603  10.666 -0.8204  1.0828 -4.0027
   71SLPC  H12B 6116   3.236   2.760  10.644 -0.8733 -2.1591 -2.6021
   71SLPC   C11 6117   3.113   2.582  10.701  0.8049 -0.6415 -0.1579
   71SLPC  H11A 6118   3.131   2.488  10.756  1.5049  0.1383  0.9940
   71SLPC  H11B 6119   3.100   2.549  10.596 -0.6898 -1.0794  0.1488
   71SLPC     P 6120   2.895   2.729  10.653  0.1452  0.0191  0.3487
   71SLPC   O13 6121   2.759   2.703  10.701 -0.0677 -0.5597 -0.5621
   71SLPC   O14 6122   2.948   2.867  10.658  0.0215 -0.0701  0.0157
   71SLPC   O12 6123   2.988   2.634  10.750  0.0387  0.3485  0.0835
   71SLPC   O11 6124   2.910   2.659  10.512 -0.1990  0.0308 -0.1595
   71SLPC    C1 6125   2.815   2.697  10.408 -0.5868 -1.3132  0.0152
   71SLPC    HA 6126   2.744   2.616  10.379 -0.1462 -1.2715 -1.2542
   71SLPC    HB 6127   2.766   2.795  10.423  1.0956 -0.2590 -1.0076
   71SLPC    C2 6128   2.889   2.726  10.272  0.1985  0.2006 -0.8309
   71SLPC    HS 6129   2.844   2.821  10.237 -2.1533 -0.5181  0.1076
   71SLPC   O21 6130   2.863   2.622  10.175  0.0126 -0.4794  0.1184
   71SLPC   C21 6131   2.739   2.620  10.135 -0.1130  0.4698  0.3581
   71SLPC   O22 6132   2.647   2.697  10.166  0.1595  0.1934  0.3598
   71SLPC   C22 6133   2.721   2.504  10.033 -1.1662 -0.5316  0.3059
   71SLPC   H2R 6134   2.821   2.472   9.998 -0.2220  0.3177  2.0517
   71SLPC   H2S 6135   2.674   2.424  10.093  0.8072 -1.8163  0.2502
   71SLPC    C3 6136   3.049   2.749  10.278 -0.5750  0.0950  0.2893
   71SLPC    HX 6137   3.096   2.657  10.320  2.0727 -0.2633 -3.0599
   71SLPC    HY 6138   3.071   2.831  10.351 -0.7258  0.2717  0.1348
   71SLPC   O31 6139   3.108   2.796  10.153  0.3373 -0.1270  0.1252
   71SLPC   C31 6140   3.231   2.746  10.124  0.1725 -0.1022 -0.5771
   71SLPC   O32 6141   3.286   2.654  10.182 -0.0215 -0.1708  0.6592
   71SLPC   C32 6142   3.283   2.819   9.999  0.8797 -0.2173 -0.9163
   71SLPC   H2X 6143   3.282   2.923  10.038 -0.9910  0.4391 -2.5752
   71SLPC   H2Y 6144   3.205   2.815   9.921  0.3763 -0.5496 -0.4075
   71SLPC   C23 6145   2.614   2.521   9.918 -0.4394 -0.9600  0.1692
   71SLPC   H3R 6146   2.518   2.539   9.970 -0.5226  0.1103 -0.3434
   71SLPC   H3S 6147   2.613   2.433   9.850 -1.1041 -0.1384 -0.8991
   71SLPC   C24 6148   2.645   2.650   9.836  0.4452 -0.0131  0.0688
   71SLPC   H4R 6149   2.630   2.739   9.900 -0.8368  0.3137 -0.6405
   71SLPC   H4S 6150   2.572   2.658   9.753  0.7871 -0.3275 -0.2664
   71SLPC   C25 6151   2.787   2.643   9.773 -0.4389  0.2980 -0.2860
   71SLPC   H5R 6152   2.799   2.544   9.725 -1.7190  0.0726 -0.1729
   71SLPC   H5S 6153   2.861   2.652   9.856 -0.9252  2.5287 -0.0296
   71SLPC   C26 6154   2.812   2.758   9.668 -0.2787 -0.5450  0.8002
   71SLPC   H6R 6155   2.844   2.848   9.725  2.3340  0.8835 -2.5501
   71SLPC   H6S 6156   2.721   2.793   9.616  1.4619  2.4695 -0.4915
   71SLPC   C27 6157   2.917   2.737   9.560 -0.0182 -0.5746 -0.1188
   71SLPC   H7R 6158   2.850   2.691   9.484 -1.8957  0.4852  0.8201
   71SLPC   H7S 6159   2.978   2.657   9.609 -1.7664 -0.4719  2.4049
   71SLPC   C28 6160   2.983   2.872   9.528  0.0341 -0.2156  0.3141
   71SLPC   H8R 6161   3.071   2.846   9.466 -0.2389 -3.2306  1.0380
   71SLPC   H8S 6162   3.027   2.909   9.623 -1.3265  3.5856 -0.3666
   71SLPC   C29 6163   2.891   2.971   9.456  0.4366 -0.7393  0.2434
   71SLPC   H9R 6164   2.785   2.970   9.485 -0.4481  0.4362 -2.5796
   71SLPC  C210 6165   2.923   3.051   9.351 -0.0270 -0.2422 -0.3142
   71SLPC  H10R 6166   2.835   3.103   9.311  0.6477  0.8208 -0.4441
   71SLPC  C211 6167   3.064   3.049   9.290 -0.1267  0.2366 -0.6841
   71SLPC  H11R 6168   3.122   2.956   9.311  0.5226  0.9202  0.6894
   71SLPC  H11S 6169   3.110   3.138   9.337 -0.8390 -0.7926  2.2442
   71SLPC  C212 6170   3.056   3.058   9.138  0.5194  0.3021 -0.4502
   71SLPC  H12R 6171   3.006   2.970   9.094 -1.3193  1.8934 -1.7631
   71SLPC  C213 6172   3.082   3.145   9.042 -0.6164  0.4523 -0.1254
   71SLPC  H13R 6173   3.077   3.108   8.939 -3.4955 -2.2755  0.8378
   71SLPC  C214 6174   3.140   3.283   9.070  0.5729  0.3139  0.5846
   71SLPC  H14R 6175   3.125   3.323   9.172  2.0494  0.7968  0.6442
   71SLPC  H14S 6176   3.092   3.356   9.001 -2.8485 -1.4491  0.8937
   71SLPC  C215 6177   3.292   3.294   9.036 -0.0259 -0.1263  0.0103
   71SLPC  H15R 6178   3.351   3.234   9.108  0.9804  1.1798  0.3095
   71SLPC  H15S 6179   3.316   3.399   9.062 -0.2169  0.0317 -0.4335
   71SLPC  C216 6180   3.329   3.273   8.892  0.3264 -1.0867  0.1933
   71SLPC  H16R 6181   3.275   3.351   8.835 -0.0640 -1.3667  0.1796
   71SLPC  H16S 6182   3.290   3.177   8.852  0.7793 -0.9328 -0.6433
   71SLPC  C217 6183   3.477   3.278   8.853 -0.2686 -0.1483  0.4037
   71SLPC  H17R 6184   3.481   3.234   8.751 -0.2749 -3.8071  1.7966
   71SLPC  H17S 6185   3.526   3.198   8.914  1.2311  0.1844 -0.3102
   71SLPC  C218 6186   3.548   3.416   8.877 -0.2232  0.3190  0.8773
   71SLPC  H18R 6187   3.539   3.441   8.985 -0.4998  0.8660  0.7316
   71SLPC  H18S 6188   3.492   3.486   8.811 -2.9449 -3.4294 -1.2506
   71SLPC  H18T 6189   3.654   3.406   8.845 -0.9051 -1.6403 -1.0445
   71SLPC   C33 6190   3.411   2.764   9.929  0.0594  0.0126  0.2416
   71SLPC   H3X 6191   3.392   2.666   9.880  0.8566  0.4097 -0.9212
   71SLPC   H3Y 6192   3.487   2.744  10.007 -0.4869  1.3791  1.1706
   71SLPC   C34 6193   3.471   2.865   9.833  0.2274 -0.2262 -0.2745
   71SLPC   H4X 6194   3.547   2.809   9.775 -1.0098 -1.2058 -1.0084
   71SLPC   H4Y 6195   3.515   2.955   9.880  1.3084 -0.8555 -0.0617
   71SLPC   C35 6196   3.374   2.912   9.719  0.1253 -0.3371  0.7209
   71SLPC   H5X 6197   3.278   2.938   9.767  0.5540 -0.4577  1.6587
   71SLPC   H5Y 6198   3.342   2.818   9.669 -0.3502  0.7524 -1.1162
   71SLPC   C36 6199   3.432   3.015   9.623 -0.6771 -0.9787  0.2453
   71SLPC   H6X 6200   3.433   3.114   9.674 -0.5100 -1.6466  1.5793
   71SLPC   H6Y 6201   3.358   3.019   9.541 -0.7039  0.6162  0.3178
   71SLPC   C37 6202   3.571   2.985   9.562  0.3208 -0.0460 -0.7539
   71SLPC   H7X 6203   3.646   3.002   9.642  0.9003 -1.0232 -1.0704
   71SLPC   H7Y 6204   3.588   3.063   9.485 -0.5388  1.4933  0.5676
   71SLPC   C38 6205   3.581   2.843   9.487  0.0120 -1.1738 -0.5282
   71SLPC   H8X 6206   3.556   2.757   9.554 -0.4547 -0.5362  0.1270
   71SLPC   H8Y 6207   3.690   2.834   9.465 -0.1638  0.4172 -2.2919
   71SLPC   C39 6208   3.494   2.827   9.361 -0.2177 -0.2794 -0.0693
   71SLPC   H9X 6209   3.502   2.916   9.295  1.2991  0.6190  1.2704
   71SLPC   H9Y 6210   3.386   2.831   9.387 -0.0245  2.0760  0.5817
   71SLPC  C310 6211   3.539   2.704   9.284  0.1423  0.1656  0.1133
   71SLPC  H10X 6212   3.538   2.621   9.359 -0.6057 -0.1444 -0.2336
   71SLPC  H10Y 6213   3.647   2.712   9.259 -0.2720 -0.0111 -1.8362
   71SLPC  C311 6214   3.469   2.669   9.154 -0.1534 -0.1960 -0.0125
   71SLPC  H11X 6215   3.373   2.618   9.173  0.8171 -2.5429 -1.0694
   71SLPC  H11Y 6216   3.528   2.590   9.103 -0.2765 -0.5875  0.4512
   71SLPC  C312 6217   3.449   2.785   9.053 -0.2135  0.0922  0.9369
   71SLPC  H12X 6218   3.550   2.817   9.018 -0.3883  0.1594  0.4951
   71SLPC  H12Y 6219   3.384   2.859   9.104  1.3400  1.3438  1.1904
   71SLPC  C313 6220   3.368   2.752   8.924 -0.0506  0.2862 -0.3274
   71SLPC  H13X 6221   3.267   2.722   8.961  1.0328 -3.3076  0.0944
   71SLPC  H13Y 6222   3.419   2.665   8.877 -0.6959 -0.7530  0.8395
   71SLPC  C314 6223   3.358   2.862   8.823  0.0611  0.0781  0.2136
   71SLPC  H14X 6224   3.468   2.873   8.810  0.1679  2.0002  2.0913
   71SLPC  H14Y 6225   3.316   2.949   8.879 -0.0866  2.1618 -2.9122
   71SLPC  C315 6226   3.281   2.833   8.694  1.1386 -0.4605 -0.1978
   71SLPC  H15X 6227   3.311   2.734   8.654 -3.2271 -2.0916  0.0486
   71SLPC  H15Y 6228   3.290   2.903   8.608 -1.5703  0.8485  0.4396
   71SLPC  C316 6229   3.131   2.817   8.707  0.1977 -0.4611 -0.4351
   71SLPC  H16X 6230   3.097   2.769   8.801 -2.8185  0.7660 -0.8003
   71SLPC  H16Y 6231   3.105   2.758   8.617 -1.8688  0.6643 -0.6362
   71SLPC  C317 6232   3.043   2.934   8.680  0.8828 -0.7618  0.0866
   71SLPC  H17X 6233   3.067   2.961   8.575 -1.0141  0.8670  0.0037
   71SLPC  H17Y 6234   3.085   3.016   8.743  0.6382 -1.9015  1.7886
   71SLPC  C318 6235   2.895   2.918   8.698  0.3548  0.1342 -0.7520
   71SLPC  H18X 6236   2.862   2.837   8.767 -1.8746  2.2224  0.8506
   71SLPC  H18Y 6237   2.840   2.911   8.602 -1.0412  0.8737 -0.0393
   71SLPC  H18Z 6238   2.856   3.007   8.752  1.8783  0.2750  0.1763
   72SLPC     N 6239   4.994   0.619  11.062 -0.0534  0.2776  0.0402
   72SLPC   C13 6240   5.115   0.621  11.153 -0.1577 -0.0991 -0.1271
   72SLPC  H13A 6241   5.165   0.526  11.151 -1.5038 -0.8694  0.9248
   72SLPC  H13B 6242   5.177   0.700  11.113 -1.1019 -0.0786 -1.6230
   72SLPC  H13C 6243   5.077   0.642  11.252 -1.7102 -1.5988 -0.3483
   72SLPC   C14 6244   4.920   0.750  11.077  0.3376 -0.2517 -0.6666
   72SLPC  H14A 6245   4.831   0.757  11.016 -0.6881  0.8756  0.8877
   72SLPC  H14B 6246   4.877   0.756  11.175  1.9484  1.2917  0.0000
   72SLPC  H14C 6247   4.976   0.840  11.056 -1.8622  1.4919  0.4942
   72SLPC   C15 6248   4.905   0.512  11.123 -0.7598 -0.2784  0.2418
   72SLPC  H15A 6249   4.885   0.542  11.225  0.3093 -0.8107  0.6265
   72SLPC  H15B 6250   4.818   0.496  11.061 -1.7070 -0.3939  1.5585
   72SLPC  H15C 6251   4.961   0.420  11.135  0.4411  0.3715 -0.2036
   72SLPC   C12 6252   5.042   0.579  10.924  0.7396  0.1023 -0.2533
   72SLPC  H12A 6253   5.110   0.497  10.938  0.3107 -0.0529  0.9662
   72SLPC  H12B 6254   5.100   0.658  10.877 -2.4917  2.5667 -0.4646
   72SLPC   C11 6255   4.947   0.546  10.812  0.4879 -0.2118  0.3008
   72SLPC  H11A 6256   5.004   0.528  10.718  1.7824  2.2649  0.5321
   72SLPC  H11B 6257   4.896   0.644  10.799  3.0080  1.1124 -0.2740
   72SLPC     P 6258   4.917   0.291  10.845 -0.0608 -0.0872  0.2174
   72SLPC   O13 6259   5.024   0.279  10.947 -0.6475  0.5750 -0.1626
   72SLPC   O14 6260   4.804   0.195  10.856  0.3064  0.2969 -0.3211
   72SLPC   O12 6261   4.864   0.440  10.845  1.0427  0.0447  0.6344
   72SLPC   O11 6262   4.985   0.265  10.699  0.3948  0.1446 -0.1630
   72SLPC    C1 6263   4.916   0.302  10.578 -0.2644  0.6922 -0.4864
   72SLPC    HA 6264   4.810   0.332  10.592 -0.5487 -0.9092  1.0743
   72SLPC    HB 6265   4.973   0.386  10.533  0.3494  0.4707 -0.1215
   72SLPC    C2 6266   4.921   0.185  10.476 -0.2789 -0.4220 -0.0046
   72SLPC    HS 6267   4.884   0.216  10.376 -0.1721 -2.3036 -0.6742
   72SLPC   O21 6268   4.853   0.060  10.513 -0.1628 -1.0740  0.2135
   72SLPC   C21 6269   4.722   0.068  10.491 -1.1212  0.2157 -0.8344
   72SLPC   O22 6270   4.666   0.169  10.452  0.9960 -0.1233  0.0924
   72SLPC   C22 6271   4.671  -0.071  10.503  0.1894  0.0734 -0.3078
   72SLPC   H2R 6272   4.741  -0.144  10.456 -0.0903 -0.4852  0.1181
   72SLPC   H2S 6273   4.658  -0.106  10.608  0.9511  1.1332  0.1474
   72SLPC    C3 6274   5.068   0.138  10.453 -0.0582 -0.3012  0.5770
   72SLPC    HX 6275   5.118   0.111  10.549  1.7375  0.0286 -0.2331
   72SLPC    HY 6276   5.123   0.227  10.417 -0.6256 -0.2209 -0.1006
   72SLPC   O31 6277   5.071   0.029  10.357 -0.1928  0.4830  0.2923
   72SLPC   C31 6278   5.199   0.011  10.319  0.3751  1.0132  0.2252
   72SLPC   O32 6279   5.294   0.073  10.341  0.0401 -1.0516 -0.7002
   72SLPC   C32 6280   5.189  -0.091  10.199 -0.2358 -0.1592 -0.1692
   72SLPC   H2X 6281   5.096  -0.151  10.211  0.1474 -1.1317 -1.7050
   72SLPC   H2Y 6282   5.277  -0.160  10.204 -0.6521 -0.6222  2.0838
   72SLPC   C23 6283   4.526  -0.075  10.442 -0.4983  0.5475 -0.4265
   72SLPC   H3R 6284   4.468  -0.000  10.500  0.9499 -0.3580  2.3716
   72SLPC   H3S 6285   4.477  -0.172  10.465 -2.2199  0.7897 -2.7215
   72SLPC   C24 6286   4.523  -0.051  10.294  0.0253  0.6747 -0.2602
   72SLPC   H4R 6287   4.589  -0.134  10.260 -0.3081  0.4043 -0.2627
   72SLPC   H4S 6288   4.567   0.048  10.273  0.1479  0.7103  0.1455
   72SLPC   C25 6289   4.376  -0.053  10.245 -0.3312  0.5151  0.4048
   72SLPC   H5R 6290   4.315   0.029  10.288  0.2478  0.6755  0.9310
   72SLPC   H5S 6291   4.327  -0.146  10.281 -1.8147  0.5885 -1.3013
   72SLPC   C26 6292   4.357  -0.057  10.081 -0.3696  0.6835 -0.1309
   72SLPC   H6R 6293   4.249  -0.051  10.056 -0.7757 -0.0684  1.3070
   72SLPC   H6S 6294   4.398  -0.150  10.037  0.7413  0.5599  1.0996
   72SLPC   C27 6295   4.417   0.065  10.018  0.0510  0.4220 -0.2523
   72SLPC   H7R 6296   4.510   0.093  10.073 -1.0681  1.2599  1.2721
   72SLPC   H7S 6297   4.348   0.150  10.037  1.3962  0.9315  3.1521
   72SLPC   C28 6298   4.451   0.058   9.868 -0.5786  0.3215 -0.5238
   72SLPC   H8R 6299   4.359   0.031   9.813  0.2277  2.3027 -3.0024
   72SLPC   H8S 6300   4.534  -0.013   9.849  0.6122  0.9434  1.8708
   72SLPC   C29 6301   4.499   0.199   9.828 -0.7798 -0.3604 -0.5535
   72SLPC   H9R 6302   4.531   0.277   9.899 -1.3898 -0.4270 -0.1946
   72SLPC  C210 6303   4.507   0.227   9.698 -0.4531  0.4792  0.4738
   72SLPC  H10R 6304   4.542   0.327   9.670 -0.2569  0.1239 -0.6049
   72SLPC  C211 6305   4.470   0.133   9.588 -0.6613  0.3005  0.2787
   72SLPC  H11R 6306   4.364   0.103   9.595 -0.8534  1.0436  0.7413
   72SLPC  H11S 6307   4.528   0.042   9.614  2.4554  1.8880 -0.6228
   72SLPC  C212 6308   4.533   0.170   9.457  0.2061 -0.3027 -0.1196
   72SLPC  H12R 6309   4.638   0.201   9.464  0.1334 -0.0636 -0.0945
   72SLPC  C213 6310   4.471   0.188   9.336 -0.3197  0.3259  0.1521
   72SLPC  H13R 6311   4.528   0.192   9.242 -3.7846  2.3646 -2.0869
   72SLPC  C214 6312   4.326   0.155   9.302  0.0521  0.2553  0.7606
   72SLPC  H14R 6313   4.261   0.242   9.325 -1.0560 -0.4262  0.3298
   72SLPC  H14S 6314   4.293   0.078   9.374  2.1809  0.8354  2.4477
   72SLPC  C215 6315   4.286   0.099   9.161 -0.5730  0.0048  0.0417
   72SLPC  H15R 6316   4.200   0.033   9.185  1.1709 -1.4850  2.7015
   72SLPC  H15S 6317   4.354   0.025   9.114 -2.3584 -0.4097 -2.0543
   72SLPC  C216 6318   4.247   0.213   9.067  0.2049  0.0043  0.0723
   72SLPC  H16R 6319   4.243   0.308   9.124  0.4724  0.3796 -0.5264
   72SLPC  H16S 6320   4.150   0.194   9.016  0.7132  1.2908 -1.4773
   72SLPC  C217 6321   4.345   0.234   8.949  0.0611 -0.4441  0.1618
   72SLPC  H17R 6322   4.359   0.144   8.886  0.5025 -1.0363  1.0865
   72SLPC  H17S 6323   4.442   0.259   8.997  0.1126 -1.5131  0.6395
   72SLPC  C218 6324   4.309   0.354   8.861  0.2732 -0.5789 -0.6110
   72SLPC  H18R 6325   4.384   0.378   8.783 -1.3242 -0.2747 -2.1130
   72SLPC  H18S 6326   4.313   0.447   8.922 -0.2692 -0.7536 -0.3067
   72SLPC  H18T 6327   4.208   0.340   8.818  0.1864 -0.2355 -0.5188
   72SLPC   C33 6328   5.177  -0.021  10.065 -0.6084 -0.1450  1.0045
   72SLPC   H3X 6329   5.220  -0.097   9.996  1.5102  2.9772 -1.4159
   72SLPC   H3Y 6330   5.250   0.062  10.058 -1.6806  0.7324 -0.1583
   72SLPC   C34 6331   5.036   0.033  10.024  0.3696  0.5194  0.2224
   72SLPC   H4X 6332   5.019   0.110  10.102  1.5381 -0.0340  1.0714
   72SLPC   H4Y 6333   4.964  -0.050  10.041  2.0973 -0.8263  1.4016
   72SLPC   C35 6334   5.032   0.080   9.882  0.3002  0.1467  0.1563
   72SLPC   H5X 6335   5.033  -0.006   9.812 -1.1675 -0.0252  0.3247
   72SLPC   H5Y 6336   5.123   0.138   9.854 -1.0261  1.3345 -1.9885
   72SLPC   C36 6337   4.910   0.167   9.851  0.3730  0.3181 -0.1828
   72SLPC   H6X 6338   4.886   0.216   9.947  1.1360  0.5554 -0.1113
   72SLPC   H6Y 6339   4.823   0.102   9.824 -0.9433  2.3772 -1.1033
   72SLPC   C37 6340   4.938   0.271   9.747 -0.5416 -0.0881  0.1041
   72SLPC   H7X 6341   5.018   0.334   9.790  0.1703 -0.1882 -1.0282
   72SLPC   H7Y 6342   4.850   0.339   9.736 -1.2846 -1.2401 -1.6314
   72SLPC   C38 6343   4.973   0.220   9.609 -0.4563  0.5867 -0.4682
   72SLPC   H8X 6344   4.892   0.154   9.571 -0.8476  0.6486  0.2517
   72SLPC   H8Y 6345   5.064   0.159   9.629 -1.0891  0.1674  1.2742
   72SLPC   C39 6346   5.013   0.310   9.499  0.4137 -1.2959 -0.6326
   72SLPC   H9X 6347   5.095   0.380   9.525 -2.2819  1.3248  1.6204
   72SLPC   H9Y 6348   4.927   0.380   9.491 -0.6147 -2.1365  1.8880
   72SLPC  C310 6349   5.029   0.233   9.371  0.1174  0.5176  0.3176
   72SLPC  H10X 6350   4.929   0.193   9.343 -0.5223  1.9916  0.4107
   72SLPC  H10Y 6351   5.108   0.155   9.379 -2.1535 -1.8641  0.8299
   72SLPC  C311 6352   5.051   0.325   9.249  0.6686 -0.0454  0.9414
   72SLPC  H11X 6353   5.154   0.367   9.244  0.0947  1.2972 -0.6635
   72SLPC  H11Y 6354   4.986   0.414   9.256  0.7160 -0.0912  2.0729
   72SLPC  C312 6355   5.032   0.256   9.111 -0.8458 -0.3777 -0.3822
   72SLPC  H12X 6356   4.924   0.233   9.105 -0.7543 -0.8099 -0.3938
   72SLPC  H12Y 6357   5.081   0.156   9.121  0.5258  0.2440 -0.5628
   72SLPC  C313 6358   5.080   0.322   8.981  0.2387  0.9470 -0.3393
   72SLPC  H13X 6359   5.190   0.337   8.990  0.6856 -2.5469  1.7201
   72SLPC  H13Y 6360   5.033   0.421   8.963 -0.4257  0.5737 -0.6920
   72SLPC  C314 6361   5.072   0.224   8.858  0.6218  0.2342 -0.1363
   72SLPC  H14X 6362   4.962   0.215   8.846  0.3413  1.3742  1.1799
   72SLPC  H14Y 6363   5.114   0.123   8.878  0.2927  0.0011 -0.6096
   72SLPC  C315 6364   5.141   0.287   8.734 -0.4858 -0.3169 -0.1066
   72SLPC  H15X 6365   5.242   0.316   8.769 -0.9414  0.1646  0.8662
   72SLPC  H15Y 6366   5.091   0.385   8.715  0.8488  0.0687 -1.8795
   72SLPC  C316 6367   5.137   0.190   8.611 -0.6457 -0.6381  0.3507
   72SLPC  H16X 6368   5.034   0.165   8.579 -0.3093  0.1869 -1.4526
   72SLPC  H16Y 6369   5.201   0.106   8.645  1.4445 -0.6152 -3.0931
   72SLPC  C317 6370   5.219   0.254   8.492 -0.4411  0.3853  0.2475
   72SLPC  H17X 6371   5.318   0.292   8.524 -1.2492  2.3888  0.5375
   72SLPC  H17Y 6372   5.155   0.338   8.457 -0.9652 -0.1198 -0.0158
   72SLPC  C318 6373   5.245   0.164   8.372  0.7067 -0.6369 -0.0639
   72SLPC  H18X 6374   5.157   0.113   8.326 -0.5389  0.9675  0.4145
   72SLPC  H18Y 6375   5.305   0.079   8.410  0.8152 -0.6113 -0.1795
   72SLPC  H18Z 6376   5.286   0.216   8.283 -1.6789 -1.1160 -1.5633
   73SLPC     N 6377   6.258   5.551  10.918 -0.5829 -0.0411  0.0808
   73SLPC   C13 6378   6.262   5.455  11.034  0.0572 -0.0381 -0.5610
   73SLPC  H13A 6379   6.253   5.524  11.117  1.0667  0.8981 -1.2036
   73SLPC  H13B 6380   6.180   5.385  11.037 -1.4579  1.6909  1.8282
   73SLPC  H13C 6381   6.356   5.407  11.057 -0.4720  0.3108  2.8536
   73SLPC   C14 6382   6.376   5.637  10.937 -0.2341  0.4674 -0.0340
   73SLPC  H14A 6383   6.464   5.575  10.945 -1.0271 -0.4906  2.1880
   73SLPC  H14B 6384   6.383   5.701  10.851  0.0681 -0.0664 -0.4114
   73SLPC  H14C 6385   6.365   5.695  11.028 -1.5083 -1.8693  1.4181
   73SLPC   C15 6386   6.137   5.629  10.941  0.1731  0.1396  0.4212
   73SLPC  H15A 6387   6.115   5.682  10.850  0.1435  0.4844  0.6289
   73SLPC  H15B 6388   6.055   5.562  10.964 -1.4572  1.8488 -0.2115
   73SLPC  H15C 6389   6.148   5.701  11.021 -0.7378  0.2942  0.4116
   73SLPC   C12 6390   6.268   5.482  10.780 -0.2883 -0.1593 -0.4965
   73SLPC  H12A 6391   6.357   5.420  10.773  0.8690  1.3550  0.1863
   73SLPC  H12B 6392   6.303   5.555  10.709 -1.6573  1.4090  0.3915
   73SLPC   C11 6393   6.139   5.414  10.730 -0.4390 -0.4266  0.3534
   73SLPC  H11A 6394   6.173   5.369  10.634 -0.0643 -0.9848  0.7378
   73SLPC  H11B 6395   6.067   5.496  10.712 -0.7185 -0.7020  0.2139
   73SLPC     P 6396   5.947   5.271  10.808  0.1412  0.1331 -0.1942
   73SLPC   O13 6397   5.928   5.137  10.874 -0.9608 -0.4953  0.3222
   73SLPC   O14 6398   5.860   5.380  10.846 -0.0158  0.8167  0.2875
   73SLPC   O12 6399   6.097   5.318  10.824  0.3330 -0.5045 -0.4166
   73SLPC   O11 6400   5.942   5.261  10.650 -0.6720  0.4288 -0.2617
   73SLPC    C1 6401   5.851   5.174  10.582 -0.0823  0.1061  0.2531
   73SLPC    HA 6402   5.900   5.083  10.540  1.9836  1.8608 -1.3901
   73SLPC    HB 6403   5.770   5.140  10.649 -2.2905  2.3150 -1.1115
   73SLPC    C2 6404   5.781   5.250  10.465 -0.0622  0.2152  0.6466
   73SLPC    HS 6405   5.716   5.329  10.509  1.6789  0.9844  1.9775
   73SLPC   O21 6406   5.707   5.156  10.386  0.2850  0.0891  0.1447
   73SLPC   C21 6407   5.595   5.209  10.327  0.7001  0.4080 -0.1340
   73SLPC   O22 6408   5.549   5.321  10.335 -0.3891 -0.4830 -0.0425
   73SLPC   C22 6409   5.523   5.098  10.256 -0.7905  0.4674 -0.2837
   73SLPC   H2R 6410   5.531   5.013  10.328 -1.1235  2.6951  2.5548
   73SLPC   H2S 6411   5.416   5.117  10.234 -0.9147  0.0138 -0.0925
   73SLPC    C3 6412   5.898   5.313  10.382  0.5521  0.4709  0.2738
   73SLPC    HX 6413   5.967   5.234  10.345 -0.3682  0.1484 -0.8005
   73SLPC    HY 6414   5.955   5.378  10.452 -1.2524  2.5015 -0.0415
   73SLPC   O31 6415   5.844   5.388  10.274 -0.2413  0.5885  0.4011
   73SLPC   C31 6416   5.797   5.511  10.295  0.2712  0.6474 -0.4761
   73SLPC   O32 6417   5.807   5.566  10.403 -0.5270  0.0413  0.3331
   73SLPC   C32 6418   5.726   5.550  10.170  0.9914 -0.7515 -0.3355
   73SLPC   H2X 6419   5.630   5.494  10.168  0.3335  0.3684 -1.6175
   73SLPC   H2Y 6420   5.778   5.513  10.079  2.2007 -1.9130  0.7895
   73SLPC   C23 6421   5.589   5.064  10.121  0.6788 -0.3059 -0.2352
   73SLPC   H3R 6422   5.556   4.966  10.081  0.7774  0.0227 -1.1478
   73SLPC   H3S 6423   5.700   5.071  10.124  0.9660 -3.6195  0.9817
   73SLPC   C24 6424   5.546   5.178  10.018 -0.0385  0.7414 -0.1984
   73SLPC   H4R 6425   5.525   5.274  10.070 -0.0582  0.4709  0.3031
   73SLPC   H4S 6426   5.450   5.157   9.967 -0.8920  0.6390  1.3734
   73SLPC   C25 6427   5.656   5.193   9.910  0.5507  0.6811  0.1755
   73SLPC   H5R 6428   5.709   5.099   9.885 -0.3388  0.4796 -1.0257
   73SLPC   H5S 6429   5.734   5.251   9.963  0.6586 -0.1834  0.9858
   73SLPC   C26 6430   5.608   5.265   9.790 -0.0504  0.1977  0.5853
   73SLPC   H6R 6431   5.681   5.333   9.743 -2.0124  0.9602 -1.5654
   73SLPC   H6S 6432   5.519   5.326   9.817 -0.3628 -1.2681  3.2206
   73SLPC   C27 6433   5.584   5.159   9.674 -0.1230 -0.0364 -0.1145
   73SLPC   H7R 6434   5.545   5.067   9.722  2.6481 -1.6500 -0.7205
   73SLPC   H7S 6435   5.680   5.123   9.632  1.2790  0.6210  2.3562
   73SLPC   C28 6436   5.494   5.226   9.568 -0.4693 -0.9697 -0.7371
   73SLPC   H8R 6437   5.425   5.298   9.617  0.5553 -0.1076 -0.5209
   73SLPC   H8S 6438   5.437   5.154   9.507  0.4115 -1.3303 -1.1467
   73SLPC   C29 6439   5.572   5.327   9.468  0.0661  0.1919  0.1926
   73SLPC   H9R 6440   5.679   5.339   9.493  0.6850 -2.3802 -0.8648
   73SLPC  C210 6441   5.529   5.365   9.346  0.2371  0.8586  0.2394
   73SLPC  H10R 6442   5.597   5.422   9.280  1.8948 -0.6366  0.5753
   73SLPC  C211 6443   5.393   5.323   9.296  0.4684  0.0142  0.1675
   73SLPC  H11R 6444   5.353   5.236   9.352  3.2459 -0.7663  1.1104
   73SLPC  H11S 6445   5.410   5.283   9.194 -0.9057  0.3291 -0.2030
   73SLPC  C212 6446   5.282   5.420   9.281 -0.1789  0.3064  0.1212
   73SLPC  H12R 6447   5.211   5.429   9.365  0.0040  1.1870  0.1898
   73SLPC  C213 6448   5.249   5.488   9.172  0.2816  0.1845  0.3476
   73SLPC  H13R 6449   5.153   5.543   9.172  0.5957  0.7580  1.1013
   73SLPC  C214 6450   5.320   5.491   9.037  0.2365 -0.3001  0.7788
   73SLPC  H14R 6451   5.296   5.397   8.982 -0.1049 -0.7203  1.6421
   73SLPC  H14S 6452   5.431   5.498   9.044  0.0983  0.9627  1.9201
   73SLPC  C215 6453   5.282   5.595   8.930 -0.2383 -0.6993  0.0082
   73SLPC  H15R 6454   5.367   5.612   8.860 -0.6297  0.0377 -0.3101
   73SLPC  H15S 6455   5.270   5.694   8.980  1.9262 -1.4774  2.2906
   73SLPC  C216 6456   5.158   5.572   8.834 -0.1349  0.4399  0.1792
   73SLPC  H16R 6457   5.072   5.550   8.901  0.6904 -2.2776  0.4822
   73SLPC  H16S 6458   5.192   5.483   8.777  3.6015  0.5630  1.8997
   73SLPC  C217 6459   5.137   5.686   8.737 -0.4863  0.4253  0.6030
   73SLPC  H17R 6460   5.222   5.676   8.666 -0.6326  1.1962  0.3159
   73SLPC  H17S 6461   5.142   5.780   8.795  0.8688  0.4348  0.5104
   73SLPC  C218 6462   5.003   5.688   8.671  0.0597  0.4560  0.1009
   73SLPC  H18R 6463   4.960   5.592   8.634 -2.1023  1.1317  0.6822
   73SLPC  H18S 6464   5.003   5.754   8.582 -0.5274  0.6265  0.2200
   73SLPC  H18T 6465   4.925   5.727   8.740 -0.2130 -1.2386  0.7994
   73SLPC   C33 6466   5.701   5.703  10.162 -0.0522 -0.2178  0.9733
   73SLPC   H3X 6467   5.674   5.758  10.255  0.4668 -0.2214  1.1332
   73SLPC   H3Y 6468   5.614   5.711  10.094 -0.2627 -1.7924  1.0280
   73SLPC   C34 6469   5.823   5.762  10.084 -0.5102 -0.3648  0.4121
   73SLPC   H4X 6470   5.909   5.697  10.112  0.1843  1.0419  1.7408
   73SLPC   H4Y 6471   5.844   5.859  10.135 -1.1327 -0.5556  1.0316
   73SLPC   C35 6472   5.805   5.775   9.929  0.2055  0.3304  0.1184
   73SLPC   H5X 6473   5.901   5.814   9.892 -0.9661  0.8343 -2.6029
   73SLPC   H5Y 6474   5.723   5.848   9.910 -0.6759 -0.7157 -0.1724
   73SLPC   C36 6475   5.776   5.642   9.857 -0.3806 -0.2118 -0.6118
   73SLPC   H6X 6476   5.672   5.617   9.886 -0.1422 -0.2502  0.2259
   73SLPC   H6Y 6477   5.848   5.569   9.900 -0.1028  0.0475 -0.6358
   73SLPC   C37 6478   5.805   5.658   9.707 -0.6792  0.1005  0.1388
   73SLPC   H7X 6479   5.812   5.556   9.664  0.1122  0.9932 -1.9923
   73SLPC   H7Y 6480   5.907   5.691   9.676  0.1029 -2.6422 -0.4767
   73SLPC   C38 6481   5.699   5.732   9.626 -0.7106  0.0391  0.5907
   73SLPC   H8X 6482   5.694   5.835   9.667  0.1088  0.2385  0.2154
   73SLPC   H8Y 6483   5.606   5.674   9.637  0.1717 -1.3502  0.9820
   73SLPC   C39 6484   5.728   5.738   9.468  0.8079 -0.3072  0.5462
   73SLPC   H9X 6485   5.723   5.634   9.429  1.4380  0.1040 -0.6900
   73SLPC   H9Y 6486   5.832   5.773   9.448  1.6419 -1.5160  2.3943
   73SLPC  C310 6487   5.620   5.821   9.399  0.2897  0.0346 -0.5020
   73SLPC  H10X 6488   5.624   5.921   9.447  0.8763 -1.3753  2.6354
   73SLPC  H10Y 6489   5.523   5.776   9.427  1.5028 -0.6284  3.2172
   73SLPC  C311 6490   5.663   5.823   9.255  0.1923 -0.1994  0.1241
   73SLPC  H11X 6491   5.666   5.717   9.224 -1.4298 -0.6190  1.2979
   73SLPC  H11Y 6492   5.762   5.870   9.232 -0.5035  1.4290  0.3323
   73SLPC  C312 6493   5.555   5.887   9.163 -0.9294  0.5912 -0.0173
   73SLPC  H12X 6494   5.542   5.988   9.207 -2.4300  0.0742  0.7778
   73SLPC  H12Y 6495   5.459   5.837   9.186  0.0327 -1.1762  0.3036
   73SLPC  C313 6496   5.600   5.880   9.019  0.4759  0.1118 -0.1396
   73SLPC  H13X 6497   5.603   5.773   8.991  1.0501 -0.1723  0.9867
   73SLPC  H13Y 6498   5.697   5.934   9.013  0.8529 -0.4410  0.8283
   73SLPC  C314 6499   5.509   5.965   8.922  0.6372  0.0267  0.1150
   73SLPC  H14X 6500   5.533   6.072   8.944  0.0575  0.7530 -2.4620
   73SLPC  H14Y 6501   5.404   5.936   8.942  0.6611  1.3763  2.5204
   73SLPC  C315 6502   5.542   5.942   8.771  0.0291  0.3849  0.8301
   73SLPC  H15X 6503   5.556   5.833   8.755 -2.5483 -0.3595  2.9293
   73SLPC  H15Y 6504   5.629   6.008   8.753 -0.7891  1.9206  2.2194
   73SLPC  C316 6505   5.421   5.970   8.684  0.1828 -0.3286  0.5967
   73SLPC  H16X 6506   5.339   5.918   8.739  0.1454 -0.4561  0.4188
   73SLPC  H16Y 6507   5.438   5.938   8.579  0.0061  1.5836 -0.0552
   73SLPC  C317 6508   5.380   6.121   8.690 -0.1790 -0.2311 -0.1899
   73SLPC  H17X 6509   5.453   6.168   8.620 -0.0169  2.4316  1.6128
   73SLPC  H17Y 6510   5.397   6.171   8.788  3.4229 -0.0200 -0.8085
   73SLPC  C318 6511   5.247   6.154   8.628 -0.6098  0.4172  1.1571
   73SLPC  H18X 6512   5.253   6.124   8.521  0.7231  1.7792  0.8213
   73SLPC  H18Y 6513   5.233   6.264   8.632  2.1570  0.8164  1.8233
   73SLPC  H18Z 6514   5.167   6.107   8.689 -1.5217  0.6181  0.1491
   74SLPC     N 6515   5.183   6.730  10.953 -0.3194 -0.0887  0.3692
   74SLPC   C13 6516   5.048   6.658  10.962 -0.4952  0.0211 -0.3842
   74SLPC  H13A 6517   5.032   6.595  11.049 -1.0097  1.5922  0.7102
   74SLPC  H13B 6518   4.963   6.725  10.966 -1.1101 -0.7887  1.0979
   74SLPC  H13C 6519   5.041   6.601  10.871 -1.4484  0.1447 -0.3977
   74SLPC   C14 6520   5.285   6.623  10.933  0.5358  0.2257  0.3692
   74SLPC  H14A 6521   5.264   6.568  10.842 -1.1571  0.9264  0.3149
   74SLPC  H14B 6522   5.384   6.664  10.945  0.1125  0.8306  2.0652
   74SLPC  H14C 6523   5.282   6.550  11.013  3.4207 -0.6999 -0.2492
   74SLPC   C15 6524   5.214   6.796  11.088 -0.6038 -0.6319 -0.2443
   74SLPC  H15A 6525   5.143   6.868  11.127  0.8433 -0.0325  1.4010
   74SLPC  H15B 6526   5.246   6.712  11.147  1.4260 -1.0332 -1.8154
   74SLPC  H15C 6527   5.306   6.851  11.074 -1.7540  1.5781  0.4790
   74SLPC   C12 6528   5.182   6.837  10.843  0.0317 -0.1727 -0.3756
   74SLPC  H12A 6529   5.145   6.930  10.884 -1.0926 -0.3712 -0.9090
   74SLPC  H12B 6530   5.123   6.812  10.757  0.3504 -0.1571 -0.6025
   74SLPC   C11 6531   5.324   6.864  10.783 -0.1686 -0.0067 -0.6728
   74SLPC  H11A 6532   5.319   6.950  10.712  1.3867  0.0573 -0.7300
   74SLPC  H11B 6533   5.357   6.783  10.715 -0.7213 -0.4648 -0.4021
   74SLPC     P 6534   5.549   6.970  10.848 -0.4093 -0.4244  0.5067
   74SLPC   O13 6535   5.485   7.105  10.831 -0.0518 -0.3433  0.0096
   74SLPC   O14 6536   5.651   6.954  10.950  0.1362  0.2446 -0.0827
   74SLPC   O12 6537   5.423   6.887  10.893 -0.0656 -0.1201  0.3604
   74SLPC   O11 6538   5.600   6.908  10.708  0.5674 -0.4318 -0.3064
   74SLPC    C1 6539   5.673   6.789  10.703 -0.0336  0.3348  0.3942
   74SLPC    HA 6540   5.728   6.760  10.796  1.7957 -0.3482 -0.8344
   74SLPC    HB 6541   5.607   6.705  10.671  0.6920  0.7655 -2.4408
   74SLPC    C2 6542   5.780   6.793  10.586  0.1533  0.0812 -0.2786
   74SLPC    HS 6543   5.841   6.880  10.620  0.5085 -0.5778  0.8360
   74SLPC   O21 6544   5.714   6.808  10.457  0.0898  0.1695  0.9265
   74SLPC   C21 6545   5.773   6.885  10.366  0.3523  0.2408 -0.2260
   74SLPC   O22 6546   5.880   6.946  10.382  0.1064 -0.4298 -0.5152
   74SLPC   C22 6547   5.696   6.874  10.236 -0.1608  0.0065 -0.1816
   74SLPC   H2R 6548   5.610   6.804  10.250  0.9743 -1.4408 -0.2162
   74SLPC   H2S 6549   5.674   6.977  10.200  0.8224  0.4053  0.3119
   74SLPC    C3 6550   5.883   6.670  10.585  0.0430 -0.3596 -0.0380
   74SLPC    HX 6551   5.821   6.578  10.576 -0.2851 -0.2210  0.7539
   74SLPC    HY 6552   5.939   6.677  10.681  1.4011 -2.4469 -0.6019
   74SLPC   O31 6553   5.970   6.672  10.476 -0.9438 -0.2705 -0.2647
   74SLPC   C31 6554   6.069   6.580  10.477  0.1274 -0.0846  0.0670
   74SLPC   O32 6555   6.108   6.513  10.570 -0.4415  0.2569  0.2074
   74SLPC   C32 6556   6.120   6.565  10.330  0.1178  0.4253 -0.3643
   74SLPC   H2X 6557   6.075   6.645  10.268 -0.3047 -0.2881 -0.9959
   74SLPC   H2Y 6558   6.075   6.468  10.299  1.3738 -0.3419  0.1594
   74SLPC   C23 6559   5.796   6.798  10.140 -0.1681 -0.0308 -0.3897
   74SLPC   H3R 6560   5.809   6.697  10.184 -2.2039  1.0688  3.1272
   74SLPC   H3S 6561   5.892   6.854  10.134  0.6008 -1.4589 -3.2615
   74SLPC   C24 6562   5.741   6.798   9.994  0.5496  0.1695 -0.1656
   74SLPC   H4R 6563   5.696   6.897   9.968 -1.0418 -0.7518 -1.0431
   74SLPC   H4S 6564   5.656   6.728  10.004  0.5505  0.2687  0.5724
   74SLPC   C25 6565   5.838   6.756   9.885 -0.0754 -0.7119 -0.0730
   74SLPC   H5R 6566   5.890   6.662   9.911 -2.1715 -1.8032  0.4654
   74SLPC   H5S 6567   5.916   6.829   9.857 -0.4974 -0.5359 -0.8328
   74SLPC   C26 6568   5.758   6.736   9.754 -0.5767 -0.2142 -0.2123
   74SLPC   H6R 6569   5.701   6.830   9.736 -0.7774 -0.0531  1.1216
   74SLPC   H6S 6570   5.683   6.657   9.778  0.0393 -0.3769  1.2835
   74SLPC   C27 6571   5.856   6.688   9.645 -0.5492  0.0359  0.9064
   74SLPC   H7R 6572   5.913   6.601   9.684  0.3202  0.6356  0.9957
   74SLPC   H7S 6573   5.940   6.759   9.629  2.7818 -3.3847  1.9006
   74SLPC   C28 6574   5.796   6.654   9.505  0.6324 -0.1744 -0.3100
   74SLPC   H8R 6575   5.751   6.746   9.462 -2.5665 -1.7205 -0.6232
   74SLPC   H8S 6576   5.721   6.574   9.522 -0.2740  0.4143 -1.3563
   74SLPC   C29 6577   5.911   6.605   9.425 -0.1859 -0.3415 -0.0292
   74SLPC   H9R 6578   5.976   6.537   9.481 -0.1487 -0.5282 -0.2935
   74SLPC  C210 6579   5.937   6.641   9.298 -0.2294 -0.0555  0.5507
   74SLPC  H10R 6580   6.021   6.592   9.247 -0.5823 -0.4352  0.3379
   74SLPC  C211 6581   5.862   6.745   9.216 -0.5872 -0.1098 -0.1976
   74SLPC  H11R 6582   5.925   6.793   9.138 -0.7544  0.6119  0.1125
   74SLPC  H11S 6583   5.839   6.832   9.281  0.0639 -1.6507  2.1970
   74SLPC  C212 6584   5.735   6.687   9.159 -0.0176  0.1808  0.0192
   74SLPC  H12R 6585   5.722   6.578   9.173 -2.2667  0.5777  1.5550
   74SLPC  C213 6586   5.627   6.746   9.113  0.2963 -0.0349  0.3953
   74SLPC  H13R 6587   5.557   6.679   9.060  0.4198 -1.1286  1.5864
   74SLPC  C214 6588   5.600   6.895   9.111 -0.0032 -0.0272 -0.3743
   74SLPC  H14R 6589   5.689   6.952   9.145  0.1650 -0.9900  0.8760
   74SLPC  H14S 6590   5.521   6.916   9.186 -1.0654  0.0641 -1.4894
   74SLPC  C215 6591   5.570   6.963   8.973  0.1449 -0.2131 -1.1592
   74SLPC  H15R 6592   5.488   6.917   8.914 -0.6000  0.6203 -0.8099
   74SLPC  H15S 6593   5.661   6.951   8.910 -0.3968  0.9814 -2.2154
   74SLPC  C216 6594   5.531   7.111   9.015 -0.0854 -0.1312 -0.7812
   74SLPC  H16R 6595   5.595   7.154   9.095  0.7093 -1.0709 -0.8835
   74SLPC  H16S 6596   5.428   7.103   9.056  0.8229 -1.9487  1.3874
   74SLPC  C217 6597   5.520   7.193   8.885 -0.8143  0.9599  0.0738
   74SLPC  H17R 6598   5.451   7.136   8.818 -1.0547  3.2317 -1.7467
   74SLPC  H17S 6599   5.621   7.198   8.839 -1.2928 -1.4335 -1.4910
   74SLPC  C218 6600   5.452   7.331   8.897 -0.4209  0.4826 -0.1025
   74SLPC  H18R 6601   5.522   7.383   8.965 -0.4778  1.3416 -0.6842
   74SLPC  H18S 6602   5.346   7.322   8.930 -0.7106  0.7507 -0.9283
   74SLPC  H18T 6603   5.444   7.378   8.797 -1.5746  2.0828  0.6910
   74SLPC   C33 6604   6.270   6.528  10.316 -0.0454  0.8139 -0.0715
   74SLPC   H3X 6605   6.296   6.468  10.406  2.0487  0.4160 -0.9066
   74SLPC   H3Y 6606   6.328   6.622  10.332  0.4607  0.0765  3.2727
   74SLPC   C34 6607   6.309   6.440  10.201  0.0648 -0.4220  0.0493
   74SLPC   H4X 6608   6.251   6.346  10.208 -0.4777 -0.1847 -1.0990
   74SLPC   H4Y 6609   6.417   6.419  10.217  0.2289 -0.0869 -0.5807
   74SLPC   C35 6610   6.287   6.501  10.067  0.1177  0.0621 -0.0100
   74SLPC   H5X 6611   6.339   6.597  10.045 -1.8336  2.1134  3.5393
   74SLPC   H5Y 6612   6.179   6.511  10.044  0.3578  1.3222 -0.6812
   74SLPC   C36 6613   6.316   6.405   9.951  0.1428  1.1331  0.8335
   74SLPC   H6X 6614   6.269   6.309   9.981  3.1185 -0.4282  0.8704
   74SLPC   H6Y 6615   6.425   6.381   9.949 -0.3842 -1.5204 -0.3845
   74SLPC   C37 6616   6.261   6.452   9.813  0.5989 -0.1338 -0.2697
   74SLPC   H7X 6617   6.312   6.546   9.783  1.5633 -0.3894  0.5183
   74SLPC   H7Y 6618   6.152   6.460   9.833  0.7790  2.5556 -0.0618
   74SLPC   C38 6619   6.292   6.361   9.693  0.5254 -0.6131 -0.1474
   74SLPC   H8X 6620   6.299   6.252   9.717 -0.5471 -0.6533  0.0369
   74SLPC   H8Y 6621   6.398   6.383   9.668  1.3854  0.4871  3.7017
   74SLPC   C39 6622   6.206   6.389   9.569  0.5071  0.5437 -0.2229
   74SLPC   H9X 6623   6.223   6.496   9.544  1.2167  0.7563  1.0956
   74SLPC   H9Y 6624   6.098   6.373   9.585  0.0594 -0.0949 -3.2629
   74SLPC  C310 6625   6.251   6.309   9.443 -0.0218 -0.2214  0.8896
   74SLPC  H10X 6626   6.208   6.207   9.439 -0.3278 -0.1169  1.5197
   74SLPC  H10Y 6627   6.362   6.305   9.442  0.3479  3.9899  3.1536
   74SLPC  C311 6628   6.208   6.382   9.312  0.3838  0.7572  0.4870
   74SLPC  H11X 6629   6.248   6.485   9.303 -1.8067  1.5394 -0.8663
   74SLPC  H11Y 6630   6.098   6.393   9.304  0.4198 -0.3243 -3.6873
   74SLPC  C312 6631   6.258   6.303   9.189  0.0237  0.0276  1.3832
   74SLPC  H12X 6632   6.199   6.211   9.170 -1.4142  1.2741 -0.6783
   74SLPC  H12Y 6633   6.367   6.283   9.196  0.1561  0.4107  0.5301
   74SLPC  C313 6634   6.240   6.382   9.058 -0.1099 -0.3140 -0.1274
   74SLPC  H13X 6635   6.318   6.461   9.046  0.4883 -0.7166  0.9889
   74SLPC  H13Y 6636   6.140   6.424   9.034  0.3432  2.0449  1.7676
   74SLPC  C314 6637   6.276   6.289   8.934  0.0196  0.2936 -0.6833
   74SLPC  H14X 6638   6.192   6.217   8.926  0.6988 -0.9587  2.3517
   74SLPC  H14Y 6639   6.373   6.243   8.962  0.2831  1.7524  0.9803
   74SLPC  C315 6640   6.289   6.379   8.812 -0.3323 -0.2332 -0.6290
   74SLPC  H15X 6641   6.345   6.473   8.832 -1.1466  0.3598 -1.0818
   74SLPC  H15Y 6642   6.189   6.400   8.769 -1.4175 -0.8652  1.4256
   74SLPC  C316 6643   6.367   6.313   8.703 -0.1255  0.5059 -0.0785
   74SLPC  H16X 6644   6.469   6.287   8.739  0.3828  0.3751 -1.5621
   74SLPC  H16Y 6645   6.370   6.389   8.623  0.3859  1.6246  0.9758
   74SLPC  C317 6646   6.301   6.180   8.656  1.1253  1.1283  0.0760
   74SLPC  H17X 6647   6.306   6.095   8.727 -1.8952 -0.9011 -1.9025
   74SLPC  H17Y 6648   6.367   6.154   8.571 -0.1228  0.2016 -0.6538
   74SLPC  C318 6649   6.154   6.185   8.607 -0.0006 -0.1418  0.1923
   74SLPC  H18X 6650   6.115   6.081   8.618 -0.4826  0.2518  3.0822
   74SLPC  H18Y 6651   6.142   6.206   8.499  0.6566  0.1297  0.1685
   74SLPC  H18Z 6652   6.093   6.247   8.676 -0.0182 -0.6587  0.6503
   75SLPC     N 6653   5.456   2.111   6.402 -0.2800 -0.6602  0.5019
   75SLPC   C13 6654   5.551   2.021   6.339  0.2855  0.2463 -0.1541
   75SLPC  H13A 6655   5.579   2.047   6.238  0.5027  0.6040 -0.0038
   75SLPC  H13B 6656   5.645   2.027   6.393 -0.2985  2.6112  0.7195
   75SLPC  H13C 6657   5.514   1.920   6.327 -0.8290  0.7016 -0.6877
   75SLPC   C14 6658   5.500   2.253   6.391 -0.3727  0.2831  0.4730
   75SLPC  H14A 6659   5.495   2.299   6.294  2.6522  0.4721  0.3380
   75SLPC  H14B 6660   5.438   2.313   6.456  0.5506  2.8686 -0.9292
   75SLPC  H14C 6661   5.597   2.261   6.437 -1.1127 -0.5859  2.3080
   75SLPC   C15 6662   5.433   2.083   6.545 -0.0960 -0.5794  0.0917
   75SLPC  H15A 6663   5.409   1.978   6.555  1.0616 -0.7403  1.5920
   75SLPC  H15B 6664   5.519   2.112   6.604 -0.8484  1.7090  0.1485
   75SLPC  H15C 6665   5.353   2.141   6.588  0.5377 -0.7778  1.6135
   75SLPC   C12 6666   5.321   2.103   6.325  0.9274  0.7502  0.4665
   75SLPC  H12A 6667   5.292   2.000   6.313 -0.3451  1.4723 -4.4862
   75SLPC  H12B 6668   5.333   2.134   6.223 -1.6665  2.0421  0.4888
   75SLPC   C11 6669   5.198   2.175   6.385  0.5672 -0.0389 -0.7792
   75SLPC  H11A 6670   5.141   2.224   6.303 -1.6233 -1.4567 -0.2008
   75SLPC  H11B 6671   5.233   2.251   6.457 -1.0152 -0.2518  0.2744
   75SLPC     P 6672   4.976   2.100   6.508 -0.1844 -0.1767  0.4759
   75SLPC   O13 6673   4.875   2.099   6.403  0.7556  0.3576  0.1897
   75SLPC   O14 6674   4.951   2.007   6.617  0.1307  0.8371  0.3704
   75SLPC   O12 6675   5.119   2.075   6.451 -0.4092 -0.1868  0.1314
   75SLPC   O11 6676   4.989   2.240   6.575  0.4145 -0.2114  0.0578
   75SLPC    C1 6677   5.079   2.260   6.686  0.5482 -0.2273  0.2727
   75SLPC    HA 6678   5.175   2.208   6.664  0.5861  0.5319 -1.5303
   75SLPC    HB 6679   5.113   2.365   6.674  1.7893 -0.6254  0.1651
   75SLPC    C2 6680   5.021   2.242   6.825 -0.3277 -0.0239  0.0524
   75SLPC    HS 6681   5.009   2.133   6.843  1.4107 -0.2488  0.0204
   75SLPC   O21 6682   4.895   2.312   6.840  0.5609  0.0572  0.6482
   75SLPC   C21 6683   4.824   2.268   6.948 -0.0671 -1.0739 -0.3073
   75SLPC   O22 6684   4.844   2.163   7.003  0.0681  0.3336 -0.0420
   75SLPC   C22 6685   4.727   2.377   6.997 -0.4210 -0.3031  0.4065
   75SLPC   H2R 6686   4.779   2.472   7.023 -0.2164 -0.8215  2.0324
   75SLPC   H2S 6687   4.656   2.401   6.916  1.7723  0.7932 -1.2903
   75SLPC    C3 6688   5.132   2.294   6.923 -0.1539 -0.3919 -0.1039
   75SLPC    HX 6689   5.149   2.403   6.906  0.2979 -0.3464  0.6051
   75SLPC    HY 6690   5.232   2.249   6.906 -1.2303 -2.3338 -1.7407
   75SLPC   O31 6691   5.097   2.283   7.064 -0.2361  0.1605  0.0984
   75SLPC   C31 6692   5.121   2.165   7.124 -0.0073 -0.6190 -0.9688
   75SLPC   O32 6693   5.164   2.068   7.065 -0.0972 -0.0976 -0.0781
   75SLPC   C32 6694   5.095   2.170   7.277  0.0067  0.5824  0.2275
   75SLPC   H2X 6695   5.003   2.109   7.289 -1.5684  2.5465 -1.1008
   75SLPC   H2Y 6696   5.073   2.274   7.311  0.4226  0.3137  1.3695
   75SLPC   C23 6697   4.646   2.328   7.124 -0.2014 -0.2182 -1.1893
   75SLPC   H3R 6698   4.606   2.229   7.093  1.8951 -1.0892 -1.3125
   75SLPC   H3S 6699   4.557   2.391   7.146  0.5074  0.4267 -0.1041
   75SLPC   C24 6700   4.730   2.314   7.251  0.2882  0.4435  0.2819
   75SLPC   H4R 6701   4.735   2.419   7.287 -2.7549  1.5097 -1.9293
   75SLPC   H4S 6702   4.827   2.263   7.234 -0.2898 -0.5295 -0.1836
   75SLPC   C25 6703   4.649   2.228   7.353 -0.3169 -0.7703 -0.2867
   75SLPC   H5R 6704   4.650   2.124   7.314 -3.0321 -0.5825 -0.9899
   75SLPC   H5S 6705   4.541   2.251   7.350 -0.1336  0.3621  0.7601
   75SLPC   C26 6706   4.710   2.230   7.491 -0.2618  0.3300 -0.5406
   75SLPC   H6R 6707   4.708   2.332   7.535 -0.1743  1.6259 -3.3296
   75SLPC   H6S 6708   4.817   2.204   7.480 -0.1751  0.9870 -1.3101
   75SLPC   C27 6709   4.657   2.124   7.590  0.3637 -0.1536  0.2473
   75SLPC   H7R 6710   4.666   2.026   7.537  0.5953 -0.0076  0.0132
   75SLPC   H7S 6711   4.552   2.145   7.618  0.2244 -2.6633  1.9193
   75SLPC   C28 6712   4.738   2.105   7.717 -0.5432 -0.6664  0.0466
   75SLPC   H8R 6713   4.848   2.089   7.714 -0.0833  2.0506 -1.6445
   75SLPC   H8S 6714   4.690   2.016   7.763 -0.8279 -0.0021  1.0605
   75SLPC   C29 6715   4.714   2.215   7.816  0.2619 -0.0530 -0.3241
   75SLPC   H9R 6716   4.606   2.233   7.831  0.3035  0.1853 -0.3208
   75SLPC  C210 6717   4.806   2.291   7.878 -0.1635  0.6295 -0.2445
   75SLPC  H10R 6718   4.762   2.377   7.931 -0.4926  0.0512  0.4483
   75SLPC  C211 6719   4.955   2.297   7.864 -0.6642 -0.0954 -0.0540
   75SLPC  H11R 6720   4.985   2.288   7.758  1.6746 -1.0775  0.6189
   75SLPC  H11S 6721   5.001   2.209   7.916  1.1223  1.0606  0.4232
   75SLPC  C212 6722   5.018   2.426   7.923  0.5563  0.4767  0.3671
   75SLPC  H12R 6723   5.055   2.491   7.842  3.1964 -1.1346  0.1777
   75SLPC  C213 6724   5.041   2.467   8.047  0.0275  0.1363 -0.8560
   75SLPC  H13R 6725   5.106   2.555   8.056  0.0391  0.4166 -3.1557
   75SLPC  C214 6726   5.019   2.386   8.169 -0.1577  0.3852 -0.2301
   75SLPC  H14R 6727   4.956   2.297   8.145  0.3105  0.5857 -2.4047
   75SLPC  H14S 6728   4.950   2.439   8.238 -1.8802 -1.1364 -0.6748
   75SLPC  C215 6729   5.141   2.342   8.251 -0.1881 -0.3869 -0.1498
   75SLPC  H15R 6730   5.195   2.420   8.309 -0.5949 -0.6841  0.6478
   75SLPC  H15S 6731   5.216   2.294   8.186  0.2626 -0.8850  0.7154
   75SLPC  C216 6732   5.120   2.217   8.339 -0.7551  0.9464  0.0970
   75SLPC  H16R 6733   5.089   2.135   8.271 -1.6473  0.9703  0.4553
   75SLPC  H16S 6734   5.026   2.226   8.399  0.6961  1.7132  2.4201
   75SLPC  C217 6735   5.229   2.187   8.437  0.1620 -0.4723 -0.4050
   75SLPC  H17R 6736   5.205   2.083   8.467 -1.8486  0.2779  0.8502
   75SLPC  H17S 6737   5.206   2.249   8.526 -0.7834 -0.4168 -0.6707
   75SLPC  C218 6738   5.371   2.205   8.380  0.1137 -0.1829  0.1462
   75SLPC  H18R 6739   5.371   2.147   8.285  1.4245 -0.5091  0.3266
   75SLPC  H18S 6740   5.434   2.135   8.439 -0.9353 -2.0565 -0.8589
   75SLPC  H18T 6741   5.405   2.308   8.360 -0.2306 -0.2572 -0.8543
   75SLPC   C33 6742   5.204   2.119   7.367  0.4711 -0.9675 -0.3290
   75SLPC   H3X 6743   5.205   2.008   7.374 -0.1137 -0.8768  1.8211
   75SLPC   H3Y 6744   5.302   2.147   7.322  1.1000 -0.7146  1.1250
   75SLPC   C34 6745   5.184   2.178   7.506  0.2553  0.3316 -0.0246
   75SLPC   H4X 6746   5.078   2.153   7.528  0.1639 -0.8535 -1.6281
   75SLPC   H4Y 6747   5.192   2.289   7.501  0.7132  0.2741 -0.7024
   75SLPC   C35 6748   5.274   2.125   7.615  0.0122 -0.7962 -0.8364
   75SLPC   H5X 6749   5.366   2.081   7.570  1.4496  1.3989 -0.1741
   75SLPC   H5Y 6750   5.222   2.052   7.681  1.1879 -0.4209  0.5518
   75SLPC   C36 6751   5.326   2.240   7.705  0.0747  0.5581  0.4495
   75SLPC   H6X 6752   5.231   2.288   7.738 -0.4567 -0.1944  0.0404
   75SLPC   H6Y 6753   5.388   2.309   7.643 -0.1167 -0.5442 -1.0335
   75SLPC   C37 6754   5.384   2.177   7.830 -0.3123  0.0283  0.8588
   75SLPC   H7X 6755   5.450   2.094   7.800  1.4517  0.9701  1.9680
   75SLPC   H7Y 6756   5.304   2.128   7.891 -0.7822 -0.5186 -0.1740
   75SLPC   C38 6757   5.465   2.282   7.905  0.1596  0.6320  0.6543
   75SLPC   H8X 6758   5.556   2.287   7.841  0.1271  1.4070  0.6583
   75SLPC   H8Y 6759   5.493   2.243   8.005 -1.0777  1.0014  1.1622
   75SLPC   C39 6760   5.401   2.423   7.916 -0.1013 -0.2493  0.1481
   75SLPC   H9X 6761   5.309   2.437   7.976 -0.8087  0.1950 -0.9927
   75SLPC   H9Y 6762   5.373   2.456   7.813  2.8947  1.1610 -0.3357
   75SLPC  C310 6763   5.497   2.537   7.967 -0.0463  0.7685 -0.2298
   75SLPC  H10X 6764   5.542   2.596   7.885  3.2732 -0.4834  0.5443
   75SLPC  H10Y 6765   5.581   2.490   8.023 -1.3244 -0.3656  0.8075
   75SLPC  C311 6766   5.421   2.621   8.069 -0.4281  0.9148 -0.3364
   75SLPC  H11X 6767   5.402   2.571   8.166 -2.4637  2.3420  0.0720
   75SLPC  H11Y 6768   5.318   2.646   8.033 -1.4399  1.0134  2.4153
   75SLPC  C312 6769   5.490   2.747   8.094  0.4175  0.0543  0.4860
   75SLPC  H12X 6770   5.506   2.798   7.996  0.3441 -0.5243  0.1727
   75SLPC  H12Y 6771   5.592   2.723   8.130  2.2460  3.4738 -1.7850
   75SLPC  C313 6772   5.412   2.849   8.180 -0.2692  0.0216  0.5068
   75SLPC  H13X 6773   5.335   2.905   8.123  2.2918  1.5228 -1.7360
   75SLPC  H13Y 6774   5.484   2.924   8.218  0.2899 -1.5516  2.7140
   75SLPC  C314 6775   5.352   2.798   8.306 -0.0573 -0.3134 -0.1087
   75SLPC  H14X 6776   5.270   2.724   8.292 -1.0908  0.0752  2.9526
   75SLPC  H14Y 6777   5.297   2.881   8.357  0.0488 -0.6543  0.5773
   75SLPC  C315 6778   5.455   2.754   8.410  0.0189 -0.3822 -0.4909
   75SLPC  H15X 6779   5.544   2.820   8.399 -0.0813 -0.1331  0.1492
   75SLPC  H15Y 6780   5.497   2.653   8.387 -1.0273 -0.9554  0.0434
   75SLPC  C316 6781   5.405   2.759   8.551 -1.0145 -0.2409 -0.2081
   75SLPC  H16X 6782   5.322   2.686   8.562 -0.6107 -0.9828 -1.6742
   75SLPC  H16Y 6783   5.379   2.859   8.590  1.1811  0.8143 -1.2624
   75SLPC  C317 6784   5.514   2.725   8.645  0.0455 -0.1786 -0.8592
   75SLPC  H17X 6785   5.591   2.803   8.621 -1.2853  1.0082 -1.4129
   75SLPC  H17Y 6786   5.546   2.623   8.618 -0.6287 -0.8358  0.7027
   75SLPC  C318 6787   5.462   2.736   8.791  0.4851 -0.2078 -0.0684
   75SLPC  H18X 6788   5.477   2.837   8.835 -1.2522  0.7022 -1.4381
   75SLPC  H18Y 6789   5.518   2.654   8.841 -1.6731  0.3991  3.7687
   75SLPC  H18Z 6790   5.355   2.705   8.794  1.0531 -2.2481  0.4830
   76SLPC     N 6791   6.537   6.033   5.992 -0.3071  1.0832 -0.7281
   76SLPC   C13 6792   6.515   6.175   5.965 -0.1423 -0.4312  0.3999
   76SLPC  H13A 6793   6.570   6.219   5.883 -0.0070 -0.9892  0.1892
   76SLPC  H13B 6794   6.413   6.206   5.946 -0.2011 -0.6352  0.3859
   76SLPC  H13C 6795   6.532   6.247   6.045  0.2831 -0.2449  0.1474
   76SLPC   C14 6796   6.583   5.978   5.858 -0.1306  0.2851 -0.7651
   76SLPC  H14A 6797   6.603   5.873   5.871  0.7883  0.6329  0.8474
   76SLPC  H14B 6798   6.517   5.984   5.773  2.3422 -0.3877 -2.8739
   76SLPC  H14C 6799   6.678   6.018   5.826  0.4648  1.1279  1.8137
   76SLPC   C15 6800   6.410   5.964   6.015 -0.6347  0.8555  0.1246
   76SLPC  H15A 6801   6.338   5.978   5.936  0.2458  1.7617 -0.5473
   76SLPC  H15B 6802   6.420   5.857   6.020 -2.9060  0.6096  0.5018
   76SLPC  H15C 6803   6.373   6.005   6.108  0.6880  4.0939 -0.6526
   76SLPC   C12 6804   6.637   6.003   6.105  0.3774 -0.0454  0.1958
   76SLPC  H12A 6805   6.606   6.039   6.202 -1.6485  2.3848 -1.2359
   76SLPC  H12B 6806   6.730   6.045   6.070  0.2413 -2.3118 -3.4521
   76SLPC   C11 6807   6.676   5.853   6.121 -0.5875 -0.5907 -0.4082
   76SLPC  H11A 6808   6.764   5.845   6.188 -0.4605  2.5686 -0.0658
   76SLPC  H11B 6809   6.708   5.807   6.025  0.4992 -1.6020  0.4041
   76SLPC     P 6810   6.500   5.778   6.300 -0.2154 -0.1638  0.2828
   76SLPC   O13 6811   6.429   5.912   6.299 -0.0445 -0.2696  1.0609
   76SLPC   O14 6812   6.416   5.663   6.338  0.6153  0.1160  0.0569
   76SLPC   O12 6813   6.574   5.760   6.161  0.4651  0.0268 -0.4401
   76SLPC   O11 6814   6.621   5.788   6.402  0.3304 -0.8526  0.4615
   76SLPC    C1 6815   6.693   5.681   6.460  0.1585 -0.4172  0.2730
   76SLPC    HA 6816   6.700   5.586   6.403  1.5029 -0.4179  0.4017
   76SLPC    HB 6817   6.800   5.710   6.459 -0.2910  1.4084  0.3806
   76SLPC    C2 6818   6.649   5.650   6.606 -0.1369  0.0343  0.3247
   76SLPC    HS 6819   6.539   5.636   6.601 -0.4361  2.3302 -2.1769
   76SLPC   O21 6820   6.680   5.768   6.691 -0.0040 -0.0287  0.5665
   76SLPC   C21 6821   6.606   5.777   6.800  0.0915 -0.8767 -0.3536
   76SLPC   O22 6822   6.515   5.701   6.829  0.1268 -0.4815 -0.0065
   76SLPC   C22 6823   6.655   5.899   6.885  0.1254  0.3114  0.7122
   76SLPC   H2R 6824   6.683   5.982   6.817  0.3541  0.0203  0.4506
   76SLPC   H2S 6825   6.573   5.923   6.956  0.2076 -0.1910  0.9771
   76SLPC    C3 6826   6.726   5.525   6.665  0.2579 -0.1120  0.0307
   76SLPC    HX 6827   6.827   5.528   6.617 -0.3735  0.6836 -1.3105
   76SLPC    HY 6828   6.686   5.429   6.627 -1.1089  0.6527 -0.5450
   76SLPC   O31 6829   6.730   5.519   6.806  0.0497  0.2931 -0.0422
   76SLPC   C31 6830   6.829   5.443   6.863 -0.6663  0.2843 -0.0771
   76SLPC   O32 6831   6.920   5.387   6.806  0.0681  0.2136  0.1805
   76SLPC   C32 6832   6.805   5.420   7.014  0.3085 -0.4056  0.0928
   76SLPC   H2X 6833   6.862   5.492   7.075 -0.0062 -0.1939  0.1389
   76SLPC   H2Y 6834   6.846   5.317   7.027 -0.4734 -0.7198  0.1171
   76SLPC   C23 6835   6.769   5.870   6.985 -0.0803  0.3623 -0.1077
   76SLPC   H3R 6836   6.854   5.833   6.924 -0.1196 -0.5913  0.3989
   76SLPC   H3S 6837   6.742   5.795   7.062 -0.6144  0.8789  0.2148
   76SLPC   C24 6838   6.812   5.991   7.065 -0.2482 -1.0847  0.3788
   76SLPC   H4R 6839   6.724   6.048   7.101  0.1423  1.2011 -2.0113
   76SLPC   H4S 6840   6.870   6.060   7.000  0.6887 -1.5086  0.7302
   76SLPC   C25 6841   6.907   5.963   7.178 -0.7051  0.2839 -0.3077
   76SLPC   H5R 6842   7.005   5.938   7.133  0.2414  0.8264  1.3852
   76SLPC   H5S 6843   6.872   5.870   7.228  1.0870 -1.1605 -1.6081
   76SLPC   C26 6844   6.937   6.068   7.289 -0.0501 -0.4981  0.3069
   76SLPC   H6R 6845   6.844   6.083   7.346 -0.7102  2.9191 -1.4046
   76SLPC   H6S 6846   6.939   6.165   7.235 -1.6785 -0.1853  0.7571
   76SLPC   C27 6847   7.053   6.042   7.378 -0.0930  0.5267 -0.6111
   76SLPC   H7R 6848   7.135   6.022   7.305 -1.0853 -0.8435 -1.3949
   76SLPC   H7S 6849   7.030   5.953   7.441 -0.6063  0.6092 -0.6831
   76SLPC   C28 6850   7.086   6.167   7.458  0.0248  1.0553 -0.0076
   76SLPC   H8R 6851   7.193   6.151   7.485 -0.1324 -0.9279 -0.3633
   76SLPC   H8S 6852   7.084   6.259   7.397 -3.4524  1.1128  0.0319
   76SLPC   C29 6853   7.002   6.170   7.578 -0.0699 -0.2365 -0.7653
   76SLPC   H9R 6854   6.897   6.196   7.557 -0.2963  1.1333  1.7389
   76SLPC  C210 6855   7.043   6.154   7.706 -0.0620 -0.3945 -0.1328
   76SLPC  H10R 6856   6.973   6.145   7.790  2.1286  0.7148  1.9171
   76SLPC  C211 6857   7.186   6.136   7.745 -0.0406  0.3454  0.7411
   76SLPC  H11R 6858   7.204   6.185   7.843 -0.4113  1.4430  0.2669
   76SLPC  H11S 6859   7.252   6.188   7.673 -0.3174 -2.3713 -1.6453
   76SLPC  C212 6860   7.204   5.984   7.746 -0.7133  0.4172  0.2380
   76SLPC  H12R 6861   7.190   5.926   7.654  2.0780  1.3486 -0.8572
   76SLPC  C213 6862   7.239   5.918   7.855 -0.2033 -0.6667 -0.0157
   76SLPC  H13R 6863   7.239   5.809   7.843 -0.4809 -0.3769 -3.8692
   76SLPC  C214 6864   7.271   5.972   7.993 -0.1592 -0.5525  0.0798
   76SLPC  H14R 6865   7.257   6.082   7.989 -2.8037 -0.8338 -0.2694
   76SLPC  H14S 6866   7.380   5.954   8.007 -0.2689 -2.2007 -0.9494
   76SLPC  C215 6867   7.201   5.902   8.113 -0.2068 -0.1390 -0.5150
   76SLPC  H15R 6868   7.223   5.793   8.117  2.4502  0.3587 -0.3803
   76SLPC  H15S 6869   7.093   5.911   8.088 -0.6069 -1.9704  0.3182
   76SLPC  C216 6870   7.221   5.965   8.249  0.3975 -0.1842  0.0871
   76SLPC  H16R 6871   7.327   5.997   8.258  0.1888  0.5122  0.0692
   76SLPC  H16S 6872   7.203   5.891   8.331  0.9419 -1.1642 -0.6554
   76SLPC  C217 6873   7.141   6.091   8.272  0.1192 -0.8513 -0.4252
   76SLPC  H17R 6874   7.033   6.076   8.251 -0.0677 -2.1992  1.2328
   76SLPC  H17S 6875   7.180   6.162   8.196  1.1111 -0.8113  0.0968
   76SLPC  C218 6876   7.155   6.149   8.417  0.5787 -0.0974 -0.4741
   76SLPC  H18R 6877   7.260   6.170   8.445  1.1026 -1.6893 -1.1352
   76SLPC  H18S 6878   7.106   6.100   8.504 -0.0374  2.7733  0.8986
   76SLPC  H18T 6879   7.099   6.244   8.408 -1.3851 -1.1227  0.3139
   76SLPC   C33 6880   6.656   5.417   7.053 -0.7072 -0.3706 -0.3513
   76SLPC   H3X 6881   6.612   5.339   6.988 -0.6419 -1.7603  1.2096
   76SLPC   H3Y 6882   6.602   5.510   7.026  1.0447  0.7011 -0.3078
   76SLPC   C34 6883   6.616   5.378   7.193  0.2465  0.4518  0.6792
   76SLPC   H4X 6884   6.668   5.283   7.219  0.0937  0.0535 -0.4223
   76SLPC   H4Y 6885   6.507   5.354   7.200  0.3418 -1.0748 -1.9270
   76SLPC   C35 6886   6.651   5.491   7.282 -0.2674  0.4519 -0.3748
   76SLPC   H5X 6887   6.606   5.589   7.255  0.4701  0.3668 -2.0195
   76SLPC   H5Y 6888   6.761   5.501   7.271 -0.1149 -1.2412 -0.6693
   76SLPC   C36 6889   6.635   5.461   7.430  0.3116 -0.4789 -0.4237
   76SLPC   H6X 6890   6.668   5.357   7.446  1.6859  0.1474  1.1217
   76SLPC   H6Y 6891   6.529   5.466   7.461  0.8251 -2.5259  2.0075
   76SLPC   C37 6892   6.708   5.554   7.535  0.4944 -0.1632  0.7775
   76SLPC   H7X 6893   6.682   5.658   7.505 -0.0538 -0.3769  0.4864
   76SLPC   H7Y 6894   6.819   5.553   7.540  0.6642  3.2273  0.5581
   76SLPC   C38 6895   6.655   5.530   7.680  0.2229 -0.0354  0.9202
   76SLPC   H8X 6896   6.656   5.420   7.698 -0.3681 -0.1440  0.2924
   76SLPC   H8Y 6897   6.553   5.572   7.696  0.9591  2.3107 -0.1503
   76SLPC   C39 6898   6.753   5.588   7.790 -0.2589 -0.2961  0.2687
   76SLPC   H9X 6899   6.755   5.699   7.778 -2.5153 -0.2264  0.1748
   76SLPC   H9Y 6900   6.856   5.546   7.789  1.6738  3.9406  0.0125
   76SLPC  C310 6901   6.691   5.560   7.927 -0.6847 -0.4747  0.5195
   76SLPC  H10X 6902   6.686   5.450   7.944  0.0139 -0.5242  0.4584
   76SLPC  H10Y 6903   6.593   5.612   7.930 -0.9520 -1.0268  1.7376
   76SLPC  C311 6904   6.780   5.626   8.039 -0.5783  0.6742 -0.3954
   76SLPC  H11X 6905   6.711   5.678   8.108  0.2747 -0.6710  1.6006
   76SLPC  H11Y 6906   6.836   5.709   7.992  0.6684 -0.0113 -0.1900
   76SLPC  C312 6907   6.880   5.519   8.104  0.2847 -0.0981  0.8825
   76SLPC  H12X 6908   6.949   5.479   8.027 -1.2163  0.6247 -0.9242
   76SLPC  H12Y 6909   6.828   5.427   8.137  0.4541 -0.7516 -0.6091
   76SLPC  C313 6910   6.966   5.575   8.226 -0.1907 -0.2677 -0.5620
   76SLPC  H13X 6911   6.899   5.601   8.311 -1.4667 -1.1538 -1.2540
   76SLPC  H13Y 6912   7.021   5.663   8.187  2.5334 -1.4928  0.2644
   76SLPC  C314 6913   7.068   5.474   8.287 -0.1773  0.3713  0.0563
   76SLPC  H14X 6914   7.009   5.391   8.330  0.7310  0.4709  1.5624
   76SLPC  H14Y 6915   7.124   5.526   8.368  0.6863 -0.2270 -0.1350
   76SLPC  C315 6916   7.160   5.413   8.185  0.4109 -0.1024 -0.1548
   76SLPC  H15X 6917   7.240   5.486   8.159 -1.0671  1.2530 -1.0750
   76SLPC  H15Y 6918   7.120   5.391   8.084  2.5298 -0.8533 -0.8983
   76SLPC  C316 6919   7.224   5.282   8.231 -0.9411 -0.4362  0.1796
   76SLPC  H16X 6920   7.163   5.195   8.197  0.8530 -0.9034 -2.0671
   76SLPC  H16Y 6921   7.237   5.280   8.341 -2.9009 -1.8127  0.4396
   76SLPC  C317 6922   7.364   5.268   8.163 -0.1589 -0.1728 -0.2954
   76SLPC  H17X 6923   7.422   5.363   8.170  1.1645 -1.0374  0.9471
   76SLPC  H17Y 6924   7.339   5.258   8.055 -2.0983  2.0756 -0.1393
   76SLPC  C318 6925   7.443   5.149   8.208 -0.3651  0.2888  0.8106
   76SLPC  H18X 6926   7.445   5.130   8.317 -0.9418  1.8548  1.1122
   76SLPC  H18Y 6927   7.552   5.142   8.186 -0.2187 -1.4406  1.8693
   76SLPC  H18Z 6928   7.405   5.056   8.161  0.3374  0.4286 -0.0746
   77SLPC     N 6929   3.689   5.895   6.358 -0.5585  0.4401 -0.4163
   77SLPC   C13 6930   3.692   5.833   6.219  0.1515 -0.0735  0.0742
   77SLPC  H13A 6931   3.628   5.746   6.214 -0.4708  0.3894 -0.2131
   77SLPC  H13B 6932   3.646   5.900   6.147  2.8544 -0.0070 -1.7473
   77SLPC  H13C 6933   3.789   5.799   6.187 -1.0511 -2.6140 -1.1221
   77SLPC   C14 6934   3.757   6.028   6.369  0.3608  0.3334  0.3899
   77SLPC  H14A 6935   3.711   6.108   6.314 -0.7177 -0.2009  0.4915
   77SLPC  H14B 6936   3.777   6.055   6.471 -1.1876 -2.0228  1.4099
   77SLPC  H14C 6937   3.863   6.021   6.346  0.3215 -2.1300  0.6735
   77SLPC   C15 6938   3.764   5.809   6.454  0.5631  0.2217 -0.0134
   77SLPC  H15A 6939   3.701   5.732   6.497  1.0727  0.1881  0.6799
   77SLPC  H15B 6940   3.839   5.746   6.408 -0.2696 -1.5684  0.9822
   77SLPC  H15C 6941   3.799   5.874   6.532 -1.6055  1.2796  0.1613
   77SLPC   C12 6942   3.544   5.909   6.401  0.6008  0.2769  0.0256
   77SLPC  H12A 6943   3.537   5.950   6.500  1.6418 -2.8839  1.5247
   77SLPC  H12B 6944   3.493   5.814   6.392  3.8441 -1.5424 -0.6912
   77SLPC   C11 6945   3.469   6.005   6.311 -0.3527  0.1795  0.7225
   77SLPC  H11A 6946   3.358   5.995   6.310 -0.2157 -1.6162 -1.1038
   77SLPC  H11B 6947   3.490   5.985   6.204 -0.2784 -1.5086  1.0372
   77SLPC     P 6948   3.462   6.223   6.462 -0.2709  0.2760  0.2231
   77SLPC   O13 6949   3.585   6.299   6.493 -0.1471 -0.1781 -0.2072
   77SLPC   O14 6950   3.342   6.297   6.417 -1.1798 -0.7481 -0.5755
   77SLPC   O12 6951   3.507   6.138   6.340  0.0071  0.2536  0.4853
   77SLPC   O11 6952   3.420   6.128   6.583 -0.4394 -0.0654 -0.0388
   77SLPC    C1 6953   3.315   6.140   6.677 -0.3655  0.4344 -0.1017
   77SLPC    HA 6954   3.221   6.133   6.618 -0.2070  0.1746 -0.3269
   77SLPC    HB 6955   3.316   6.052   6.745  0.2886  0.3174 -0.2577
   77SLPC    C2 6956   3.335   6.267   6.773  0.6065  0.7292 -0.4664
   77SLPC    HS 6957   3.306   6.358   6.716 -1.3725  0.8577  0.6519
   77SLPC   O21 6958   3.470   6.276   6.815 -0.2187  0.2524  0.1567
   77SLPC   C21 6959   3.526   6.397   6.794  0.9355 -0.4191 -0.7111
   77SLPC   O22 6960   3.468   6.494   6.747  0.2633 -0.5764 -0.2303
   77SLPC   C22 6961   3.662   6.401   6.850 -0.2367 -0.6472 -0.0360
   77SLPC   H2R 6962   3.659   6.373   6.958 -0.0914 -2.3709 -0.4475
   77SLPC   H2S 6963   3.704   6.313   6.797 -0.6826 -0.0462 -1.4145
   77SLPC    C3 6964   3.242   6.258   6.898  0.3705  0.4272  0.0659
   77SLPC    HX 6965   3.267   6.158   6.941 -0.7314  0.7230  1.4774
   77SLPC    HY 6966   3.138   6.249   6.862  0.3906 -0.3636  0.1949
   77SLPC   O31 6967   3.247   6.369   6.985  0.3850  0.1583 -0.7162
   77SLPC   C31 6968   3.243   6.338   7.121 -0.5262  0.3553 -0.5272
   77SLPC   O32 6969   3.258   6.221   7.157  0.7449 -0.7724  0.2025
   77SLPC   C32 6970   3.219   6.460   7.205  0.0637 -0.2177 -0.7714
   77SLPC   H2X 6971   3.195   6.421   7.306 -1.7651  0.3197 -0.9507
   77SLPC   H2Y 6972   3.143   6.524   7.154  0.5854  0.0961 -1.1703
   77SLPC   C23 6973   3.732   6.536   6.815 -0.2919  0.9982 -0.2728
   77SLPC   H3R 6974   3.709   6.567   6.711 -2.6574  0.1294 -0.0768
   77SLPC   H3S 6975   3.842   6.522   6.821 -0.3458 -0.1230 -1.3631
   77SLPC   C24 6976   3.698   6.653   6.914  0.2894 -0.2407  0.0827
   77SLPC   H4R 6977   3.775   6.648   6.994  0.6606 -1.1604 -0.3160
   77SLPC   H4S 6978   3.599   6.627   6.956  0.5888 -0.9175  0.3941
   77SLPC   C25 6979   3.701   6.791   6.847 -0.4584 -0.0052 -0.2079
   77SLPC   H5R 6980   3.616   6.801   6.776 -0.8643  1.3018  0.4328
   77SLPC   H5S 6981   3.789   6.808   6.782 -0.7750  1.4594 -0.3090
   77SLPC   C26 6982   3.684   6.915   6.952  0.1303  0.6043 -0.2210
   77SLPC   H6R 6983   3.588   6.904   7.007  0.3706  0.8470  0.2507
   77SLPC   H6S 6984   3.679   7.012   6.899  1.5286  0.6493 -0.3043
   77SLPC   C27 6985   3.800   6.929   7.045  0.5251 -0.2211  0.3093
   77SLPC   H7R 6986   3.830   7.035   7.056  0.0216  0.0500 -0.7519
   77SLPC   H7S 6987   3.884   6.867   7.007 -0.5431 -2.2973  1.1919
   77SLPC   C28 6988   3.766   6.879   7.191  0.2673  0.1741  0.7060
   77SLPC   H8R 6989   3.709   6.786   7.171  3.2804 -1.2732 -2.1094
   77SLPC   H8S 6990   3.695   6.949   7.241 -0.4512 -1.7984  2.6296
   77SLPC   C29 6991   3.878   6.852   7.279 -0.4410 -0.2147 -0.3379
   77SLPC   H9R 6992   3.949   6.782   7.233  1.0553 -0.2254  1.8605
   77SLPC  C210 6993   3.898   6.907   7.394 -0.3849  0.3756 -0.0859
   77SLPC  H10R 6994   3.996   6.896   7.444 -0.3879  0.4275 -0.0679
   77SLPC  C211 6995   3.812   6.995   7.471 -0.0631  0.1034  0.2964
   77SLPC  H11R 6996   3.794   7.086   7.410 -0.1186 -1.2695 -1.8423
   77SLPC  H11S 6997   3.870   7.020   7.563  0.1223  1.2230 -0.1100
   77SLPC  C212 6998   3.680   6.947   7.505  0.1619  0.1009  0.3561
   77SLPC  H12R 6999   3.623   6.907   7.420 -0.0686 -1.1180  1.0536
   77SLPC  C213 7000   3.619   6.935   7.629 -0.8465 -0.2239 -0.0457
   77SLPC  H13R 7001   3.523   6.883   7.632 -1.0476  0.0824 -0.8904
   77SLPC  C214 7002   3.677   6.974   7.760 -0.2584 -0.0492  0.4356
   77SLPC  H14R 7003   3.616   7.056   7.805 -0.3615  0.1508 -0.0588
   77SLPC  H14S 7004   3.782   7.007   7.745  0.1907 -1.4081  0.4434
   77SLPC  C215 7005   3.706   6.855   7.852 -0.5445 -0.3734  0.3615
   77SLPC  H15R 7006   3.769   6.780   7.800  0.3000  1.7922 -1.9869
   77SLPC  H15S 7007   3.614   6.802   7.886  0.5311 -1.3163  1.9118
   77SLPC  C216 7008   3.765   6.905   7.983  0.0829  0.3671  0.2342
   77SLPC  H16R 7009   3.695   6.982   8.023 -0.0903 -0.3579  1.3887
   77SLPC  H16S 7010   3.868   6.941   7.962 -0.5890  1.7666 -0.7563
   77SLPC  C217 7011   3.789   6.803   8.096 -0.2163  0.6406  0.6261
   77SLPC  H17R 7012   3.886   6.749   8.093 -0.7046 -0.4344  2.5715
   77SLPC  H17S 7013   3.714   6.722   8.082 -0.4498  1.3166 -3.1884
   77SLPC  C218 7014   3.762   6.864   8.239  0.3596 -0.1547 -0.1438
   77SLPC  H18R 7015   3.667   6.921   8.230  0.1121 -0.8101 -2.2364
   77SLPC  H18S 7016   3.841   6.939   8.260 -0.1943  0.5383 -0.4967
   77SLPC  H18T 7017   3.764   6.786   8.319 -0.2128  0.2324  0.2583
   77SLPC   C33 7018   3.347   6.546   7.212  0.1575  0.1123 -0.6636
   77SLPC   H3X 7019   3.376   6.555   7.105 -0.1994 -0.6735 -0.8363
   77SLPC   H3Y 7020   3.434   6.500   7.264 -0.1177  0.2043 -0.1083
   77SLPC   C34 7021   3.328   6.700   7.247 -0.4258  0.8162 -0.0002
   77SLPC   H4X 7022   3.238   6.739   7.196  0.1291  2.2949  0.1246
   77SLPC   H4Y 7023   3.424   6.749   7.218 -0.7022 -0.1298 -2.8402
   77SLPC   C35 7024   3.301   6.747   7.395 -0.6749 -1.1136 -0.0816
   77SLPC   H5X 7025   3.266   6.852   7.380 -0.2726 -1.2195 -2.0642
   77SLPC   H5Y 7026   3.400   6.773   7.438 -1.1861  0.1919  0.3624
   77SLPC   C36 7027   3.203   6.664   7.472  0.2822 -0.0053 -0.5423
   77SLPC   H6X 7028   3.253   6.565   7.484  0.8979  0.2318 -1.0870
   77SLPC   H6Y 7029   3.111   6.638   7.415 -0.4072 -1.5778  1.1940
   77SLPC   C37 7030   3.172   6.713   7.613 -0.6631 -0.2120  0.0970
   77SLPC   H7X 7031   3.261   6.759   7.660 -0.3523 -1.7025  1.0298
   77SLPC   H7Y 7032   3.137   6.636   7.685 -0.8909  0.1792  0.4120
   77SLPC   C38 7033   3.063   6.823   7.617  0.2077  0.6235 -0.1600
   77SLPC   H8X 7034   2.972   6.785   7.568 -0.6475  0.5556  1.4030
   77SLPC   H8Y 7035   3.097   6.915   7.566 -0.0114 -0.0368 -1.5300
   77SLPC   C39 7036   3.036   6.870   7.756  1.1064  0.1011  0.0716
   77SLPC   H9X 7037   2.998   6.974   7.765 -0.0331 -0.3600  0.9799
   77SLPC   H9Y 7038   3.132   6.871   7.812  2.2169  0.4857 -1.7884
   77SLPC  C310 7039   2.938   6.778   7.823 -0.1558  0.2288 -0.4991
   77SLPC  H10X 7040   2.954   6.672   7.792  1.0144  0.1824  0.1941
   77SLPC  H10Y 7041   2.832   6.797   7.796 -0.6303  0.4456  1.3597
   77SLPC  C311 7042   2.949   6.781   7.974  0.1924  0.3237 -0.3917
   77SLPC  H11X 7043   3.053   6.765   8.008  0.0388 -1.4432 -0.6351
   77SLPC  H11Y 7044   2.892   6.691   8.006 -1.8254  1.2406 -1.2464
   77SLPC  C312 7045   2.889   6.906   8.039  0.8319 -0.7255  0.4509
   77SLPC  H12X 7046   2.788   6.914   7.994 -0.0991 -3.5525  1.7876
   77SLPC  H12Y 7047   2.948   6.992   8.000 -0.4448 -1.3721 -3.3079
   77SLPC  C313 7048   2.885   6.905   8.188  0.0878  0.2533 -0.2635
   77SLPC  H13X 7049   2.991   6.878   8.210  0.3281  0.0359 -1.5925
   77SLPC  H13Y 7050   2.822   6.824   8.229 -0.4849  1.0790  0.5326
   77SLPC  C314 7051   2.853   7.043   8.248 -0.4357 -0.1757 -0.2862
   77SLPC  H14X 7052   2.746   7.068   8.231 -0.0742  0.7802 -1.2753
   77SLPC  H14Y 7053   2.904   7.124   8.192 -0.5816 -1.3984 -2.2851
   77SLPC  C315 7054   2.907   7.075   8.394  0.5684 -0.3083  0.1376
   77SLPC  H15X 7055   3.015   7.051   8.387  0.4038 -2.3450  2.8148
   77SLPC  H15Y 7056   2.855   7.003   8.461 -0.1996  0.0487 -0.0612
   77SLPC  C316 7057   2.880   7.215   8.446  0.1995 -0.4858 -0.0879
   77SLPC  H16X 7058   2.786   7.233   8.501 -0.2355  0.6556 -1.1673
   77SLPC  H16Y 7059   2.879   7.286   8.361  0.7133 -0.4880 -0.0990
   77SLPC  C317 7060   2.992   7.266   8.546  0.1620  0.4078  0.6431
   77SLPC  H17X 7061   3.092   7.268   8.497 -0.0791  0.7904  0.1501
   77SLPC  H17Y 7062   3.008   7.191   8.626 -0.9494  1.5666  2.0109
   77SLPC  C318 7063   2.960   7.402   8.609  0.4797 -0.1114 -1.0475
   77SLPC  H18X 7064   3.024   7.427   8.696 -1.0808  0.0865  0.0810
   77SLPC  H18Y 7065   2.855   7.411   8.645  1.7410  2.0251  2.5276
   77SLPC  H18Z 7066   2.975   7.488   8.540 -1.8297  1.6443  0.4933
   78SLPC     N 7067   1.658   6.223   6.345  0.1486 -0.5013 -0.1060
   78SLPC   C13 7068   1.517   6.235   6.283  0.0211 -0.4006  0.1240
   78SLPC  H13A 7069   1.496   6.329   6.235 -2.0372 -0.2664  1.2189
   78SLPC  H13B 7070   1.521   6.158   6.207  0.0425  1.7705 -2.1941
   78SLPC  H13C 7071   1.433   6.221   6.349  0.6262  1.6622  1.4105
   78SLPC   C14 7072   1.758   6.272   6.240  0.7519 -0.3084 -0.2889
   78SLPC  H14A 7073   1.738   6.374   6.211  0.4533 -0.1834  0.3518
   78SLPC  H14B 7074   1.855   6.265   6.285  0.2488  0.0477  0.8755
   78SLPC  H14C 7075   1.751   6.214   6.149 -1.5176  0.4412 -0.6599
   78SLPC   C15 7076   1.681   6.081   6.379  0.5459  0.2481 -0.1538
   78SLPC  H15A 7077   1.597   6.041   6.434  1.1827  0.5030  1.0377
   78SLPC  H15B 7078   1.695   6.021   6.291 -0.2181 -1.5345  0.8873
   78SLPC  H15C 7079   1.769   6.061   6.438 -0.8055 -0.5681  1.6919
   78SLPC   C12 7080   1.660   6.305   6.471  0.2439 -0.2107 -0.4855
   78SLPC  H12A 7081   1.610   6.248   6.547 -1.6879  2.1775  0.1627
   78SLPC  H12B 7082   1.595   6.388   6.450  1.5548  1.3641  1.3578
   78SLPC   C11 7083   1.799   6.353   6.529  0.8475 -0.7378 -0.0205
   78SLPC  H11A 7084   1.857   6.260   6.546 -1.2954 -1.6799  2.9773
   78SLPC  H11B 7085   1.784   6.404   6.627 -0.9911 -2.9535  0.9163
   78SLPC     P 7086   1.846   6.590   6.428 -0.4796  0.1220 -0.4614
   78SLPC   O13 7087   1.976   6.641   6.386 -0.0761 -0.4611  0.2171
   78SLPC   O14 7088   1.737   6.621   6.341  0.8937  0.1526  0.1367
   78SLPC   O12 7089   1.862   6.437   6.437 -0.0158 -0.2992 -0.2700
   78SLPC   O11 7090   1.808   6.641   6.576  0.1118 -0.1777 -0.0795
   78SLPC    C1 7091   1.924   6.673   6.656 -0.3218  0.4085 -0.1459
   78SLPC    HA 7092   1.995   6.588   6.659 -1.0977 -0.4675 -3.2308
   78SLPC    HB 7093   1.986   6.753   6.609 -1.3131  1.8525  0.8992
   78SLPC    C2 7094   1.883   6.714   6.807  0.2059 -0.2617  0.0845
   78SLPC    HS 7095   1.970   6.751   6.864  0.7862 -1.1906 -0.1889
   78SLPC   O21 7096   1.807   6.616   6.882 -0.3196  0.0518 -0.1670
   78SLPC   C21 7097   1.876   6.504   6.912 -0.5313  0.0977 -0.4690
   78SLPC   O22 7098   1.999   6.496   6.905  0.6462  0.2584  0.3173
   78SLPC   C22 7099   1.792   6.383   6.947  0.0771 -0.1325  0.4220
   78SLPC   H2R 7100   1.774   6.323   6.855  0.1761  0.7804 -0.2124
   78SLPC   H2S 7101   1.841   6.318   7.022 -2.4807  1.0399  3.3140
   78SLPC    C3 7102   1.794   6.842   6.795  0.1048  0.4953 -0.2499
   78SLPC    HX 7103   1.704   6.808   6.739 -0.5884 -1.0674  1.6722
   78SLPC    HY 7104   1.845   6.928   6.747 -0.1209  1.1490  0.6672
   78SLPC   O31 7105   1.746   6.888   6.920 -0.0764 -0.4600 -0.3458
   78SLPC   C31 7106   1.631   6.829   6.965 -1.3210 -0.1387 -0.0378
   78SLPC   O32 7107   1.556   6.762   6.896  0.4983 -0.4705 -0.0477
   78SLPC   C32 7108   1.609   6.851   7.109  0.3714  0.4911  0.0438
   78SLPC   H2X 7109   1.619   6.961   7.122  0.6321  0.2924  1.6288
   78SLPC   H2Y 7110   1.676   6.784   7.166 -0.9708  0.2132  1.3403
   78SLPC   C23 7111   1.658   6.415   7.014 -0.4467  0.5413  0.8399
   78SLPC   H3R 7112   1.607   6.317   6.995 -1.1522  1.4702 -3.0464
   78SLPC   H3S 7113   1.599   6.483   6.949 -0.2729 -0.5268 -0.4879
   78SLPC   C24 7114   1.665   6.457   7.164 -0.6852 -0.4493  0.8018
   78SLPC   H4R 7115   1.563   6.482   7.200 -1.3906  0.7409 -1.8340
   78SLPC   H4S 7116   1.738   6.540   7.173  2.4204 -2.9774  0.8225
   78SLPC   C25 7117   1.704   6.341   7.255 -0.5573 -0.0945  0.3118
   78SLPC   H5R 7118   1.790   6.285   7.213 -1.9089  0.4376 -3.5437
   78SLPC   H5S 7119   1.620   6.268   7.252 -0.6954  0.0583  0.4176
   78SLPC   C26 7120   1.726   6.394   7.397  0.3192  0.2000 -0.2092
   78SLPC   H6R 7121   1.634   6.449   7.426  1.1100  1.6407 -0.3450
   78SLPC   H6S 7122   1.811   6.465   7.400  1.3071 -0.9892  0.9533
   78SLPC   C27 7123   1.752   6.293   7.507  0.6199  0.0141  0.5030
   78SLPC   H7R 7124   1.837   6.228   7.476 -1.5478 -2.1053 -1.3610
   78SLPC   H7S 7125   1.666   6.224   7.515  1.5786 -1.5469 -1.7668
   78SLPC   C28 7126   1.774   6.349   7.649  0.0019 -1.0536 -0.6304
   78SLPC   H8R 7127   1.762   6.265   7.721 -0.4607 -0.2050  0.3106
   78SLPC   H8S 7128   1.692   6.423   7.664  0.8442 -0.3366  0.6464
   78SLPC   C29 7129   1.906   6.415   7.678  0.1827 -0.3060  0.6767
   78SLPC   H9R 7130   1.918   6.523   7.657  0.2629 -0.1971  1.2774
   78SLPC  C210 7131   2.010   6.356   7.746 -0.4986 -0.2377 -0.6804
   78SLPC  H10R 7132   2.101   6.416   7.765 -0.5006 -0.0753 -1.1659
   78SLPC  C211 7133   2.011   6.220   7.809 -0.8409  0.3043 -0.0225
   78SLPC  H11R 7134   1.996   6.150   7.724  0.0857  0.8693 -0.6654
   78SLPC  H11S 7135   1.932   6.217   7.887 -1.8977  1.1919 -1.0194
   78SLPC  C212 7136   2.139   6.192   7.887 -0.4021 -0.1661  0.0651
   78SLPC  H12R 7137   2.221   6.163   7.820 -1.5606 -3.2440 -0.1873
   78SLPC  C213 7138   2.163   6.228   8.013 -0.3937  0.3121 -1.2310
   78SLPC  H13R 7139   2.264   6.212   8.052 -0.1711  2.0145 -1.0512
   78SLPC  C214 7140   2.071   6.293   8.109 -0.3476 -0.1602  0.6271
   78SLPC  H14R 7141   1.989   6.226   8.140 -1.2989 -0.1061 -1.5787
   78SLPC  H14S 7142   2.004   6.357   8.047 -2.3728 -1.3455  1.5030
   78SLPC  C215 7143   2.139   6.384   8.212  0.2325 -0.2014  0.0690
   78SLPC  H15R 7144   2.060   6.456   8.242 -1.2661 -1.5754 -0.4146
   78SLPC  H15S 7145   2.219   6.450   8.173  1.5360 -1.2460  0.9182
   78SLPC  C216 7146   2.198   6.311   8.332  0.3135 -0.4499 -0.0246
   78SLPC  H16R 7147   2.280   6.246   8.297  0.4429 -1.1893  1.5404
   78SLPC  H16S 7148   2.126   6.242   8.381  1.5810 -1.5791  0.2958
   78SLPC  C217 7149   2.250   6.417   8.436  0.4839 -0.2230 -0.0454
   78SLPC  H17R 7150   2.170   6.494   8.444 -0.5503 -1.1900 -0.7126
   78SLPC  H17S 7151   2.345   6.461   8.398  0.8498 -1.5659 -0.7257
   78SLPC  C218 7152   2.272   6.359   8.573  0.2867 -0.1399  0.5380
   78SLPC  H18R 7153   2.178   6.317   8.615  0.4812 -1.5505 -0.3763
   78SLPC  H18S 7154   2.317   6.440   8.635  0.2139 -0.9061  1.6369
   78SLPC  H18T 7155   2.344   6.275   8.565 -0.3638 -0.5766 -0.9249
   78SLPC   C33 7156   1.461   6.821   7.155  0.6169 -0.2652 -0.2468
   78SLPC   H3X 7157   1.444   6.711   7.153  1.3911 -0.4122  0.4619
   78SLPC   H3Y 7158   1.395   6.873   7.084  1.7415  0.3088 -0.9008
   78SLPC   C34 7159   1.434   6.875   7.294 -0.5350 -0.7115  0.5635
   78SLPC   H4X 7160   1.328   6.852   7.319 -0.4073 -1.1866  0.6765
   78SLPC   H4Y 7161   1.444   6.985   7.277 -0.0509 -1.0789 -1.7961
   78SLPC   C35 7162   1.520   6.801   7.399  0.3080 -0.1450  0.2054
   78SLPC   H5X 7163   1.630   6.810   7.391  0.3083 -1.6534 -2.2298
   78SLPC   H5Y 7164   1.497   6.693   7.390  2.6479 -0.7840  1.1924
   78SLPC   C36 7165   1.486   6.828   7.544 -0.2901  0.7701 -0.3459
   78SLPC   H6X 7166   1.376   6.816   7.558 -0.4971  0.9084 -1.7416
   78SLPC   H6Y 7167   1.515   6.934   7.561  1.0776  0.5608 -1.2536
   78SLPC   C37 7168   1.565   6.755   7.650 -0.4690  0.8286  0.3622
   78SLPC   H7X 7169   1.674   6.750   7.632 -0.5873 -2.1901  0.0274
   78SLPC   H7Y 7170   1.538   6.648   7.654  0.0665  0.6043 -1.4282
   78SLPC   C38 7171   1.561   6.824   7.791 -0.4807 -0.1224 -0.0390
   78SLPC   H8X 7172   1.458   6.843   7.827  0.6833  1.6995  2.6335
   78SLPC   H8Y 7173   1.599   6.927   7.775  0.0529 -0.1377  1.0719
   78SLPC   C39 7174   1.620   6.740   7.907  0.2819  0.1112  0.4987
   78SLPC   H9X 7175   1.592   6.632   7.905  3.0314 -0.6841  0.0876
   78SLPC   H9Y 7176   1.586   6.783   8.003  2.4479 -0.9157  1.7984
   78SLPC  C310 7177   1.767   6.742   7.908 -0.7424  0.2734 -0.0828
   78SLPC  H10X 7178   1.806   6.691   7.817  0.5289 -0.3226  0.7590
   78SLPC  H10Y 7179   1.805   6.675   7.989 -2.8086  1.4088  1.9362
   78SLPC  C311 7180   1.836   6.881   7.922 -0.0219 -0.7040 -0.3589
   78SLPC  H11X 7181   1.820   6.920   8.025  1.7353 -0.7366 -0.0377
   78SLPC  H11Y 7182   1.778   6.948   7.854 -0.5338 -1.1646 -0.3893
   78SLPC  C312 7183   1.984   6.882   7.905  0.3631 -0.6350  0.0465
   78SLPC  H12X 7184   2.003   6.992   7.915 -1.6517 -0.2749  0.2590
   78SLPC  H12Y 7185   1.997   6.841   7.803  0.9238  2.5841 -1.3170
   78SLPC  C313 7186   2.079   6.804   7.998  0.9287 -0.2357  0.2032
   78SLPC  H13X 7187   2.175   6.778   7.949 -0.9769  0.0559 -4.1403
   78SLPC  H13Y 7188   2.030   6.707   8.020  2.1545 -0.3833  2.6379
   78SLPC  C314 7189   2.092   6.885   8.127 -0.1119 -0.3250  0.2979
   78SLPC  H14X 7190   1.993   6.890   8.178 -0.4537  1.8859 -0.4762
   78SLPC  H14Y 7191   2.123   6.988   8.099 -1.5011 -0.0415 -0.2400
   78SLPC  C315 7192   2.190   6.820   8.226 -0.5320  0.3341  0.5121
   78SLPC  H15X 7193   2.289   6.832   8.176  0.2083 -2.9649  0.9278
   78SLPC  H15Y 7194   2.155   6.717   8.247 -0.8398  0.5405  1.0445
   78SLPC  C316 7195   2.205   6.896   8.364 -0.5143 -0.6483  0.5372
   78SLPC  H16X 7196   2.283   6.838   8.418 -1.3549 -1.9106  0.4559
   78SLPC  H16Y 7197   2.115   6.880   8.427 -1.9329  0.7202 -1.0168
   78SLPC  C317 7198   2.251   7.045   8.356 -0.1310 -0.8198 -0.3954
   78SLPC  H17X 7199   2.265   7.085   8.459  1.2124  0.5296 -1.0596
   78SLPC  H17Y 7200   2.175   7.106   8.302  0.1391 -1.0926 -1.0879
   78SLPC  C318 7201   2.390   7.058   8.293  0.5390 -0.0056 -0.2994
   78SLPC  H18X 7202   2.456   6.979   8.334  0.4279 -0.4788 -1.0248
   78SLPC  H18Y 7203   2.427   7.159   8.322  0.7489 -0.4690  1.1484
   78SLPC  H18Z 7204   2.383   7.051   8.182  1.6094 -2.3011 -0.2662
   79SLPC     N 7205   1.870   0.643   5.827  0.2460 -0.1791  0.1585
   79SLPC   C13 7206   1.794   0.573   5.936 -0.0572 -0.0443  0.0381
   79SLPC  H13A 7207   1.766   0.639   6.016 -0.4697 -0.1721  0.0018
   79SLPC  H13B 7208   1.703   0.528   5.900 -1.0311  2.3027 -0.5776
   79SLPC  H13C 7209   1.847   0.495   5.989 -1.3658 -0.1573  1.2147
   79SLPC   C14 7210   1.767   0.725   5.764  0.7519 -0.0758  0.0384
   79SLPC  H14A 7211   1.703   0.666   5.701  2.3859 -1.6644 -0.2166
   79SLPC  H14B 7212   1.713   0.794   5.828 -0.6367  0.2384 -1.3975
   79SLPC  H14C 7213   1.811   0.793   5.693 -0.8823 -0.0132 -0.9582
   79SLPC   C15 7214   1.918   0.544   5.726 -0.1599 -0.4674 -0.3889
   79SLPC  H15A 7215   1.991   0.597   5.666  0.3015  0.7661  1.1812
   79SLPC  H15B 7216   1.973   0.462   5.770  2.4057  0.3245 -1.8781
   79SLPC  H15C 7217   1.830   0.515   5.671 -1.0738  1.6332 -0.1326
   79SLPC   C12 7218   1.987   0.732   5.880 -0.0501  0.1741 -0.2144
   79SLPC  H12A 7219   2.035   0.779   5.795 -2.8652 -2.2315 -3.4268
   79SLPC  H12B 7220   2.053   0.665   5.933  0.7955 -0.0164 -1.4755
   79SLPC   C11 7221   1.952   0.850   5.981  0.3417 -1.5032 -0.4836
   79SLPC  H11A 7222   1.887   0.925   5.933  1.5159 -1.2135 -1.6939
   79SLPC  H11B 7223   2.045   0.907   6.002 -1.5581  0.7203  2.9567
   79SLPC     P 7224   1.974   0.764   6.236  0.0844 -0.2557 -0.1222
   79SLPC   O13 7225   1.878   0.744   6.345  0.0101  0.4062 -0.4041
   79SLPC   O14 7226   2.051   0.647   6.194  0.7242  0.1996 -0.4335
   79SLPC   O12 7227   1.894   0.814   6.108 -0.1465  0.6201 -0.1209
   79SLPC   O11 7228   2.069   0.889   6.268  0.3711 -0.6449  0.0060
   79SLPC    C1 7229   2.006   1.023   6.251 -0.4570  0.7702 -0.0994
   79SLPC    HA 7230   2.055   1.078   6.168  1.5046  0.6762  0.9503
   79SLPC    HB 7231   1.896   1.017   6.234 -0.4835 -1.5786  0.5660
   79SLPC    C2 7232   2.040   1.107   6.375 -0.0119 -0.8667 -0.3657
   79SLPC    HS 7233   2.148   1.102   6.402 -0.2179 -0.4982  0.5705
   79SLPC   O21 7234   1.961   1.065   6.488 -0.0449 -0.5684 -0.1925
   79SLPC   C21 7235   2.011   0.970   6.555  0.2443  0.5416  0.0659
   79SLPC   O22 7236   2.128   0.929   6.549  0.1261 -0.1474  0.1533
   79SLPC   C22 7237   1.911   0.939   6.669 -0.2594  0.7272 -0.0554
   79SLPC   H2R 7238   1.917   1.017   6.749  0.0478  1.5589 -0.8790
   79SLPC   H2S 7239   1.805   0.946   6.635 -0.9156 -1.3728  1.3786
   79SLPC    C3 7240   2.008   1.259   6.346  0.5585 -0.5221 -0.0005
   79SLPC    HX 7241   1.899   1.268   6.326  0.3754  0.2659  1.2341
   79SLPC    HY 7242   2.062   1.296   6.256  2.8709 -1.6058  0.8608
   79SLPC   O31 7243   2.050   1.345   6.447 -0.2743 -0.1275 -0.1070
   79SLPC   C31 7244   1.970   1.438   6.489  0.2041  0.2259  0.0345
   79SLPC   O32 7245   1.854   1.462   6.441  0.0558  0.6030 -0.3036
   79SLPC   C32 7246   2.045   1.519   6.586  0.5401  0.3676  0.1563
   79SLPC   H2X 7247   2.121   1.583   6.535  1.7154 -2.0867 -1.3703
   79SLPC   H2Y 7248   2.109   1.455   6.650  1.2508  0.6051 -0.2947
   79SLPC   C23 7249   1.926   0.794   6.729  0.2746  0.3533  0.3605
   79SLPC   H3R 7250   1.958   0.720   6.652 -0.6613 -1.5033  1.6857
   79SLPC   H3S 7251   1.822   0.763   6.751 -0.8182  1.8448 -2.2499
   79SLPC   C24 7252   2.018   0.778   6.852  0.1342  0.1146 -0.4653
   79SLPC   H4R 7253   2.124   0.810   6.839 -0.3431  2.2622  0.4382
   79SLPC   H4S 7254   2.008   0.670   6.875 -1.2118  0.5614  1.2448
   79SLPC   C25 7255   1.973   0.845   6.982  0.1263 -0.3880 -0.7979
   79SLPC   H5R 7256   1.867   0.823   7.006  0.1621  1.0005  0.8028
   79SLPC   H5S 7257   1.975   0.956   6.979 -1.7842 -0.2166  1.4437
   79SLPC   C26 7258   2.056   0.804   7.102 -0.5303  0.8743  0.9614
   79SLPC   H6R 7259   2.159   0.840   7.081  0.2902 -1.4968  0.6604
   79SLPC   H6S 7260   2.054   0.693   7.107 -0.7675  0.8252 -0.0290
   79SLPC   C27 7261   2.015   0.861   7.235 -0.6198  0.6765 -0.7294
   79SLPC   H7R 7262   1.918   0.828   7.277  0.3189 -1.2202  0.0806
   79SLPC   H7S 7263   2.028   0.971   7.230 -1.8103  0.8005 -1.2809
   79SLPC   C28 7264   2.106   0.816   7.354 -0.0636  0.1235  0.0174
   79SLPC   H8R 7265   2.211   0.801   7.318 -1.0931  1.2871 -3.9566
   79SLPC   H8S 7266   2.087   0.711   7.383 -0.2951 -0.0312 -0.6697
   79SLPC   C29 7267   2.113   0.909   7.472  0.4014 -0.2301 -0.2749
   79SLPC   H9R 7268   2.203   0.972   7.475  0.5598 -0.4579  1.9771
   79SLPC  C210 7269   2.018   0.916   7.570  0.3646  0.7994  0.3478
   79SLPC  H10R 7270   2.025   0.978   7.661 -0.8563 -0.1913  1.1515
   79SLPC  C211 7271   1.893   0.830   7.579 -0.5408 -0.0704  0.2838
   79SLPC  H11R 7272   1.911   0.757   7.661  1.2613  3.1951  3.0658
   79SLPC  H11S 7273   1.859   0.792   7.481 -1.1475 -3.2175  1.6086
   79SLPC  C212 7274   1.785   0.921   7.614 -0.1489  0.6454  0.2739
   79SLPC  H12R 7275   1.736   0.983   7.537  0.0235  2.7384  1.7669
   79SLPC  C213 7276   1.735   0.947   7.733  0.1129  0.3215 -0.0828
   79SLPC  H13R 7277   1.654   1.021   7.740  0.0092  0.2248 -0.2478
   79SLPC  C214 7278   1.774   0.886   7.866 -0.0223  0.0974  0.9306
   79SLPC  H14R 7279   1.842   0.801   7.849  2.8666  2.2343  1.0568
   79SLPC  H14S 7280   1.672   0.857   7.900 -1.7268  1.3198 -2.5782
   79SLPC  C215 7281   1.848   0.986   7.959 -0.0010 -0.0468  0.3735
   79SLPC  H15R 7282   1.813   1.091   7.958  2.0438  0.6835  0.8420
   79SLPC  H15S 7283   1.945   1.001   7.907 -0.4727 -0.7944 -0.7580
   79SLPC  C216 7284   1.871   0.949   8.107 -0.6722  0.6995 -0.0823
   79SLPC  H16R 7285   1.917   0.849   8.125 -2.5713  0.1127  1.9077
   79SLPC  H16S 7286   1.769   0.950   8.151 -0.8850 -2.4468 -0.2783
   79SLPC  C217 7287   1.970   1.038   8.178 -0.3804 -0.0576 -0.1197
   79SLPC  H17R 7288   2.015   0.986   8.265  0.6168  0.3103 -0.4036
   79SLPC  H17S 7289   1.906   1.114   8.227  0.4164  0.3718  0.2764
   79SLPC  C218 7290   2.087   1.108   8.106  0.0575  0.6386  0.8166
   79SLPC  H18R 7291   2.153   1.170   8.170  1.0836 -0.3119  0.7161
   79SLPC  H18S 7292   2.062   1.162   8.012  2.0035  1.3990  0.6917
   79SLPC  H18T 7293   2.160   1.030   8.074 -0.1234 -0.2083  2.3815
   79SLPC   C33 7294   1.946   1.603   6.675  0.0595 -0.1361  0.0683
   79SLPC   H3X 7295   1.875   1.536   6.729  0.5092 -1.9038 -1.4559
   79SLPC   H3Y 7296   1.885   1.662   6.603  1.2971  0.0213 -0.8763
   79SLPC   C34 7297   2.007   1.715   6.765 -0.8416  0.1552 -0.2644
   79SLPC   H4X 7298   1.930   1.793   6.782 -0.8513 -0.4042  3.0450
   79SLPC   H4Y 7299   2.082   1.767   6.703 -2.3534 -0.1811 -2.4766
   79SLPC   C35 7300   2.077   1.651   6.890  0.2714 -0.3362  0.3122
   79SLPC   H5X 7301   2.170   1.603   6.854  0.4048  1.5789 -2.1433
   79SLPC   H5Y 7302   2.014   1.583   6.952 -0.9872  1.2889  0.9168
   79SLPC   C36 7303   2.139   1.759   6.987 -0.4732  0.1404  0.7649
   79SLPC   H6X 7304   2.064   1.828   7.029 -0.3526  0.9762 -0.3546
   79SLPC   H6Y 7305   2.207   1.822   6.926 -0.8767  1.3246  1.5157
   79SLPC   C37 7306   2.224   1.693   7.098 -0.4031 -0.7959 -0.2882
   79SLPC   H7X 7307   2.307   1.632   7.055  1.0914 -1.0724  2.7575
   79SLPC   H7Y 7308   2.161   1.624   7.158  0.1911 -0.5287  0.6627
   79SLPC   C38 7309   2.273   1.796   7.198  0.0914  0.0435 -0.2327
   79SLPC   H8X 7310   2.186   1.845   7.246 -0.5477 -3.8944  3.2071
   79SLPC   H8Y 7311   2.334   1.871   7.143 -3.0335  1.6759 -1.7511
   79SLPC   C39 7312   2.351   1.731   7.311  0.1215  0.2282 -0.1516
   79SLPC   H9X 7313   2.452   1.776   7.315  0.2584  0.0308 -1.1038
   79SLPC   H9Y 7314   2.359   1.625   7.277  1.3379  0.3931 -0.4049
   79SLPC  C310 7315   2.280   1.729   7.444 -0.5242  0.4082 -0.2355
   79SLPC  H10X 7316   2.177   1.692   7.425 -0.6530  1.7424 -2.4712
   79SLPC  H10Y 7317   2.270   1.828   7.492  0.6213 -0.0526  1.0422
   79SLPC  C311 7318   2.349   1.636   7.550 -0.6297 -0.8843  0.2172
   79SLPC  H11X 7319   2.453   1.673   7.565  0.1754 -2.0241 -2.0719
   79SLPC  H11Y 7320   2.343   1.530   7.519 -0.8179 -0.7137 -0.3488
   79SLPC  C312 7321   2.272   1.667   7.679 -0.9891 -0.1702  0.3372
   79SLPC  H12X 7322   2.168   1.628   7.676 -0.7442 -0.8405  0.3842
   79SLPC  H12Y 7323   2.273   1.773   7.714  0.1172 -0.3115  0.7894
   79SLPC  C313 7324   2.353   1.594   7.790  0.9324  0.2039  0.4892
   79SLPC  H13X 7325   2.454   1.640   7.789  1.5182 -0.9346 -1.9785
   79SLPC  H13Y 7326   2.359   1.491   7.748 -0.0949 -0.1730  1.2203
   79SLPC  C314 7327   2.288   1.611   7.929 -0.5603  0.2276 -0.1733
   79SLPC  H14X 7328   2.177   1.602   7.924 -0.5571  0.5837 -1.0932
   79SLPC  H14Y 7329   2.314   1.711   7.970  2.4389 -1.0482  1.2802
   79SLPC  C315 7330   2.354   1.515   8.026  0.1683  0.1892 -0.0361
   79SLPC  H15X 7331   2.461   1.539   8.040 -0.0708  0.4523  1.5053
   79SLPC  H15Y 7332   2.360   1.413   7.981  0.4048 -0.5766  1.6782
   79SLPC  C316 7333   2.293   1.501   8.165 -0.3618  0.0154 -0.1721
   79SLPC  H16X 7334   2.341   1.422   8.226  0.7433 -0.9015 -2.1327
   79SLPC  H16Y 7335   2.190   1.462   8.149 -1.8492  3.2249  0.7584
   79SLPC  C317 7336   2.273   1.630   8.241 -0.0628  0.0444 -0.3607
   79SLPC  H17X 7337   2.183   1.685   8.205 -0.1861 -0.7401 -1.3156
   79SLPC  H17Y 7338   2.364   1.691   8.225  0.2408 -0.1341  0.6216
   79SLPC  C318 7339   2.235   1.595   8.376 -0.0252  0.1173 -0.2953
   79SLPC  H18X 7340   2.312   1.552   8.444 -0.6102 -1.7950 -0.7835
   79SLPC  H18Y 7341   2.159   1.514   8.377 -1.4356  1.3962 -0.7358
   79SLPC  H18Z 7342   2.188   1.678   8.432  0.5214 -0.3768  0.9271
   80SLPC     N 7343   6.653   5.253   6.052 -0.3138  0.4920  0.0696
   80SLPC   C13 7344   6.656   5.281   5.910  0.0658  0.3703 -0.4101
   80SLPC  H13A 7345   6.717   5.363   5.877  2.4019 -0.1921  2.1816
   80SLPC  H13B 7346   6.701   5.201   5.853  1.4859 -0.5165  1.8108
   80SLPC  H13C 7347   6.557   5.287   5.867 -0.3446 -0.4290  0.3846
   80SLPC   C14 7348   6.806   5.231   6.084  0.0756 -0.4157  0.0695
   80SLPC  H14A 7349   6.837   5.149   6.021  2.2110 -0.1113  0.6535
   80SLPC  H14B 7350   6.866   5.318   6.062 -0.9922  1.0816  2.5780
   80SLPC  H14C 7351   6.821   5.196   6.185  0.0131  0.0113  0.2312
   80SLPC   C15 7352   6.576   5.131   6.079 -0.0382  0.5851  0.8040
   80SLPC  H15A 7353   6.611   5.045   6.023  0.1306  1.5086 -0.5433
   80SLPC  H15B 7354   6.593   5.103   6.182 -1.1020 -4.6771 -0.1596
   80SLPC  H15C 7355   6.474   5.145   6.046  0.3570 -1.2416 -1.4913
   80SLPC   C12 7356   6.606   5.361   6.132 -0.7614 -0.1568  0.3852
   80SLPC  H12A 7357   6.505   5.377   6.097 -0.3266  2.8209  0.1723
   80SLPC  H12B 7358   6.653   5.455   6.107 -1.2149  0.1692  0.7286
   80SLPC   C11 7359   6.618   5.348   6.287 -0.6818 -0.2594 -0.3565
   80SLPC  H11A 7360   6.586   5.433   6.351  1.7279 -0.3588  1.1226
   80SLPC  H11B 7361   6.727   5.352   6.306 -0.0157 -2.3967 -3.1311
   80SLPC     P 7362   6.426   5.212   6.402  0.0354 -0.2145 -0.2782
   80SLPC   O13 7363   6.317   5.233   6.301 -0.0064  0.0738 -0.1882
   80SLPC   O14 7364   6.424   5.089   6.483 -1.0743  0.1158 -0.0412
   80SLPC   O12 7365   6.571   5.222   6.337  0.3671 -0.0630  0.0647
   80SLPC   O11 7366   6.426   5.333   6.507  0.8478 -0.1219  0.1367
   80SLPC    C1 7367   6.422   5.310   6.645 -0.0712  0.2720  0.3640
   80SLPC    HA 7368   6.486   5.223   6.672 -0.2565 -0.0856 -0.3372
   80SLPC    HB 7369   6.446   5.408   6.693 -1.0840  0.0780  1.3116
   80SLPC    C2 7370   6.282   5.263   6.716  0.0183 -0.0589  0.7572
   80SLPC    HS 7371   6.263   5.165   6.667 -1.4547  0.7141 -0.2705
   80SLPC   O21 7372   6.178   5.358   6.680 -0.4833  0.2942  0.4023
   80SLPC   C21 7373   6.047   5.314   6.674 -0.7349  0.6063 -0.0165
   80SLPC   O22 7374   6.020   5.195   6.681  0.5481 -0.4517 -0.3988
   80SLPC   C22 7375   5.944   5.431   6.683 -0.5475  0.1294 -0.8129
   80SLPC   H2R 7376   6.007   5.523   6.689 -1.5607  0.8441 -0.9966
   80SLPC   H2S 7377   5.875   5.429   6.597 -0.2413  1.9476 -1.1349
   80SLPC    C3 7378   6.284   5.224   6.866 -0.7429  0.8384  0.0254
   80SLPC    HX 7379   6.187   5.174   6.886  0.0471 -0.4970  0.6517
   80SLPC    HY 7380   6.293   5.315   6.929 -0.5034  1.6526 -1.1490
   80SLPC   O31 7381   6.396   5.140   6.894 -0.2585 -0.1105  0.2081
   80SLPC   C31 7382   6.378   5.003   6.884 -0.0291 -0.2009  0.9195
   80SLPC   O32 7383   6.287   4.954   6.822  0.9052 -0.4859  0.2061
   80SLPC   C32 7384   6.489   4.927   6.953 -0.4854  0.7036  0.8739
   80SLPC   H2X 7385   6.581   4.990   6.959 -1.8333  2.8537  0.0167
   80SLPC   H2Y 7386   6.516   4.845   6.883  0.9492  0.8919  1.1666
   80SLPC   C23 7387   5.853   5.434   6.807 -0.6680 -1.3562  0.1859
   80SLPC   H3R 7388   5.909   5.435   6.903  1.9050 -0.7219 -1.2543
   80SLPC   H3S 7389   5.787   5.344   6.803 -0.6923 -1.2967 -1.2925
   80SLPC   C24 7390   5.756   5.552   6.822 -0.2269 -0.4359 -0.0153
   80SLPC   H4R 7391   5.680   5.542   6.741 -0.1508 -0.8612 -0.0358
   80SLPC   H4S 7392   5.805   5.648   6.795 -2.2861  1.3927  2.2874
   80SLPC   C25 7393   5.694   5.570   6.968  0.6745  0.1938  0.1519
   80SLPC   H5R 7394   5.639   5.666   6.957  0.1887  0.0342  1.0845
   80SLPC   H5S 7395   5.778   5.596   7.036 -0.6216 -0.1801  1.9837
   80SLPC   C26 7396   5.588   5.464   7.012 -0.0036  0.3056 -0.1958
   80SLPC   H6R 7397   5.632   5.364   6.991  1.9520  1.1730 -0.4994
   80SLPC   H6S 7398   5.505   5.480   6.941 -0.5418 -0.0834  0.3413
   80SLPC   C27 7399   5.544   5.472   7.157  0.2915  0.7130  0.4379
   80SLPC   H7R 7400   5.438   5.441   7.164  0.2200  1.1614  1.4112
   80SLPC   H7S 7401   5.551   5.579   7.187 -2.0694  0.3311  2.6632
   80SLPC   C28 7402   5.631   5.404   7.266 -0.4348  0.6129 -0.0604
   80SLPC   H8R 7403   5.741   5.417   7.255 -0.0854 -1.5745  0.3701
   80SLPC   H8S 7404   5.626   5.293   7.257  0.7438  0.3780  1.6789
   80SLPC   C29 7405   5.572   5.438   7.405 -0.9515  0.7077 -0.1404
   80SLPC   H9R 7406   5.467   5.419   7.431 -0.2932 -0.3588  1.9039
   80SLPC  C210 7407   5.648   5.490   7.505 -0.0822  0.4634 -0.1120
   80SLPC  H10R 7408   5.598   5.532   7.594 -0.1393  0.1388  0.0099
   80SLPC  C211 7409   5.796   5.529   7.500  0.4902  1.4632  0.1655
   80SLPC  H11R 7410   5.810   5.613   7.572  0.8051  0.5869  1.1497
   80SLPC  H11S 7411   5.832   5.558   7.398  1.5880 -1.5463 -0.3947
   80SLPC  C212 7412   5.884   5.420   7.541 -0.4688 -0.1419  0.0802
   80SLPC  H12R 7413   5.940   5.383   7.453 -0.9937  1.3202 -0.8893
   80SLPC  C213 7414   5.898   5.372   7.667 -0.0224 -0.5273  0.2373
   80SLPC  H13R 7415   5.965   5.286   7.684  0.5488  0.1703  1.6962
   80SLPC  C214 7416   5.825   5.426   7.788 -0.5416  0.0751 -0.0130
   80SLPC  H14R 7417   5.726   5.379   7.807  0.1959 -1.9308 -0.8294
   80SLPC  H14S 7418   5.808   5.533   7.764  2.7098  0.6988  0.0992
   80SLPC  C215 7419   5.903   5.413   7.916 -0.2139 -0.4982 -0.3206
   80SLPC  H15R 7420   6.008   5.443   7.899 -0.6167  1.0247 -0.3309
   80SLPC  H15S 7421   5.890   5.309   7.951 -1.5150 -0.5229 -0.8164
   80SLPC  C216 7422   5.857   5.501   8.036  0.0022 -0.4163 -0.2109
   80SLPC  H16R 7423   5.747   5.498   8.054 -0.0358 -1.2424 -0.5453
   80SLPC  H16S 7424   5.874   5.608   8.010 -0.3560 -0.2506  0.2236
   80SLPC  C217 7425   5.928   5.456   8.166 -0.0719 -0.7798 -0.0379
   80SLPC  H17R 7426   6.038   5.451   8.148 -0.0600  0.8579 -0.6059
   80SLPC  H17S 7427   5.897   5.353   8.193 -0.1686 -0.2409  2.0701
   80SLPC  C218 7428   5.907   5.558   8.267  0.2709 -0.5567  0.5475
   80SLPC  H18R 7429   5.927   5.528   8.372 -1.0437 -0.2199  0.9090
   80SLPC  H18S 7430   5.803   5.596   8.273  0.1150 -0.8845  0.0299
   80SLPC  H18T 7431   5.967   5.648   8.242  0.3421 -0.9450 -0.7682
   80SLPC   C33 7432   6.462   4.854   7.085  0.2917 -0.0657 -0.8345
   80SLPC   H3X 7433   6.454   4.925   7.169  1.1896  0.2843 -1.0394
   80SLPC   H3Y 7434   6.558   4.803   7.108  0.8979  1.8207  1.1384
   80SLPC   C34 7435   6.343   4.759   7.083  0.1823  0.1851  0.6058
   80SLPC   H4X 7436   6.357   4.692   6.995 -0.4806  1.4321 -0.4846
   80SLPC   H4Y 7437   6.257   4.827   7.067  1.2713  1.3860 -0.3905
   80SLPC   C35 7438   6.331   4.661   7.204 -0.4044  0.1901 -0.3261
   80SLPC   H5X 7439   6.397   4.572   7.195 -0.4690  0.2411 -1.4368
   80SLPC   H5Y 7440   6.228   4.620   7.213  0.1716 -1.0912  0.8682
   80SLPC   C36 7441   6.366   4.727   7.334 -0.0503  0.0707  0.2623
   80SLPC   H6X 7442   6.321   4.827   7.349 -1.7005 -0.6106  0.0554
   80SLPC   H6Y 7443   6.477   4.737   7.335  0.0266  0.2254 -2.0661
   80SLPC   C37 7444   6.316   4.644   7.453  0.2211 -0.1619  0.3777
   80SLPC   H7X 7445   6.363   4.543   7.451 -0.4285 -0.4915  1.2856
   80SLPC   H7Y 7446   6.205   4.639   7.446  0.1960 -0.4393  0.9258
   80SLPC   C38 7447   6.357   4.716   7.581  0.5024  0.0677  0.3925
   80SLPC   H8X 7448   6.293   4.682   7.665 -2.3482  1.3220 -1.1250
   80SLPC   H8Y 7449   6.324   4.820   7.562 -1.8331 -0.6362  0.2907
   80SLPC   C39 7450   6.505   4.711   7.619  0.7427 -0.3159  0.7182
   80SLPC   H9X 7451   6.577   4.734   7.537 -1.6300  2.1766 -0.8560
   80SLPC   H9Y 7452   6.526   4.606   7.646  1.1467  0.0232  1.7758
   80SLPC  C310 7453   6.541   4.795   7.740 -0.0082 -0.5407 -0.3721
   80SLPC  H10X 7454   6.504   4.899   7.726 -2.2481 -0.8608  2.3715
   80SLPC  H10Y 7455   6.652   4.796   7.748  0.1069  1.2789 -1.6498
   80SLPC  C311 7456   6.472   4.736   7.868 -0.0456  0.8778  0.5866
   80SLPC  H11X 7457   6.512   4.637   7.897  0.2307  1.1988  1.3492
   80SLPC  H11Y 7458   6.362   4.722   7.856  0.2013 -0.4889 -0.2801
   80SLPC  C312 7459   6.484   4.832   7.991 -0.4152 -0.3025  0.0333
   80SLPC  H12X 7460   6.418   4.800   8.074 -0.1419 -0.4492  0.1969
   80SLPC  H12Y 7461   6.444   4.930   7.957  1.7374  0.6604  0.1158
   80SLPC  C313 7462   6.624   4.854   8.046 -0.1704 -0.5683  0.4604
   80SLPC  H13X 7463   6.677   4.918   7.972 -0.0919  0.3542  1.2966
   80SLPC  H13Y 7464   6.686   4.762   8.044 -0.1576 -0.5547 -0.0406
   80SLPC  C314 7465   6.623   4.927   8.182  0.2455  0.7100 -0.4631
   80SLPC  H14X 7466   6.618   4.845   8.257  1.1940 -1.5090 -2.6658
   80SLPC  H14Y 7467   6.539   4.997   8.204 -1.5766 -1.8549  1.3117
   80SLPC  C315 7468   6.753   5.009   8.210 -0.1348 -0.8968 -0.7583
   80SLPC  H15X 7469   6.763   5.076   8.122  0.8313 -0.8340 -0.6108
   80SLPC  H15Y 7470   6.836   4.936   8.221 -0.2704 -0.8674  0.6236
   80SLPC  C316 7471   6.755   5.100   8.338 -0.6892  0.7545  0.2175
   80SLPC  H16X 7472   6.665   5.166   8.345 -0.2653  1.2072  1.8551
   80SLPC  H16Y 7473   6.847   5.162   8.337 -1.5742  2.1288  0.5963
   80SLPC  C317 7474   6.755   5.017   8.467  0.3908  0.6623 -0.4527
   80SLPC  H17X 7475   6.831   4.938   8.452  0.7063  0.5615  1.4857
   80SLPC  H17Y 7476   6.656   4.968   8.479  0.6177  0.3623  0.2011
   80SLPC  C318 7477   6.800   5.093   8.590  0.5298 -0.0721  0.4131
   80SLPC  H18X 7478   6.732   5.181   8.593  1.6559  0.8276  0.2651
   80SLPC  H18Y 7479   6.904   5.131   8.584  0.2315  1.0160  1.6898
   80SLPC  H18Z 7480   6.787   5.033   8.682 -2.3116 -0.4856 -0.1407
   81SAPS     N 7481   2.144   1.322  10.811 -0.1641 -0.5699 -0.2856
   81SAPS   HN1 7482   2.122   1.224  10.840  1.1719 -1.4145 -1.9919
   81SAPS   HN2 7483   2.129   1.347  10.711  0.0182  0.2922 -0.1020
   81SAPS   HN3 7484   2.245   1.335  10.833 -0.5554  0.6069  0.9469
   81SAPS   C12 7485   2.048   1.397  10.902 -0.3043 -0.5971 -0.1616
   81SAPS  H12A 7486   1.947   1.376  10.870 -0.8135  0.3338  0.7696
   81SAPS   C13 7487   2.046   1.338  11.041  0.4861  0.1389  0.6211
   81SAPS  O13A 7488   2.142   1.280  11.093 -0.1772  0.1370  0.5822
   81SAPS  O13B 7489   1.944   1.355  11.114  0.1809 -0.5028 -0.5176
   81SAPS   C11 7490   2.087   1.549  10.907  0.5700  0.1083  0.2644
   81SAPS  H11A 7491   2.115   1.591  10.808  1.5474  3.1061  1.6724
   81SAPS  H11B 7492   2.174   1.567  10.975  1.7041  3.3779 -1.8038
   81SAPS     P 7493   1.969   1.770  10.937  0.0090 -0.0158 -0.2675
   81SAPS   O13 7494   1.843   1.829  10.991  0.3793  0.6882 -0.0297
   81SAPS   O14 7495   2.092   1.828  10.986 -0.1727  0.1836  0.1495
   81SAPS   O12 7496   1.965   1.613  10.958 -0.1043  0.5677  0.3598
   81SAPS   O11 7497   1.976   1.798  10.776  0.8642  0.1548 -0.4514
   81SAPS    C1 7498   1.893   1.726  10.682  0.3562  0.4129 -0.0645
   81SAPS    HA 7499   1.927   1.622  10.660 -1.8008  0.0617 -2.1782
   81SAPS    HB 7500   1.788   1.717  10.714 -0.0581  1.8476 -0.9164
   81SAPS    C2 7501   1.878   1.814  10.552  0.6669 -0.2618 -0.0852
   81SAPS    HS 7502   1.824   1.749  10.481 -1.9319  0.0989  1.4393
   81SAPS   O21 7503   1.997   1.864  10.494 -0.6632  0.1933 -0.1649
   81SAPS   C21 7504   2.082   1.766  10.452 -0.2229 -0.4654  0.5248
   81SAPS   O22 7505   2.060   1.647  10.458 -0.2371 -0.2033  0.2562
   81SAPS   C22 7506   2.197   1.830  10.368 -0.1062  0.1371 -1.1242
   81SAPS   H2R 7507   2.169   1.934  10.339 -5.0266 -0.1065  1.6028
   81SAPS   H2S 7508   2.285   1.833  10.435  0.1262  1.5531 -1.4450
   81SAPS    C3 7509   1.776   1.929  10.578  0.2261 -0.4052  0.1154
   81SAPS    HX 7510   1.820   2.007  10.645  0.5233  0.4224 -1.0205
   81SAPS    HY 7511   1.697   1.882  10.641 -0.5620 -1.0157 -1.2810
   81SAPS   O31 7512   1.703   1.975  10.468  0.2123 -0.6088  0.2100
   81SAPS   C31 7513   1.766   2.088  10.411  0.4268  0.6862  0.4958
   81SAPS   O32 7514   1.860   2.149  10.449  0.2581  0.6639  0.0473
   81SAPS   C32 7515   1.681   2.129  10.291  0.1321 -0.6762  0.2983
   81SAPS   H2X 7516   1.614   2.216  10.308 -0.8021 -1.3288 -0.0115
   81SAPS   H2Y 7517   1.619   2.045  10.254  0.1409  0.1406 -1.6780
   81SAPS   C23 7518   2.236   1.736  10.256  0.0153 -0.0994  0.3350
   81SAPS   H3R 7519   2.274   1.636  10.287 -0.7356 -0.2618  0.7395
   81SAPS   H3S 7520   2.329   1.781  10.216  0.3700 -1.5217 -0.5328
   81SAPS   C24 7521   2.133   1.722  10.138  0.6243  0.3733 -0.0925
   81SAPS   H4R 7522   2.042   1.682  10.187  1.3820  0.4071  1.4300
   81SAPS   H4S 7523   2.166   1.649  10.061 -1.6420  0.3977 -1.1414
   81SAPS   C25 7524   2.097   1.851  10.080  0.8561  0.6663  0.3599
   81SAPS   H5R 7525   2.059   1.924  10.153  1.5707 -0.3396  1.7748
   81SAPS   C26 7526   2.124   1.898   9.953  0.4469 -0.2674 -0.1767
   81SAPS   H6R 7527   2.068   1.988   9.923 -1.4590 -1.3892 -0.1702
   81SAPS   C27 7528   2.195   1.822   9.846 -0.1685  0.9056  0.9226
   81SAPS   H7R 7529   2.178   1.868   9.746 -3.2141  3.3394  2.3701
   81SAPS   H7S 7530   2.163   1.716   9.841  0.9540  0.6107 -2.7214
   81SAPS   C28 7531   2.350   1.818   9.868  0.7844 -0.0543 -0.7548
   81SAPS   H8R 7532   2.378   1.877   9.956 -0.1252 -2.2335  1.1031
   81SAPS   C29 7533   2.438   1.764   9.783 -0.9257 -0.2713 -0.0155
   81SAPS   H9R 7534   2.545   1.775   9.808 -1.0516  2.2165 -0.3040
   81SAPS  C210 7535   2.399   1.690   9.659  0.0970 -0.4331 -0.8444
   81SAPS  H10R 7536   2.300   1.638   9.663  1.4274 -3.0448  0.5773
   81SAPS  H10S 7537   2.468   1.605   9.639  1.3148  0.0626  1.0281
   81SAPS  C211 7538   2.435   1.788   9.546  0.0871  0.4211  0.6262
   81SAPS  H11R 7539   2.543   1.805   9.535  0.2773 -1.3631 -0.7787
   81SAPS  C212 7540   2.354   1.842   9.453 -0.2728 -0.7611 -0.2415
   81SAPS  H12R 7541   2.393   1.908   9.374 -2.4876 -0.0115 -0.7811
   81SAPS  C213 7542   2.207   1.823   9.442 -0.2222 -0.2460  0.5696
   81SAPS  H13R 7543   2.160   1.839   9.542 -2.2684  0.9574 -0.5165
   81SAPS  H13S 7544   2.206   1.718   9.407  0.0096  0.3168 -1.2133
   81SAPS  C214 7545   2.162   1.918   9.339 -0.5304  0.9787 -0.4881
   81SAPS  H14R 7546   2.134   2.014   9.384 -1.1907 -0.1070  1.5488
   81SAPS  C215 7547   2.150   1.906   9.206 -0.0562 -0.1185  0.3027
   81SAPS  H15R 7548   2.103   1.984   9.145  0.3361 -1.5695 -1.9747
   81SAPS  C216 7549   2.166   1.776   9.128  0.4818  0.0507 -0.9457
   81SAPS  H16R 7550   2.111   1.793   9.033 -1.5732  1.1948  0.3804
   81SAPS  H16S 7551   2.111   1.701   9.189  0.9080  0.5856  0.1323
   81SAPS  C217 7552   2.310   1.724   9.103 -0.1579 -0.7584  0.3275
   81SAPS  H17R 7553   2.387   1.764   9.172  2.0265  2.4322 -3.5778
   81SAPS  H17S 7554   2.334   1.760   9.001 -0.1401 -2.1385 -0.1901
   81SAPS  C218 7555   2.319   1.572   9.098 -0.1768 -0.0424  0.5212
   81SAPS  H18R 7556   2.406   1.534   9.041 -0.4304 -0.3135  0.3094
   81SAPS  H18S 7557   2.231   1.543   9.037 -1.6430 -2.9525  3.6841
   81SAPS  C219 7558   2.329   1.512   9.243 -0.0709  0.7353  0.4393
   81SAPS  H19R 7559   2.233   1.538   9.294 -0.8943  0.5881 -0.9720
   81SAPS  H19S 7560   2.414   1.554   9.301 -0.6475  2.2001  0.2792
   81SAPS  C220 7561   2.340   1.360   9.241 -0.3515 -0.4379  0.7828
   81SAPS  H20R 7562   2.329   1.326   9.346 -0.6099 -1.2633  0.5014
   81SAPS  H20S 7563   2.439   1.317   9.216 -0.5398 -1.3278  1.5120
   81SAPS  H20T 7564   2.262   1.302   9.186 -0.3202 -0.4202  0.7193
   81SAPS   C33 7565   1.783   2.153  10.183 -0.4183 -0.6837  0.2635
   81SAPS   H3X 7566   1.848   2.067  10.158 -2.6588 -2.6978  0.9727
   81SAPS   H3Y 7567   1.850   2.238  10.209  0.2722 -1.3663  0.7430
   81SAPS   C34 7568   1.715   2.191  10.059  0.6719 -0.6165 -0.4656
   81SAPS   H4X 7569   1.642   2.273  10.076  0.0414 -0.9479 -1.4797
   81SAPS   H4Y 7570   1.658   2.102  10.024  1.3143 -0.4597 -1.9711
   81SAPS   C35 7571   1.805   2.251   9.953 -0.3254 -0.0753 -0.2156
   81SAPS   H5X 7572   1.886   2.175   9.948 -1.8119 -1.7464 -0.0108
   81SAPS   H5Y 7573   1.854   2.335  10.006 -2.4725 -0.0967  2.0207
   81SAPS   C36 7574   1.756   2.272   9.818  0.1012 -0.2992 -0.2185
   81SAPS   H6X 7575   1.663   2.332   9.806 -0.8618 -1.7809 -0.4868
   81SAPS   H6Y 7576   1.735   2.178   9.762 -3.2963  0.8604 -1.1834
   81SAPS   C37 7577   1.862   2.335   9.726  0.1613 -0.9969  0.0631
   81SAPS   H7X 7578   1.942   2.261   9.705  0.4508 -0.2536 -1.5904
   81SAPS   H7Y 7579   1.910   2.412   9.790 -1.4450 -1.8883  2.5214
   81SAPS   C38 7580   1.816   2.364   9.582  0.2203 -0.6843 -0.0364
   81SAPS   H8X 7581   1.742   2.447   9.579  1.1910  0.1903 -1.7369
   81SAPS   H8Y 7582   1.776   2.267   9.545  0.4440 -1.0030  0.5568
   81SAPS   C39 7583   1.927   2.415   9.491  0.6308  0.2122 -0.0472
   81SAPS   H9X 7584   1.992   2.473   9.559  1.1127 -0.6876  0.2695
   81SAPS   H9Y 7585   1.879   2.474   9.410 -1.3913  1.9904  2.2784
   81SAPS  C310 7586   2.001   2.310   9.414 -0.0400  0.5144  0.1174
   81SAPS  H10X 7587   1.920   2.250   9.367 -0.5767  1.3083  0.0139
   81SAPS  H10Y 7588   2.066   2.245   9.477  1.4839  0.1727 -1.6950
   81SAPS  C311 7589   2.093   2.370   9.313  0.1341  0.1114 -0.0549
   81SAPS  H11X 7590   2.161   2.435   9.371  1.4870  1.7371 -3.2279
   81SAPS  H11Y 7591   2.037   2.437   9.244 -1.7015 -1.0089  0.2789
   81SAPS  C312 7592   2.165   2.280   9.207  0.0200 -0.0238  0.6436
   81SAPS  H12X 7593   2.090   2.210   9.165 -0.6484  0.7424  0.5466
   81SAPS  H12Y 7594   2.230   2.223   9.276 -0.5403  0.6979  1.8032
   81SAPS  C313 7595   2.248   2.344   9.090 -0.1948 -0.4076 -0.1640
   81SAPS  H13X 7596   2.325   2.274   9.049 -0.0942 -0.7898  0.6668
   81SAPS  H13Y 7597   2.307   2.430   9.129 -2.9632  0.1637  3.2665
   81SAPS  C314 7598   2.155   2.371   8.971 -0.1461  0.9211 -0.5028
   81SAPS  H14X 7599   2.093   2.461   8.995  1.1691  1.5112  0.9171
   81SAPS  H14Y 7600   2.084   2.286   8.967 -1.5540  1.9940  0.4921
   81SAPS  C315 7601   2.222   2.411   8.845  0.0064  0.4847  0.1234
   81SAPS  H15X 7602   2.300   2.337   8.816 -2.1209 -1.3032 -1.3735
   81SAPS  H15Y 7603   2.275   2.507   8.860 -0.5010  1.1769 -2.2418
   81SAPS  C316 7604   2.118   2.435   8.732  0.6634  0.2600  0.0551
   81SAPS  H16X 7605   2.173   2.476   8.645 -1.7379  1.1907 -1.1375
   81SAPS  H16Y 7606   2.050   2.517   8.765  0.2925 -0.3104  0.7306
   81SAPS  C317 7607   2.031   2.313   8.688 -0.2228  0.9319 -0.5183
   81SAPS  H17X 7608   1.979   2.272   8.777  1.8483 -0.4035  0.1511
   81SAPS  H17Y 7609   2.100   2.238   8.645  2.5734  3.4033 -0.5855
   81SAPS  C318 7610   1.930   2.346   8.582  0.6305 -0.6256  0.3661
   81SAPS  H18X 7611   1.963   2.346   8.476  2.7334  0.0333  0.9793
   81SAPS  H18Y 7612   1.875   2.438   8.610  0.0980 -0.5549 -0.8538
   81SAPS  H18Z 7613   1.854   2.265   8.574 -1.0695  0.7695  1.5027
   82SAPS     N 7614   0.980   0.935  10.675 -0.4357 -0.1385 -0.0651
   82SAPS   HN1 7615   1.007   1.034  10.656 -0.6336 -0.3743 -1.6719
   82SAPS   HN2 7616   0.984   0.868  10.595  1.5163 -0.2407  0.0753
   82SAPS   HN3 7617   0.879   0.939  10.700 -0.7823 -0.9676 -1.2613
   82SAPS   C12 7618   1.060   0.880  10.793 -0.4631 -0.3574 -0.2731
   82SAPS  H12A 7619   1.019   0.919  10.885  0.2630 -1.7299  0.6618
   82SAPS   C13 7620   1.054   0.728  10.800 -0.6956  0.2479 -0.3280
   82SAPS  O13A 7621   1.000   0.666  10.708 -0.1441 -0.5108 -0.6248
   82SAPS  O13B 7622   1.071   0.673  10.911  0.0469  0.1887 -0.0034
   82SAPS   C11 7623   1.211   0.917  10.779 -0.0592 -0.0143 -0.3068
   82SAPS  H11A 7624   1.261   0.901  10.681  1.4878 -0.1367  0.4721
   82SAPS  H11B 7625   1.272   0.858  10.850 -0.7639 -0.3374  0.0430
   82SAPS     P 7626   1.271   1.116  10.954 -0.1217  0.1312 -0.2514
   82SAPS   O13 7627   1.196   1.239  10.984 -0.2945  0.4083  0.1849
   82SAPS   O14 7628   1.263   1.001  11.046 -0.5263 -0.5441 -0.2523
   82SAPS   O12 7629   1.232   1.053  10.811 -0.1362 -1.2668  0.1277
   82SAPS   O11 7630   1.417   1.153  10.933  0.1823 -0.2462  0.1465
   82SAPS    C1 7631   1.519   1.067  10.867  0.7699  0.7581  0.0499
   82SAPS    HA 7632   1.606   1.056  10.935  0.0266 -0.4013  0.8511
   82SAPS    HB 7633   1.487   0.961  10.859  1.2350  0.4972  1.4161
   82SAPS    C2 7634   1.570   1.141  10.737 -0.2371 -0.0292  0.3088
   82SAPS    HS 7635   1.579   1.248  10.762  3.2916 -0.2485  0.4151
   82SAPS   O21 7636   1.487   1.113  10.622 -0.2295  0.1959  0.0834
   82SAPS   C21 7637   1.420   1.218  10.583  0.4018 -0.2141 -0.5064
   82SAPS   O22 7638   1.413   1.325  10.634 -0.0814 -0.5662 -0.3390
   82SAPS   C22 7639   1.358   1.175  10.441  0.4301  0.0163 -0.4793
   82SAPS   H2R 7640   1.440   1.131  10.380  1.8760  2.1585 -0.1775
   82SAPS   H2S 7641   1.284   1.095  10.462 -0.1440  0.4903 -0.6776
   82SAPS    C3 7642   1.710   1.090  10.696  0.2786 -0.3168  0.2766
   82SAPS    HX 7643   1.706   0.980  10.679 -1.0757  0.0764 -2.4940
   82SAPS    HY 7644   1.776   1.111  10.783 -0.8722  0.2680  1.0335
   82SAPS   O31 7645   1.759   1.150  10.571  0.9231 -0.8610  0.4273
   82SAPS   C31 7646   1.767   1.284  10.574 -0.1411  0.5009  0.1921
   82SAPS   O32 7647   1.762   1.358  10.673  0.0846 -0.1649  0.7452
   82SAPS   C32 7648   1.811   1.334  10.433  0.2489 -0.5924 -0.6962
   82SAPS   H2X 7649   1.772   1.255  10.365  2.5155 -2.7407  0.3668
   82SAPS   H2Y 7650   1.922   1.340  10.435  0.1815  2.1403  0.0601
   82SAPS   C23 7651   1.276   1.277  10.361  0.0300 -0.0876  0.6054
   82SAPS   H3R 7652   1.185   1.308  10.416 -0.7290  2.6152 -1.8898
   82SAPS   H3S 7653   1.237   1.238  10.265  1.3309 -0.5005  0.2207
   82SAPS   C24 7654   1.368   1.387  10.315  0.3492 -0.0156 -0.0178
   82SAPS   H4R 7655   1.457   1.334  10.275  0.3101  1.2140 -1.8805
   82SAPS   H4S 7656   1.403   1.445  10.403 -2.1357  1.0560  0.3410
   82SAPS   C25 7657   1.315   1.481  10.209 -0.4494  1.3240  0.6918
   82SAPS   H5R 7658   1.264   1.571  10.244 -2.2729  0.9438 -0.7943
   82SAPS   C26 7659   1.313   1.462  10.074  0.2604  0.3635 -0.7534
   82SAPS   H6R 7660   1.284   1.550  10.015  3.7094  1.8399 -0.4564
   82SAPS   C27 7661   1.365   1.345   9.989  0.8754 -0.7464  0.3949
   82SAPS   H7R 7662   1.308   1.331   9.895  1.8833  2.6608 -0.8851
   82SAPS   H7S 7663   1.366   1.246  10.040  0.5716 -1.7556 -1.4851
   82SAPS   C28 7664   1.511   1.352   9.966  0.2858 -0.2267  0.8424
   82SAPS   H8R 7665   1.583   1.352  10.049  0.6060  2.6640  0.6799
   82SAPS   C29 7666   1.560   1.368   9.841 -0.3471  1.4057  0.5240
   82SAPS   H9R 7667   1.669   1.384   9.845 -0.0314 -0.3479 -0.0541
   82SAPS  C210 7668   1.485   1.378   9.707  0.1069  0.3278 -0.6055
   82SAPS  H10R 7669   1.422   1.469   9.697  1.5854  1.3034 -1.4511
   82SAPS  H10S 7670   1.414   1.293   9.701 -0.0684  0.5926 -3.0339
   82SAPS  C211 7671   1.573   1.366   9.585  0.3212 -0.1333 -0.6474
   82SAPS  H11R 7672   1.680   1.371   9.608  0.3549 -0.2001 -0.7904
   82SAPS  C212 7673   1.532   1.338   9.456 -0.5212 -0.6590  0.0897
   82SAPS  H12R 7674   1.614   1.338   9.383 -0.0537  0.3266  0.5945
   82SAPS  C213 7675   1.385   1.314   9.412 -0.2997  0.6127 -0.4052
   82SAPS  H13R 7676   1.315   1.312   9.498 -0.3061  2.4001 -0.3383
   82SAPS  H13S 7677   1.371   1.215   9.363  0.7687 -0.0374  0.5591
   82SAPS  C214 7678   1.336   1.424   9.320 -0.2429  0.2444  0.7683
   82SAPS  H14R 7679   1.275   1.498   9.374  1.5460  0.6665  2.3284
   82SAPS  C215 7680   1.367   1.450   9.188 -0.1170  0.5383  0.3602
   82SAPS  H15R 7681   1.332   1.541   9.137 -2.3086 -0.3442  0.1969
   82SAPS  C216 7682   1.468   1.373   9.109 -0.0340  0.3739 -0.1486
   82SAPS  H16R 7683   1.516   1.289   9.163  2.6850  0.6852 -1.8805
   82SAPS  H16S 7684   1.552   1.438   9.077  0.9568 -0.2406  1.1002
   82SAPS  C217 7685   1.395   1.327   8.982  0.4903  0.0368  0.4257
   82SAPS  H17R 7686   1.316   1.255   9.013 -0.3103 -0.7517 -2.9683
   82SAPS  H17S 7687   1.462   1.261   8.922  0.7736  1.2052 -0.5957
   82SAPS  C218 7688   1.341   1.437   8.892  0.0015 -0.4895  0.0936
   82SAPS  H18R 7689   1.423   1.487   8.836 -1.5589  1.9324 -0.1722
   82SAPS  H18S 7690   1.275   1.506   8.948 -1.5191 -0.0100 -2.1569
   82SAPS  C219 7691   1.251   1.391   8.778  0.4652 -1.0181  0.1360
   82SAPS  H19R 7692   1.159   1.348   8.824 -0.4035 -0.5178 -1.0818
   82SAPS  H19S 7693   1.313   1.322   8.717 -0.0360 -1.8896  0.5951
   82SAPS  C220 7694   1.206   1.503   8.687 -0.2242  0.2074  0.5225
   82SAPS  H20R 7695   1.127   1.468   8.617 -0.0816  2.1648 -0.7040
   82SAPS  H20S 7696   1.291   1.534   8.621 -0.9640 -1.5791 -1.3829
   82SAPS  H20T 7697   1.164   1.590   8.741  0.4379  0.8116  0.0850
   82SAPS   C33 7698   1.749   1.474  10.405  0.0443 -0.3720  0.0037
   82SAPS   H3X 7699   1.798   1.540  10.480 -0.5345 -1.0523  0.9996
   82SAPS   H3Y 7700   1.641   1.477  10.432  0.0102 -2.6760  0.3303
   82SAPS   C34 7701   1.775   1.511  10.262 -0.2578  0.6176 -1.0013
   82SAPS   H4X 7702   1.756   1.418  10.204  0.9063  0.0521 -0.5183
   82SAPS   H4Y 7703   1.882   1.538  10.249 -0.3589  1.1957 -0.6518
   82SAPS   C35 7704   1.687   1.622  10.203  0.2021  0.0843 -0.0727
   82SAPS   H5X 7705   1.680   1.713  10.267  1.1668  1.0554 -1.2916
   82SAPS   H5Y 7706   1.580   1.595  10.206 -0.0030  0.9452  1.2776
   82SAPS   C36 7707   1.725   1.645  10.056  0.3487  1.3419 -0.1906
   82SAPS   H6X 7708   1.754   1.550  10.006  2.2495  1.9294 -0.2925
   82SAPS   H6Y 7709   1.820   1.702  10.066  2.8329 -2.1010 -1.8605
   82SAPS   C37 7710   1.612   1.719   9.975 -0.1370  0.6119  0.1848
   82SAPS   H7X 7711   1.581   1.808  10.035  0.4944 -0.0896  1.6011
   82SAPS   H7Y 7712   1.519   1.658   9.967  1.2863 -1.7543  0.6904
   82SAPS   C38 7713   1.650   1.743   9.828 -0.5835 -0.8501 -0.2999
   82SAPS   H8X 7714   1.563   1.783   9.770  0.2535 -1.7408 -2.2494
   82SAPS   H8Y 7715   1.665   1.642   9.785  0.8841 -0.5498 -0.5564
   82SAPS   C39 7716   1.770   1.847   9.813 -0.4924  0.4922  0.2372
   82SAPS   H9X 7717   1.854   1.816   9.879 -1.6861 -0.7231  1.2556
   82SAPS   H9Y 7718   1.735   1.947   9.847  0.6379  1.2326 -0.7551
   82SAPS  C310 7719   1.818   1.871   9.670  0.1480 -0.6354  0.4879
   82SAPS  H10X 7720   1.868   1.777   9.641  0.5070  0.0016 -1.0427
   82SAPS  H10Y 7721   1.895   1.951   9.671  1.3492 -1.7093  2.6865
   82SAPS  C311 7722   1.708   1.910   9.574 -0.2163 -0.2002  0.6178
   82SAPS  H11X 7723   1.669   2.008   9.609  0.8034  0.5469 -0.2520
   82SAPS  H11Y 7724   1.630   1.832   9.584  0.3385 -0.9244 -0.4616
   82SAPS  C312 7725   1.760   1.915   9.425 -0.4845 -0.2577 -0.0417
   82SAPS  H12X 7726   1.732   1.816   9.384 -0.4188 -0.8927  1.3649
   82SAPS  H12Y 7727   1.871   1.921   9.432 -0.6150  1.9462  1.1646
   82SAPS  C313 7728   1.698   2.027   9.338 -0.3529  0.5272 -0.2363
   82SAPS  H13X 7729   1.713   2.129   9.379 -0.0043  0.0059  0.9693
   82SAPS  H13Y 7730   1.588   2.011   9.341 -0.0938 -1.3779  0.7451
   82SAPS  C314 7731   1.742   2.010   9.187 -0.5597  0.3535 -0.1079
   82SAPS  H14X 7732   1.850   2.023   9.167 -0.3453 -2.6116 -1.4980
   82SAPS  H14Y 7733   1.708   2.099   9.132 -0.3078 -0.8530 -2.3217
   82SAPS  C315 7734   1.696   1.889   9.110 -0.0810  0.4405  0.0448
   82SAPS  H15X 7735   1.590   1.871   9.136 -0.2810  0.4205 -0.7603
   82SAPS  H15Y 7736   1.752   1.801   9.150 -0.6506  0.8383  1.8139
   82SAPS  C316 7737   1.697   1.912   8.961 -0.4419  0.3197  0.5808
   82SAPS  H16X 7738   1.805   1.914   8.935 -0.1460 -0.3106  1.7290
   82SAPS  H16Y 7739   1.637   2.003   8.939  0.5555  1.0489  0.7942
   82SAPS  C317 7740   1.635   1.786   8.895 -0.2001  0.1523 -0.4277
   82SAPS  H17X 7741   1.673   1.690   8.934  0.6643 -0.1322 -1.8944
   82SAPS  H17Y 7742   1.674   1.794   8.791 -1.4296  0.8491 -0.8601
   82SAPS  C318 7743   1.482   1.779   8.883  0.0560 -0.3284 -0.1418
   82SAPS  H18X 7744   1.440   1.853   8.812  1.1377  0.9127  0.4789
   82SAPS  H18Y 7745   1.441   1.791   8.986  1.9715 -0.4486  0.6705
   82SAPS  H18Z 7746   1.459   1.675   8.850 -0.3206 -1.7249  3.9744
   83SAPS     N 7747   5.536   5.759  10.619 -0.7053  0.6339 -0.1996
   83SAPS   HN1 7748   5.547   5.678  10.555 -0.3996  0.0875  0.5214
   83SAPS   HN2 7749   5.479   5.820  10.557 -0.9798  1.0270  0.4316
   83SAPS   HN3 7750   5.624   5.809  10.644  0.5637 -1.9706  1.0109
   83SAPS   C12 7751   5.471   5.754  10.753  0.2318  0.3212  0.2068
   83SAPS  H12A 7752   5.537   5.695  10.815 -0.7018  1.0985  2.0318
   83SAPS   C13 7753   5.449   5.897  10.808  0.4432 -0.1618 -0.4193
   83SAPS  O13A 7754   5.527   5.986  10.759 -0.5725  0.1001 -0.1771
   83SAPS  O13B 7755   5.422   5.904  10.931 -0.1259  0.0791  0.0035
   83SAPS   C11 7756   5.335   5.688  10.734 -0.1855 -0.2434 -0.2428
   83SAPS  H11A 7757   5.259   5.748  10.680 -1.8748 -3.1371 -1.2929
   83SAPS  H11B 7758   5.308   5.668  10.840  1.6834 -1.3722  0.0595
   83SAPS     P 7759   5.295   5.423  10.740 -0.6803  0.0799  0.5988
   83SAPS   O13 7760   5.419   5.361  10.794 -0.0619  0.6838  0.1948
   83SAPS   O14 7761   5.181   5.453  10.833 -0.1628 -0.8066 -0.0244
   83SAPS   O12 7762   5.333   5.559  10.668  0.5976  0.4460 -0.3328
   83SAPS   O11 7763   5.239   5.332  10.620  0.1398  0.1318  0.1299
   83SAPS    C1 7764   5.109   5.375  10.565  0.0974 -0.1613 -1.2229
   83SAPS    HA 7765   5.035   5.361  10.646  0.9028  0.1308 -0.4069
   83SAPS    HB 7766   5.103   5.483  10.539  1.3767 -0.1394 -1.5132
   83SAPS    C2 7767   5.079   5.314  10.425  0.3514  0.6646  0.0990
   83SAPS    HS 7768   4.984   5.362  10.392 -1.4354 -0.9600  2.5243
   83SAPS   O21 7769   5.073   5.176  10.463 -0.1989  0.3719  0.4458
   83SAPS   C21 7770   4.994   5.093  10.401 -0.6650  0.6639  0.5345
   83SAPS   O22 7771   4.925   5.118  10.303  0.0113 -0.0565  0.1660
   83SAPS   C22 7772   5.009   4.957  10.471  0.0445  0.9084 -0.2643
   83SAPS   H2R 7773   5.113   4.923  10.451 -0.3551  0.9722 -2.7525
   83SAPS   H2S 7774   4.987   4.982  10.577 -0.4970  0.0595 -0.1702
   83SAPS    C3 7775   5.193   5.348  10.323 -0.0374  0.1437  0.3025
   83SAPS    HX 7776   5.288   5.297  10.350  0.1434 -0.2353 -0.9955
   83SAPS    HY 7777   5.207   5.458  10.331  0.8644 -0.0962  2.7558
   83SAPS   O31 7778   5.165   5.301  10.195 -0.9767 -0.8451 -0.3083
   83SAPS   C31 7779   5.099   5.372  10.110 -0.2638  0.4582 -0.0731
   83SAPS   O32 7780   5.038   5.475  10.136 -0.1014 -0.3352 -0.3530
   83SAPS   C32 7781   5.123   5.300   9.972  0.2009 -0.0332 -0.0258
   83SAPS   H2X 7782   5.090   5.196   9.992 -0.7359  0.2782  0.0802
   83SAPS   H2Y 7783   5.232   5.305   9.951  0.2261  1.2832  0.2917
   83SAPS   C23 7784   4.931   4.842  10.406  0.5964  0.2734  0.1031
   83SAPS   H3R 7785   4.958   4.741  10.443 -0.1602 -0.7050 -1.8648
   83SAPS   H3S 7786   4.958   4.835  10.298  0.1393  2.2602 -0.1907
   83SAPS   C24 7787   4.781   4.857  10.436 -0.3110  0.6064  0.4906
   83SAPS   H4R 7788   4.740   4.760  10.401  1.0376  0.1060  0.2348
   83SAPS   H4S 7789   4.737   4.937  10.374 -0.9040 -0.3220 -0.3113
   83SAPS   C25 7790   4.736   4.865  10.580  0.4354 -0.0440 -0.3631
   83SAPS   H5R 7791   4.796   4.933  10.642 -0.1527 -0.2364  0.4230
   83SAPS   C26 7792   4.624   4.797  10.627  0.8201 -0.4734 -0.3353
   83SAPS   H6R 7793   4.597   4.814  10.732 -1.3058  1.7166 -1.1562
   83SAPS   C27 7794   4.526   4.711  10.547  0.1752  0.0807 -0.2175
   83SAPS   H7R 7795   4.579   4.616  10.524  1.3090  0.7449 -0.4389
   83SAPS   H7S 7796   4.505   4.764  10.451 -0.8530 -1.1455 -0.6950
   83SAPS   C28 7797   4.397   4.680  10.617 -1.0930 -0.3949  0.8405
   83SAPS   H8R 7798   4.417   4.643  10.719  0.7868  1.9327  1.4014
   83SAPS   C29 7799   4.277   4.685  10.562 -0.4562  0.1055 -0.5385
   83SAPS   H9R 7800   4.189   4.660  10.623 -0.5634  0.9566 -0.3275
   83SAPS  C210 7801   4.250   4.720  10.418  1.2864  0.3798 -0.2486
   83SAPS  H10R 7802   4.334   4.691  10.351 -1.2044 -0.6507 -3.1573
   83SAPS  H10S 7803   4.229   4.826  10.395 -2.4467  0.0581  1.0918
   83SAPS  C211 7804   4.130   4.635  10.386 -0.1624 -0.4693  1.0648
   83SAPS  H11R 7805   4.130   4.527  10.406 -0.0057 -0.1723  2.8387
   83SAPS  C212 7806   4.015   4.687  10.344 -0.0541 -0.8616 -0.1663
   83SAPS  H12R 7807   3.943   4.621  10.294  1.0419 -0.9229 -1.7133
   83SAPS  C213 7808   3.990   4.831  10.304  0.1526 -0.6722 -0.5437
   83SAPS  H13R 7809   4.057   4.858  10.220 -0.5066 -0.8988 -1.1559
   83SAPS  H13S 7810   4.022   4.897  10.387 -0.7933  1.0844 -1.5149
   83SAPS  C214 7811   3.840   4.871  10.287 -0.3934 -0.8077 -0.2379
   83SAPS  H14R 7812   3.794   4.900  10.382  1.5258 -2.9425  1.4748
   83SAPS  C215 7813   3.762   4.837  10.190 -0.2700  0.0453  0.1948
   83SAPS  H15R 7814   3.659   4.875  10.181 -0.7339 -1.4470 -1.4388
   83SAPS  C216 7815   3.794   4.755  10.069  0.2351 -0.4260  0.5679
   83SAPS  H16R 7816   3.728   4.665  10.070  1.1480 -1.1155  1.0944
   83SAPS  H16S 7817   3.901   4.726  10.074  0.2730 -0.1469  1.9446
   83SAPS  C217 7818   3.775   4.838   9.943 -0.2065  0.2557 -0.2040
   83SAPS  H17R 7819   3.831   4.934   9.943 -1.4418  1.0063 -0.7042
   83SAPS  H17S 7820   3.668   4.855   9.919 -0.6886 -2.1867 -0.0323
   83SAPS  C218 7821   3.824   4.757   9.815 -0.1768 -0.8491 -0.6405
   83SAPS  H18R 7822   3.784   4.654   9.825 -1.8505 -0.0365  2.4484
   83SAPS  H18S 7823   3.933   4.737   9.825 -0.1919 -0.5723  0.2052
   83SAPS  C219 7824   3.783   4.840   9.691 -0.1386  0.9816 -0.9451
   83SAPS  H19R 7825   3.817   4.945   9.678  0.9896  0.4971 -2.1750
   83SAPS  H19S 7826   3.674   4.857   9.701  0.1289  1.9544  0.6047
   83SAPS  C220 7827   3.811   4.759   9.564 -0.9891  0.5635 -0.1265
   83SAPS  H20R 7828   3.921   4.744   9.558 -0.9564  0.4252  0.7184
   83SAPS  H20S 7829   3.763   4.799   9.472 -1.2915 -0.3693 -0.3930
   83SAPS  H20T 7830   3.765   4.658   9.577 -0.8342  0.4573 -0.3975
   83SAPS   C33 7831   5.060   5.376   9.862  0.1491 -0.6503 -0.6061
   83SAPS   H3X 7832   5.090   5.482   9.856  1.0215 -0.7869  0.7503
   83SAPS   H3Y 7833   4.951   5.374   9.884  0.1879 -0.6879 -0.4157
   83SAPS   C34 7834   5.094   5.300   9.726  0.2712  0.2830 -0.8764
   83SAPS   H4X 7835   5.090   5.192   9.752 -0.3670  0.5090  0.0397
   83SAPS   H4Y 7836   5.195   5.335   9.697  0.9040 -0.0448  0.8369
   83SAPS   C35 7837   4.991   5.347   9.626  0.1559  0.4008 -0.0178
   83SAPS   H5X 7838   5.023   5.448   9.593  0.2906  0.5118  0.4316
   83SAPS   H5Y 7839   4.889   5.350   9.671  0.0437 -0.2191 -0.2133
   83SAPS   C36 7840   4.975   5.250   9.499  0.0289  0.4866 -0.6275
   83SAPS   H6X 7841   4.958   5.147   9.537 -0.0443  0.1805 -1.4774
   83SAPS   H6Y 7842   5.069   5.247   9.440 -0.3825  1.3594 -1.3488
   83SAPS   C37 7843   4.865   5.302   9.409  0.5156  0.6825 -1.3826
   83SAPS   H7X 7844   4.869   5.412   9.391 -1.3085  1.2597  1.1825
   83SAPS   H7Y 7845   4.771   5.307   9.467  1.6804  0.3565  0.6321
   83SAPS   C38 7846   4.843   5.212   9.289 -0.5909 -0.1643 -0.9780
   83SAPS   H8X 7847   4.749   5.234   9.235 -0.9090  0.8972 -0.0441
   83SAPS   H8Y 7848   4.849   5.104   9.315 -0.4471 -0.1437 -0.9249
   83SAPS   C39 7849   4.947   5.235   9.175  0.3327 -0.0620  0.0941
   83SAPS   H9X 7850   5.040   5.177   9.193  1.2704  1.4873  0.4840
   83SAPS   H9Y 7851   4.972   5.343   9.164  1.1689 -0.3173 -0.6518
   83SAPS  C310 7852   4.896   5.186   9.033  0.3359 -0.6469  0.3851
   83SAPS  H10X 7853   4.818   5.258   9.001  2.4225  0.8524 -1.6730
   83SAPS  H10Y 7854   4.842   5.091   9.050 -1.6544  0.5387  1.0192
   83SAPS  C311 7855   5.004   5.194   8.924 -0.3425  0.1077 -0.0426
   83SAPS  H11X 7856   5.057   5.288   8.950 -0.8023  0.2276  0.4868
   83SAPS  H11Y 7857   4.965   5.213   8.822 -0.0672  0.7094 -0.0405
   83SAPS  C312 7858   5.100   5.077   8.924 -0.2999 -0.5191  0.2143
   83SAPS  H12X 7859   5.045   4.981   8.932  0.5808 -0.9634  1.3260
   83SAPS  H12Y 7860   5.166   5.074   9.014  0.0763 -0.6981 -0.0646
   83SAPS  C313 7861   5.192   5.080   8.806 -0.8389  0.4342  0.7634
   83SAPS  H13X 7862   5.255   5.170   8.818  0.1241 -0.3089  1.3983
   83SAPS  H13Y 7863   5.141   5.079   8.707 -0.0688 -0.1587  0.3665
   83SAPS  C314 7864   5.289   4.950   8.812 -0.1800 -0.4457 -0.3939
   83SAPS  H14X 7865   5.217   4.865   8.815 -1.4378  0.6087  1.9641
   83SAPS  H14Y 7866   5.338   4.971   8.910 -0.6885  0.8303 -0.3909
   83SAPS  C315 7867   5.397   4.958   8.703 -0.0418  0.2033  0.6639
   83SAPS  H15X 7868   5.493   4.908   8.729 -0.9733 -1.9988  0.0584
   83SAPS  H15Y 7869   5.436   5.062   8.699  1.4690 -0.3644 -1.0367
   83SAPS  C316 7870   5.352   4.910   8.569  0.3367  0.7893 -0.4861
   83SAPS  H16X 7871   5.259   4.971   8.569  0.3179  0.8526  1.7593
   83SAPS  H16Y 7872   5.320   4.804   8.569  0.5287  0.7313 -0.7774
   83SAPS  C317 7873   5.455   4.932   8.451  0.5026  0.4881 -0.2691
   83SAPS  H17X 7874   5.558   4.922   8.491 -0.1115  0.6172  1.4083
   83SAPS  H17Y 7875   5.446   5.040   8.425  0.3211  0.9400  1.5133
   83SAPS  C318 7876   5.450   4.833   8.331  0.0505  0.1489 -0.5524
   83SAPS  H18X 7877   5.473   4.730   8.364  0.2737 -0.0920 -1.4492
   83SAPS  H18Y 7878   5.535   4.859   8.264  0.9242  0.6025  0.6854
   83SAPS  H18Z 7879   5.349   4.841   8.287  0.6278  0.2912 -1.8798
   84SAPS     N 7880   5.258   3.237  10.916  0.1089 -0.0245 -0.2313
   84SAPS   HN1 7881   5.294   3.334  10.923  0.1359 -0.0965  0.6450
   84SAPS   HN2 7882   5.276   3.194  11.009  0.0528 -0.3082 -0.3513
   84SAPS   HN3 7883   5.320   3.196  10.843 -0.6292  0.0822 -0.9410
   84SAPS   C12 7884   5.114   3.240  10.876 -0.0547  0.0204 -0.0276
   84SAPS  H12A 7885   5.109   3.296  10.784 -1.1551  0.0921  0.0551
   84SAPS   C13 7886   5.064   3.099  10.840 -0.8000  0.1752 -0.1402
   84SAPS  O13A 7887   5.145   3.001  10.835  0.0363 -0.0583 -0.8257
   84SAPS  O13B 7888   4.957   3.097  10.774 -0.0157  0.6769 -0.8094
   84SAPS   C11 7889   5.040   3.320  10.991  0.7033  0.3401 -0.3639
   84SAPS  H11A 7890   5.030   3.255  11.081 -2.2791  0.5038 -0.4666
   84SAPS  H11B 7891   4.933   3.336  10.965  0.3021 -2.7399 -0.9452
   84SAPS     P 7892   5.074   3.569  10.945  0.1284 -0.1988 -0.0596
   84SAPS   O13 7893   4.927   3.597  10.958  0.1423 -0.5945 -0.4683
   84SAPS   O14 7894   5.163   3.676  10.991 -0.4385 -0.0457 -0.0328
   84SAPS   O12 7895   5.107   3.441  11.035  0.6751 -0.3663  0.4237
   84SAPS   O11 7896   5.102   3.519  10.798  0.4956 -0.0211  0.3809
   84SAPS    C1 7897   5.169   3.602  10.704 -0.3628 -0.4004  0.4442
   84SAPS    HA 7898   5.140   3.708  10.721 -0.0341 -0.1101 -0.7314
   84SAPS    HB 7899   5.279   3.592  10.711 -0.4642 -3.3561 -0.6184
   84SAPS    C2 7900   5.136   3.570  10.552  0.5152 -0.1374 -0.2469
   84SAPS    HS 7901   5.166   3.464  10.545 -0.8262 -0.9241  3.2907
   84SAPS   O21 7902   5.206   3.664  10.478 -0.1585  0.0132  0.1867
   84SAPS   C21 7903   5.276   3.623  10.375 -0.4086  0.1966  0.0787
   84SAPS   O22 7904   5.285   3.508  10.325  0.4970 -0.3371 -0.7085
   84SAPS   C22 7905   5.358   3.736  10.324 -0.3587  0.1153  1.2915
   84SAPS   H2R 7906   5.302   3.832  10.334 -0.2522  0.3734 -0.3091
   84SAPS   H2S 7907   5.449   3.743  10.387  0.7900  0.0569 -0.3210
   84SAPS    C3 7908   4.986   3.576  10.526 -0.2751  0.2458  0.5018
   84SAPS    HX 7909   4.958   3.678  10.560  0.3455  1.3340 -2.0784
   84SAPS    HY 7910   4.933   3.493  10.577 -0.1056  0.1815  0.5736
   84SAPS   O31 7911   4.953   3.576  10.385 -0.4719  0.2286  0.6411
   84SAPS   C31 7912   4.936   3.461  10.326  0.8487  0.2673 -0.6019
   84SAPS   O32 7913   4.938   3.352  10.382  0.6075 -0.1830  0.3034
   84SAPS   C32 7914   4.921   3.475  10.177  0.6732  0.3100  0.5310
   84SAPS   H2X 7915   4.955   3.577  10.148  0.5210 -0.1007 -1.2111
   84SAPS   H2Y 7916   4.812   3.482  10.154  0.9373  1.8457 -0.4908
   84SAPS   C23 7917   5.391   3.737  10.174 -0.2245 -0.0233  0.9223
   84SAPS   H3R 7918   5.453   3.645  10.174 -0.4508 -0.1787  1.3356
   84SAPS   H3S 7919   5.460   3.819  10.148 -0.3821 -0.1632 -0.0031
   84SAPS   C24 7920   5.267   3.730  10.080 -0.6880  0.1550  0.0154
   84SAPS   H4R 7921   5.185   3.696  10.146 -0.3307  0.5626  0.6871
   84SAPS   H4S 7922   5.285   3.649  10.006  0.8999  1.7534 -1.4510
   84SAPS   C25 7923   5.235   3.860  10.007 -0.8082  0.4139  0.5114
   84SAPS   H5R 7924   5.193   3.930  10.081 -1.6765 -0.9706  1.3639
   84SAPS   C26 7925   5.235   3.888   9.875  0.4308  0.0625 -0.0375
   84SAPS   H6R 7926   5.184   3.983   9.853  1.6583  1.3033  2.0723
   84SAPS   C27 7927   5.272   3.796   9.766 -0.8579  0.0684  0.5424
   84SAPS   H7R 7928   5.181   3.755   9.717  0.1443  1.9868 -3.3518
   84SAPS   H7S 7929   5.321   3.706   9.810 -0.2707  0.9882  1.8369
   84SAPS   C28 7930   5.359   3.853   9.651  0.3466  0.2010  0.7581
   84SAPS   H8R 7931   5.467   3.840   9.661  0.4728 -0.3102 -0.9376
   84SAPS   C29 7932   5.314   3.932   9.548 -1.0308  0.1736 -0.7850
   84SAPS   H9R 7933   5.385   3.971   9.474 -1.5500  3.4719  0.2772
   84SAPS  C210 7934   5.174   3.977   9.522 -0.3382 -0.2129  0.2187
   84SAPS  H10R 7935   5.178   4.085   9.546  1.0787 -0.1823 -0.0623
   84SAPS  H10S 7936   5.095   3.923   9.579  0.2098 -0.7867  0.4448
   84SAPS  C211 7937   5.148   3.983   9.373  0.8111 -0.2128 -0.3923
   84SAPS  H11R 7938   5.133   4.085   9.336  0.7138 -0.3456 -0.7190
   84SAPS  C212 7939   5.150   3.891   9.277  0.1719 -0.1305 -0.2115
   84SAPS  H12R 7940   5.131   3.916   9.171  1.7031 -3.6980 -1.5056
   84SAPS  C213 7941   5.187   3.740   9.284  0.0617 -0.3238  0.3532
   84SAPS  H13R 7942   5.099   3.675   9.302  1.4181 -2.4237 -0.2213
   84SAPS  H13S 7943   5.256   3.712   9.367  1.2838 -1.0341 -0.8712
   84SAPS  C214 7944   5.252   3.688   9.156 -0.0417  0.5019  0.1540
   84SAPS  H14R 7945   5.359   3.711   9.144 -0.1852  0.5887 -1.0905
   84SAPS  C215 7946   5.187   3.619   9.059 -0.1707 -0.1122  0.7147
   84SAPS  H15R 7947   5.241   3.591   8.967 -2.0746 -0.2285 -0.4168
   84SAPS  C216 7948   5.040   3.583   9.058 -0.5711 -0.1536 -0.0869
   84SAPS  H16R 7949   4.960   3.654   9.088  0.2765 -0.2242  2.5821
   84SAPS  H16S 7950   5.026   3.501   9.132  2.5636 -1.1754 -0.4989
   84SAPS  C217 7951   4.996   3.511   8.929 -0.4433  0.5670  0.0829
   84SAPS  H17R 7952   5.070   3.428   8.922 -0.0612  0.7290  1.6843
   84SAPS  H17S 7953   5.007   3.595   8.856 -1.0719  1.0201  0.4960
   84SAPS  C218 7954   4.861   3.453   8.933  0.4982  0.6948 -0.4836
   84SAPS  H18R 7955   4.843   3.394   9.026 -2.5623  1.6669 -0.3594
   84SAPS  H18S 7956   4.852   3.376   8.854  0.4044  1.6882 -1.4691
   84SAPS  C219 7957   4.749   3.550   8.918 -0.7061 -0.4508 -0.3631
   84SAPS  H19R 7958   4.759   3.596   8.817 -0.3737 -0.6369 -0.4132
   84SAPS  H19S 7959   4.752   3.644   8.977 -0.0420  1.4333 -3.1606
   84SAPS  C220 7960   4.612   3.476   8.919 -0.1765  0.1360  0.1297
   84SAPS  H20R 7961   4.623   3.392   8.847  1.8571  0.6491 -0.2405
   84SAPS  H20S 7962   4.528   3.547   8.901 -1.4601 -1.6246 -1.1741
   84SAPS  H20T 7963   4.601   3.429   9.019 -1.4776  1.8916  0.8524
   84SAPS   C33 7964   4.990   3.365  10.103  0.1503 -0.0508  0.5739
   84SAPS   H3X 7965   4.940   3.266  10.112  2.6654 -1.3945  0.7878
   84SAPS   H3Y 7966   5.100   3.357  10.120  0.2457 -0.3509 -0.1618
   84SAPS   C34 7967   4.986   3.392   9.949 -0.2833 -0.3192 -0.0765
   84SAPS   H4X 7968   5.027   3.494   9.931 -0.0179 -0.1678  1.2706
   84SAPS   H4Y 7969   4.882   3.398   9.911 -0.0032  3.8786 -0.6444
   84SAPS   C35 7970   5.075   3.286   9.874  0.2157  0.0235 -0.9011
   84SAPS   H5X 7971   5.023   3.188   9.880 -0.2261  0.3184  0.6897
   84SAPS   H5Y 7972   5.163   3.266   9.939 -0.7720 -1.1705  0.1204
   84SAPS   C36 7973   5.114   3.327   9.737 -0.6236 -0.5444 -1.0257
   84SAPS   H6X 7974   5.202   3.267   9.706 -0.5582 -0.0225 -1.9024
   84SAPS   H6Y 7975   5.151   3.432   9.738 -0.0586 -0.7410 -0.4523
   84SAPS   C37 7976   5.010   3.311   9.628 -0.1584 -0.7751 -0.1376
   84SAPS   H7X 7977   4.917   3.368   9.647  0.0052 -1.0848  1.7873
   84SAPS   H7Y 7978   4.976   3.205   9.623 -0.9671 -0.5350  0.1746
   84SAPS   C38 7979   5.054   3.343   9.486 -0.3364 -0.1662 -0.2456
   84SAPS   H8X 7980   5.151   3.302   9.450 -0.3174  0.4407 -0.9168
   84SAPS   H8Y 7981   5.057   3.453   9.502  1.0300 -0.0950 -0.8644
   84SAPS   C39 7982   4.957   3.301   9.369  0.3694 -0.7760 -0.0379
   84SAPS   H9X 7983   5.010   3.327   9.274 -1.6200  1.2476 -0.6746
   84SAPS   H9Y 7984   4.865   3.362   9.368  0.7314 -0.2131  0.5161
   84SAPS  C310 7985   4.923   3.158   9.382 -0.0412  0.1446  0.2073
   84SAPS  H10X 7986   4.855   3.125   9.463  0.0747 -2.5492 -0.7128
   84SAPS  H10Y 7987   5.012   3.096   9.405 -0.5393 -0.4962  0.4456
   84SAPS  C311 7988   4.866   3.102   9.249  0.1134 -0.4851 -0.2197
   84SAPS  H11X 7989   4.853   2.993   9.266 -0.6597 -0.4833 -0.7430
   84SAPS  H11Y 7990   4.939   3.126   9.169  0.4093 -1.6476 -0.3142
   84SAPS  C312 7991   4.736   3.164   9.205 -0.7913  0.9783  0.3970
   84SAPS  H12X 7992   4.754   3.271   9.183  0.3086  0.9669  1.1768
   84SAPS  H12Y 7993   4.678   3.176   9.299 -0.8626 -2.0975  0.8511
   84SAPS  C313 7994   4.651   3.090   9.104  0.2940 -0.2124  0.2137
   84SAPS  H13X 7995   4.648   2.983   9.132 -2.2310 -0.1249  0.4808
   84SAPS  H13Y 7996   4.711   3.104   9.011 -0.3750  2.2005  0.0770
   84SAPS  C314 7997   4.521   3.157   9.082  0.3561 -0.5070  0.1800
   84SAPS  H14X 7998   4.520   3.268   9.086  1.0794 -0.4766 -0.2860
   84SAPS  H14Y 7999   4.449   3.115   9.156  0.8388 -0.1486  0.8579
   84SAPS  C315 8000   4.456   3.108   8.948  0.1072 -0.4428  0.6148
   84SAPS  H15X 8001   4.467   2.998   8.945 -0.3056 -0.4700 -0.2670
   84SAPS  H15Y 8002   4.526   3.148   8.872  0.0330  0.6172  1.0827
   84SAPS  C316 8003   4.311   3.156   8.931 -0.6327  0.0949  0.4287
   84SAPS  H16X 8004   4.302   3.264   8.959  1.2467  0.2636  0.4947
   84SAPS  H16Y 8005   4.239   3.098   8.993 -0.6552 -0.2279  0.0999
   84SAPS  C317 8006   4.266   3.141   8.781 -0.1722 -0.4015 -0.0245
   84SAPS  H17X 8007   4.248   3.037   8.747  0.8306 -0.8169  0.6679
   84SAPS  H17Y 8008   4.339   3.188   8.712 -1.8950  1.8768 -0.4205
   84SAPS  C318 8009   4.131   3.209   8.746  0.0283  0.4631  0.6130
   84SAPS  H18X 8010   4.127   3.317   8.772  0.6327  0.3611  1.1663
   84SAPS  H18Y 8011   4.051   3.154   8.799 -0.0346  1.5700  1.7066
   84SAPS  H18Z 8012   4.128   3.206   8.635  1.8512  0.7906  0.5115
   85SAPS     N 8013   2.287   1.052  11.141 -0.2932  0.4525  0.1669
   85SAPS   HN1 8014   2.276   1.145  11.095 -1.3978 -0.0593 -0.6522
   85SAPS   HN2 8015   2.229   0.987  11.084  0.1533  0.0474  0.1696
   85SAPS   HN3 8016   2.243   1.044  11.235  0.4191  0.9685  0.5508
   85SAPS   C12 8017   2.431   1.028  11.142 -0.6408 -0.0859 -0.1267
   85SAPS  H12A 8018   2.477   1.113  11.191  0.1407 -1.8542  2.4679
   85SAPS   C13 8019   2.480   0.899  11.217  0.2192  0.8555  0.2416
   85SAPS  O13A 8020   2.390   0.816  11.257  0.7310 -0.1151 -0.2981
   85SAPS  O13B 8021   2.602   0.864  11.209  0.3194 -0.9300  0.1787
   85SAPS   C11 8022   2.481   1.030  11.001 -0.1276  0.2874 -0.4503
   85SAPS  H11A 8023   2.438   0.935  10.963  2.4959 -2.0938  2.0886
   85SAPS  H11B 8024   2.592   1.023  11.001 -0.1281 -1.0066  2.4921
   85SAPS     P 8025   2.510   1.275  10.899 -0.0496  0.2540 -0.0048
   85SAPS   O13 8026   2.414   1.375  10.840  0.1587  0.0755 -0.0298
   85SAPS   O14 8027   2.579   1.324  11.016 -0.3671  0.0193 -0.1061
   85SAPS   O12 8028   2.426   1.144  10.940 -0.2305  0.1746  0.5656
   85SAPS   O11 8029   2.616   1.222  10.794  0.4908 -0.0383 -0.0368
   85SAPS    C1 8030   2.573   1.218  10.656  0.2464 -0.2626 -0.4746
   85SAPS    HA 8031   2.531   1.315  10.622 -2.7937 -1.4310 -0.3290
   85SAPS    HB 8032   2.667   1.204  10.598  0.7067  0.2920  0.1157
   85SAPS    C2 8033   2.487   1.093  10.604  0.4855 -0.3449  0.5784
   85SAPS    HS 8034   2.387   1.107  10.650  0.4129 -0.5765  0.4894
   85SAPS   O21 8035   2.544   0.974  10.657  0.4397  0.0793  0.1006
   85SAPS   C21 8036   2.475   0.869  10.654  0.7045  0.1768  1.0835
   85SAPS   O22 8037   2.368   0.855  10.593 -0.3385 -0.2881  0.1432
   85SAPS   C22 8038   2.533   0.756  10.740  0.3292 -0.2206 -0.6120
   85SAPS   H2R 8039   2.582   0.802  10.829 -0.9523 -1.6061  0.8774
   85SAPS   H2S 8040   2.457   0.684  10.776  1.0301  0.4198  2.4007
   85SAPS    C3 8041   2.490   1.091  10.445  0.3172 -0.2124  0.2918
   85SAPS    HX 8042   2.440   1.182  10.404  0.2984  0.2844  1.3884
   85SAPS    HY 8043   2.443   1.001  10.401 -0.2509 -0.1507  0.7603
   85SAPS   O31 8044   2.634   1.102  10.407 -0.2103  0.4741 -0.2071
   85SAPS   C31 8045   2.677   1.007  10.325  0.3001 -0.0398 -0.3747
   85SAPS   O32 8046   2.601   0.940  10.259  0.3269  0.2635  0.3851
   85SAPS   C32 8047   2.826   0.996  10.336 -0.9511  0.4792  0.1847
   85SAPS   H2X 8048   2.863   0.904  10.286 -0.8794 -0.3035  1.6381
   85SAPS   H2Y 8049   2.863   1.002  10.440  0.1064 -0.5194 -0.1278
   85SAPS   C23 8050   2.645   0.664  10.689 -0.1638 -0.2997  0.2052
   85SAPS   H3R 8051   2.702   0.627  10.777 -2.0698 -0.0562  1.5760
   85SAPS   H3S 8052   2.701   0.734  10.623 -2.1091 -0.5817 -1.8683
   85SAPS   C24 8053   2.587   0.547  10.601  0.5831  0.5244  0.0775
   85SAPS   H4R 8054   2.500   0.493  10.645  1.3140 -0.8801 -0.1651
   85SAPS   H4S 8055   2.662   0.466  10.596 -0.8222 -1.0491  2.4355
   85SAPS   C25 8056   2.538   0.590  10.461  0.0111  0.1730  0.5122
   85SAPS   H5R 8057   2.432   0.620  10.469 -0.3229 -0.4621 -1.0828
   85SAPS   C26 8058   2.595   0.604  10.341  0.2346  0.8144 -0.0833
   85SAPS   H6R 8059   2.538   0.629  10.250  0.3572  0.3221 -0.3042
   85SAPS   C27 8060   2.740   0.569  10.309 -0.2304 -0.8618  0.5434
   85SAPS   H7R 8061   2.756   0.460  10.292  1.2291 -0.4727 -0.8763
   85SAPS   H7S 8062   2.802   0.594  10.398 -0.2356  2.6258 -0.2748
   85SAPS   C28 8063   2.806   0.627  10.183 -0.2216 -0.0031  0.6355
   85SAPS   H8R 8064   2.894   0.688  10.205  0.9034 -2.1049  2.3202
   85SAPS   C29 8065   2.780   0.589  10.059 -0.3456 -0.0743  0.4298
   85SAPS   H9R 8066   2.832   0.636   9.974 -0.6096  0.2349  0.4327
   85SAPS  C210 8067   2.683   0.480  10.020  0.2316 -0.3752 -0.4804
   85SAPS  H10R 8068   2.609   0.522   9.949 -0.6592  0.1152  0.7068
   85SAPS  H10S 8069   2.620   0.463  10.110 -1.1714 -1.8211 -1.6562
   85SAPS  C211 8070   2.735   0.340   9.980  0.1925 -0.4537 -0.1402
   85SAPS  H11R 8071   2.735   0.268  10.063 -0.6021 -1.7034 -1.1901
   85SAPS  C212 8072   2.783   0.307   9.851  0.8582  0.1922  0.3002
   85SAPS  H12R 8073   2.829   0.209   9.832  2.8615  1.1375  0.0437
   85SAPS  C213 8074   2.782   0.396   9.726  0.9177 -0.3335 -0.1254
   85SAPS  H13R 8075   2.885   0.397   9.687  0.6088 -0.5178 -0.9724
   85SAPS  H13S 8076   2.747   0.498   9.751 -0.9172 -1.1561  0.9387
   85SAPS  C214 8077   2.689   0.337   9.622  0.5609  0.0652  0.1646
   85SAPS  H14R 8078   2.589   0.304   9.655 -0.0908 -0.2052 -1.8929
   85SAPS  C215 8079   2.716   0.316   9.492 -0.7887 -0.1085 -0.1936
   85SAPS  H15R 8080   2.644   0.260   9.431 -1.4582 -0.1591  0.6140
   85SAPS  C216 8081   2.839   0.347   9.418 -0.3201 -0.4810  0.5967
   85SAPS  H16R 8082   2.846   0.314   9.312  0.5644  2.3912 -0.3386
   85SAPS  H16S 8083   2.922   0.298   9.472 -0.5479  1.7611  3.2357
   85SAPS  C217 8084   2.882   0.495   9.407  0.3230  0.1202  0.1869
   85SAPS  H17R 8085   2.985   0.504   9.366 -0.7221  0.4046 -2.5538
   85SAPS  H17S 8086   2.879   0.542   9.508  1.3908  2.2601 -0.7249
   85SAPS  C218 8087   2.799   0.563   9.300 -0.2868 -0.1954 -0.2066
   85SAPS  H18R 8088   2.808   0.671   9.326  2.3016 -0.4621  0.3250
   85SAPS  H18S 8089   2.696   0.523   9.291 -0.9031  0.9055  1.5527
   85SAPS  C219 8090   2.851   0.551   9.155 -0.6123 -0.6189  0.0111
   85SAPS  H19R 8091   2.860   0.443   9.128  1.4410 -0.8097  1.2362
   85SAPS  H19S 8092   2.958   0.580   9.149 -0.3984 -1.1924  0.8288
   85SAPS  C220 8093   2.765   0.631   9.050 -0.0216 -0.0727  0.1076
   85SAPS  H20R 8094   2.796   0.604   8.947 -1.0252 -1.6680  0.1980
   85SAPS  H20S 8095   2.763   0.741   9.066  1.3134  0.0223 -0.2234
   85SAPS  H20T 8096   2.659   0.605   9.067 -0.1386  0.3072 -0.0379
   85SAPS   C33 8097   2.893   1.117  10.253 -0.6101  0.0286 -0.4241
   85SAPS   H3X 8098   3.004   1.121  10.253 -0.6031  0.7707 -2.4394
   85SAPS   H3Y 8099   2.859   1.207  10.309 -2.1710 -0.7324 -0.0662
   85SAPS   C34 8100   2.851   1.119  10.107  0.2106  0.3859 -0.0328
   85SAPS   H4X 8101   2.884   1.215  10.063 -0.0379  0.4285 -0.1258
   85SAPS   H4Y 8102   2.741   1.122  10.090  0.5510  1.1650 -2.3995
   85SAPS   C35 8103   2.908   1.011  10.019  0.0110 -0.5892 -0.4061
   85SAPS   H5X 8104   2.891   0.909  10.061  0.1780  0.1130  1.4456
   85SAPS   H5Y 8105   3.019   1.014  10.015  0.0050  4.0363 -1.6464
   85SAPS   C36 8106   2.840   1.017   9.878  0.1873  0.5044 -0.0317
   85SAPS   H6X 8107   2.842   1.121   9.841 -1.9583  1.0616  1.2425
   85SAPS   H6Y 8108   2.736   0.976   9.876  0.7510 -0.9848 -0.5079
   85SAPS   C37 8109   2.911   0.925   9.781 -0.8302 -0.6987  0.4696
   85SAPS   H7X 8110   2.859   0.827   9.791 -0.7754 -0.7805 -0.0332
   85SAPS   H7Y 8111   3.021   0.913   9.791 -0.9920 -3.0934 -0.1538
   85SAPS   C38 8112   2.897   0.974   9.638  0.4589 -0.5728 -0.0249
   85SAPS   H8X 8113   2.951   1.071   9.632 -1.7268  0.8711  1.7790
   85SAPS   H8Y 8114   2.795   1.011   9.615  0.2892 -0.2539  1.1647
   85SAPS   C39 8115   2.928   0.880   9.522 -0.5062 -0.4618 -0.0247
   85SAPS   H9X 8116   2.839   0.837   9.472  0.3593 -1.3668 -0.8158
   85SAPS   H9Y 8117   2.993   0.799   9.560  1.6707  0.9049 -0.6161
   85SAPS  C310 8118   3.028   0.958   9.428  0.7478 -0.2392 -0.1469
   85SAPS  H10X 8119   3.127   0.956   9.479  1.4460  1.0389 -1.4099
   85SAPS  H10Y 8120   3.004   1.064   9.410  1.5804  0.1948  1.1273
   85SAPS  C311 8121   3.035   0.880   9.298  0.9676 -0.0252  0.0310
   85SAPS  H11X 8122   2.934   0.863   9.256  0.8251 -1.5528  0.9218
   85SAPS  H11Y 8123   3.088   0.783   9.311  0.3195 -0.3685  0.1385
   85SAPS  C312 8124   3.126   0.949   9.195 -0.8042 -0.5688 -0.2202
   85SAPS  H12X 8125   3.217   0.996   9.239 -2.1717  0.5695  1.5586
   85SAPS  H12Y 8126   3.067   1.034   9.154 -0.8185 -0.6052 -0.2730
   85SAPS  C313 8127   3.157   0.849   9.088 -0.1752  0.0822  0.3512
   85SAPS  H13X 8128   3.060   0.815   9.045  0.0651  1.4398 -1.3691
   85SAPS  H13Y 8129   3.232   0.774   9.122  0.3040 -1.3493 -3.3226
   85SAPS  C314 8130   3.233   0.909   8.967 -0.4590 -0.0040  0.6450
   85SAPS  H14X 8131   3.329   0.952   9.000  0.6529 -1.6592 -0.2937
   85SAPS  H14Y 8132   3.175   0.991   8.919 -0.6879 -1.0442 -0.9621
   85SAPS  C315 8133   3.256   0.796   8.864  0.1566 -0.6639  0.1791
   85SAPS  H15X 8134   3.157   0.753   8.837  0.7259 -1.4291 -0.7227
   85SAPS  H15Y 8135   3.319   0.719   8.913  3.0474 -0.3834 -2.7406
   85SAPS  C316 8136   3.332   0.839   8.728  0.1708  0.1799  0.1137
   85SAPS  H16X 8137   3.398   0.754   8.701  0.2074  0.1942  0.1573
   85SAPS  H16Y 8138   3.398   0.927   8.745  1.1982 -0.4768 -0.3884
   85SAPS  C317 8139   3.228   0.879   8.621 -1.1725  0.4370  0.2322
   85SAPS  H17X 8140   3.155   0.951   8.665  0.3819  1.3909  1.3663
   85SAPS  H17Y 8141   3.180   0.789   8.577 -0.5102  0.9564 -1.6178
   85SAPS  C318 8142   3.314   0.948   8.519  0.5400  0.4453  0.3920
   85SAPS  H18X 8143   3.354   1.047   8.548  3.0525 -0.3637 -0.0453
   85SAPS  H18Y 8144   3.254   0.973   8.429  1.3175  1.2816  0.0933
   85SAPS  H18Z 8145   3.403   0.888   8.488  0.6197 -0.2719  1.8949
   86SAPS     N 8146   0.174   5.316  10.539  0.5725  0.2624  0.0820
   86SAPS   HN1 8147   0.264   5.313  10.487  0.9581  1.4155  0.6511
   86SAPS   HN2 8148   0.130   5.222  10.541  1.2201 -0.0385  1.1587
   86SAPS   HN3 8149   0.112   5.377  10.483  0.4541 -0.3366 -0.4506
   86SAPS   C12 8150   0.188   5.356  10.680 -0.1622  0.3140  0.0917
   86SAPS  H12A 8151   0.245   5.282  10.734 -0.1456  0.7566  0.6886
   86SAPS   C13 8152   0.271   5.482  10.699 -0.3983  0.2187  0.6308
   86SAPS  O13A 8153   0.300   5.564  10.605 -0.1662 -0.0120 -0.3515
   86SAPS  O13B 8154   0.297   5.512  10.817 -0.0244 -0.0784  0.0173
   86SAPS   C11 8155   0.046   5.374  10.743  0.0052 -0.2038 -0.2218
   86SAPS  H11A 8156   0.004   5.466  10.695  0.7026  0.7771  0.9839
   86SAPS  H11B 8157   0.061   5.394  10.851 -0.2553  0.1466 -0.2494
   86SAPS     P 8158  -0.175   5.262  10.799  0.0681 -0.1220 -0.2637
   86SAPS   O13 8159  -0.215   5.119  10.810  0.2338 -0.2525  0.1932
   86SAPS   O14 8160  -0.162   5.342  10.923 -0.6368  0.1089 -0.2267
   86SAPS   O12 8161  -0.043   5.262  10.723  0.1237 -0.7301  0.0307
   86SAPS   O11 8162  -0.284   5.334  10.712 -0.2898 -0.5330 -0.0913
   86SAPS    C1 8163  -0.314   5.278  10.582  0.4288 -0.3481 -0.2208
   86SAPS    HA 8164  -0.322   5.168  10.574  2.4735 -0.5317 -0.2930
   86SAPS    HB 8165  -0.415   5.311  10.549  1.1704  0.8527 -1.3988
   86SAPS    C2 8166  -0.209   5.305  10.468 -0.5800 -0.3896  0.4901
   86SAPS    HS 8167  -0.105   5.281  10.497  0.5860 -0.5053 -3.2659
   86SAPS   O21 8168  -0.223   5.440  10.433 -0.2044  0.2845 -0.2242
   86SAPS   C21 8169  -0.113   5.510  10.398 -0.0364  0.3005 -1.0734
   86SAPS   O22 8170  -0.000   5.466  10.389 -0.4561 -0.2410 -0.3539
   86SAPS   C22 8171  -0.151   5.649  10.347  0.2553 -0.2264  1.1204
   86SAPS   H2R 8172  -0.254   5.645  10.306  1.0219 -0.2552 -0.8873
   86SAPS   H2S 8173  -0.134   5.736  10.416 -0.0200 -0.5468  1.5969
   86SAPS    C3 8174  -0.228   5.217  10.342 -0.0040  0.0879 -0.6121
   86SAPS    HX 8175  -0.321   5.262  10.301 -1.0637 -0.4577  1.0681
   86SAPS    HY 8176  -0.246   5.111  10.370 -0.6672  0.4276  0.3391
   86SAPS   O31 8177  -0.113   5.228  10.254 -0.1262  0.1955 -0.6895
   86SAPS   C31 8178  -0.131   5.174  10.135  0.6057  0.9163 -0.6799
   86SAPS   O32 8179  -0.232   5.115  10.102  0.2496  0.2217 -0.3716
   86SAPS   C32 8180  -0.004   5.184  10.056 -0.7073  0.6036  0.1657
   86SAPS   H2X 8181   0.064   5.104  10.092  0.7285  0.4750 -2.5458
   86SAPS   H2Y 8182   0.046   5.273  10.099  0.6110  0.2237 -0.5128
   86SAPS   C23 8183  -0.074   5.689  10.223 -0.8479  0.2011 -0.2645
   86SAPS   H3R 8184   0.033   5.695  10.252 -1.5749  2.3595  2.3023
   86SAPS   H3S 8185  -0.123   5.780  10.183 -0.4424  1.5435  2.1448
   86SAPS   C24 8186  -0.078   5.574  10.116 -0.0688 -0.0339 -0.1080
   86SAPS   H4R 8187  -0.185   5.561  10.091 -0.0888  0.6946 -0.4116
   86SAPS   H4S 8188  -0.041   5.474  10.148 -1.3402 -0.7171 -0.7137
   86SAPS   C25 8189   0.010   5.622   9.998 -0.2925 -0.3127  0.9291
   86SAPS   H5R 8190   0.103   5.676  10.024 -0.4541  1.0855 -1.0928
   86SAPS   C26 8191  -0.020   5.610   9.869  0.0846  0.6169  0.0655
   86SAPS   H6R 8192   0.054   5.650   9.799  3.3570 -0.2545  2.7935
   86SAPS   C27 8193  -0.147   5.550   9.806 -0.3231  0.6314  0.3167
   86SAPS   H7R 8194  -0.221   5.514   9.881  1.0173 -1.2352  0.7951
   86SAPS   H7S 8195  -0.107   5.464   9.749  0.0902  0.5600  0.7071
   86SAPS   C28 8196  -0.225   5.654   9.718 -0.4208  0.2169 -0.0382
   86SAPS   H8R 8197  -0.261   5.743   9.772 -0.3894  1.3916 -1.8620
   86SAPS   C29 8198  -0.236   5.644   9.587 -0.0302 -0.4069 -0.1358
   86SAPS   H9R 8199  -0.303   5.719   9.540  0.1467 -0.2768 -0.1832
   86SAPS  C210 8200  -0.180   5.529   9.503  0.0912 -0.3911  0.0669
   86SAPS  H10R 8201  -0.241   5.518   9.411  1.2788 -0.8631 -0.6895
   86SAPS  H10S 8202  -0.193   5.428   9.547 -1.4202 -0.9004 -1.4390
   86SAPS  C211 8203  -0.031   5.548   9.471  0.4866 -0.9829 -0.9492
   86SAPS  H11R 8204   0.034   5.549   9.559 -0.6178 -1.8233 -0.0952
   86SAPS  C212 8205   0.019   5.572   9.349  0.8217  0.3255  0.0031
   86SAPS  H12R 8206   0.127   5.590   9.336  0.5617  2.9032  0.9343
   86SAPS  C213 8207  -0.055   5.592   9.218  0.4265 -0.7372 -0.1021
   86SAPS  H13R 8208  -0.154   5.642   9.231  0.8027  0.1138 -0.4374
   86SAPS  H13S 8209  -0.086   5.490   9.187  2.3447 -1.2504 -0.4371
   86SAPS  C214 8210   0.033   5.666   9.117  0.7243  0.6430  0.1329
   86SAPS  H14R 8211   0.078   5.762   9.147  2.2198  0.0066 -0.0170
   86SAPS  C215 8212   0.037   5.656   8.984  0.2141 -0.2991 -0.1433
   86SAPS  H15R 8213   0.111   5.720   8.932  1.4365 -1.6021 -0.0603
   86SAPS  C216 8214  -0.036   5.566   8.892  0.2611 -0.4778 -0.0431
   86SAPS  H16R 8215  -0.022   5.591   8.785 -1.3324  0.7258 -0.0097
   86SAPS  H16S 8216  -0.144   5.553   8.915  0.3904 -1.7334 -0.0314
   86SAPS  C217 8217   0.027   5.423   8.897 -0.2950 -0.0662 -0.1735
   86SAPS  H17R 8218  -0.041   5.353   8.844  0.1471 -1.8966  1.5718
   86SAPS  H17S 8219   0.018   5.387   9.002  1.6817  1.0865  0.4515
   86SAPS  C218 8220   0.167   5.399   8.835  0.3429 -0.3346 -0.5348
   86SAPS  H18R 8221   0.237   5.479   8.869 -2.1156  1.5773  0.4002
   86SAPS  H18S 8222   0.163   5.416   8.726  0.7054  0.9284 -0.3769
   86SAPS  C219 8223   0.223   5.260   8.860  0.6630  0.5318 -0.1629
   86SAPS  H19R 8224   0.144   5.186   8.835  2.6681 -1.9980  0.4933
   86SAPS  H19S 8225   0.251   5.246   8.967  2.1950 -3.8859 -0.9083
   86SAPS  C220 8226   0.334   5.219   8.760 -0.0501  0.1876  0.5503
   86SAPS  H20R 8227   0.302   5.252   8.659  0.4506  0.3512  0.4423
   86SAPS  H20S 8228   0.339   5.110   8.744  1.0849  0.5923 -2.5514
   86SAPS  H20T 8229   0.438   5.252   8.780  1.2442 -2.5219 -1.2300
   86SAPS   C33 8230  -0.022   5.182   9.902 -0.0969  0.7484  1.0364
   86SAPS   H3X 8231   0.081   5.192   9.861 -0.5703  0.1734 -0.3451
   86SAPS   H3Y 8232  -0.074   5.278   9.880 -1.0444  0.2096  0.8497
   86SAPS   C34 8233  -0.092   5.062   9.844  0.3411 -0.1087  0.1389
   86SAPS   H4X 8234  -0.195   5.046   9.884  0.8753 -0.8382  1.2554
   86SAPS   H4Y 8235  -0.061   4.972   9.901 -1.2999 -1.1541 -0.5215
   86SAPS   C35 8236  -0.098   5.047   9.694 -0.4735 -0.4004  0.6267
   86SAPS   H5X 8237  -0.164   4.966   9.657  0.6138 -1.0037 -0.0433
   86SAPS   H5Y 8238   0.009   5.036   9.667 -0.5784  0.1859 -0.0760
   86SAPS   C36 8239  -0.135   5.173   9.604 -0.1215  0.8536  0.3681
   86SAPS   H6X 8240  -0.075   5.265   9.623  0.6434  0.4658 -0.0967
   86SAPS   H6Y 8241  -0.244   5.189   9.614 -0.5277 -1.0784 -0.5951
   86SAPS   C37 8242  -0.096   5.131   9.457  0.1290  0.1607  0.3116
   86SAPS   H7X 8243   0.013   5.111   9.451  0.3841  1.5982 -4.3820
   86SAPS   H7Y 8244  -0.114   5.223   9.398 -0.5194 -0.5183 -0.5949
   86SAPS   C38 8245  -0.186   5.022   9.393  0.1098 -0.3044  0.0288
   86SAPS   H8X 8246  -0.293   5.050   9.395 -0.0142 -0.7539 -0.2065
   86SAPS   H8Y 8247  -0.182   4.932   9.458  0.4028  0.5832  1.2757
   86SAPS   C39 8248  -0.132   4.978   9.251 -0.1832 -0.2378 -0.1286
   86SAPS   H9X 8249  -0.168   4.873   9.243  0.1819 -0.4759  1.1528
   86SAPS   H9Y 8250  -0.023   4.966   9.237 -0.2428 -1.3230  0.2122
   86SAPS  C310 8251  -0.186   5.067   9.134  0.9899  0.4794 -0.2542
   86SAPS  H10X 8252  -0.143   5.169   9.139  0.3470  0.7408  0.1532
   86SAPS  H10Y 8253  -0.296   5.080   9.123  1.0194 -0.0632 -1.3479
   86SAPS  C311 8254  -0.136   5.001   9.002 -0.2455 -0.0240 -0.6157
   86SAPS  H11X 8255  -0.032   4.971   9.028  0.1221  1.8166  0.1839
   86SAPS  H11Y 8256  -0.131   5.080   8.925  0.0012  2.0181  1.3952
   86SAPS  C312 8257  -0.231   4.889   8.959  0.0477 -0.0697 -0.5259
   86SAPS  H12X 8258  -0.337   4.925   8.960  0.2763  0.6772 -1.4906
   86SAPS  H12Y 8259  -0.224   4.801   9.026 -2.4531 -1.4236 -1.8896
   86SAPS  C313 8260  -0.198   4.831   8.820 -0.6155  0.4689 -0.3862
   86SAPS  H13X 8261  -0.109   4.766   8.831 -0.2669  1.3109  2.8153
   86SAPS  H13Y 8262  -0.172   4.915   8.752  1.1189  0.5805  0.3722
   86SAPS  C314 8263  -0.312   4.743   8.757 -0.3765  0.3878  0.1648
   86SAPS  H14X 8264  -0.409   4.798   8.761 -0.3647  0.6934 -2.2079
   86SAPS  H14Y 8265  -0.316   4.656   8.826 -0.4659 -0.1899 -0.5572
   86SAPS  C315 8266  -0.292   4.696   8.613 -0.1710  0.0993  0.3944
   86SAPS  H15X 8267  -0.193   4.647   8.606  0.2416  0.5672  2.2784
   86SAPS  H15Y 8268  -0.297   4.786   8.548  0.1984  0.0572  0.3059
   86SAPS  C316 8269  -0.399   4.593   8.559 -0.0800 -0.4866 -0.1839
   86SAPS  H16X 8270  -0.489   4.634   8.609 -0.0780 -2.3139  1.4286
   86SAPS  H16Y 8271  -0.371   4.495   8.602  0.6436 -0.3108 -0.2323
   86SAPS  C317 8272  -0.408   4.598   8.406 -0.6163 -0.0780 -0.4163
   86SAPS  H17X 8273  -0.423   4.706   8.383  1.0011  0.3866  0.5062
   86SAPS  H17Y 8274  -0.491   4.545   8.356 -1.8241  1.5750 -0.2406
   86SAPS  C318 8275  -0.279   4.563   8.328 -0.2050  0.0949 -0.2149
   86SAPS  H18X 8276  -0.202   4.625   8.377 -0.9138  0.0492  1.0107
   86SAPS  H18Y 8277  -0.286   4.591   8.221  1.1251 -2.5499 -1.0740
   86SAPS  H18Z 8278  -0.264   4.454   8.348 -1.9406  0.2537  2.5722
   87SAPS     N 8279   3.955   1.136  10.825  0.2590 -0.0336  0.9550
   87SAPS   HN1 8280   3.919   1.233  10.828 -0.6346 -0.3640  1.4075
   87SAPS   HN2 8281   3.996   1.115  10.732 -2.3641 -0.5823 -0.1940
   87SAPS   HN3 8282   3.880   1.064  10.821 -1.3857  1.6370 -1.2297
   87SAPS   C12 8283   4.050   1.128  10.940  0.5075  0.3768  0.6192
   87SAPS  H12A 8284   4.125   1.205  10.940 -0.3692  1.2571  0.3835
   87SAPS   C13 8285   3.992   1.120  11.080  0.1108 -0.1297  0.6035
   87SAPS  O13A 8286   3.870   1.129  11.096  0.1045  0.1498  0.0965
   87SAPS  O13B 8287   4.067   1.108  11.179 -0.0833  0.5184 -0.1818
   87SAPS   C11 8288   4.121   0.990  10.915  0.0067  0.0719  0.5553
   87SAPS  H11A 8289   4.051   0.906  10.937  2.1765 -1.9640  0.0416
   87SAPS  H11B 8290   4.199   0.970  10.991  0.5756 -3.5108 -0.8136
   87SAPS     P 8291   4.251   0.848  10.744  0.1793  0.2285 -0.0208
   87SAPS   O13 8292   4.284   0.769  10.866  0.1261 -0.3887  0.3545
   87SAPS   O14 8293   4.184   0.772  10.637 -1.0499 -0.3484 -0.4184
   87SAPS   O12 8294   4.162   0.981  10.779 -0.7686  0.0505  0.3356
   87SAPS   O11 8295   4.392   0.902  10.706  0.8001  0.5957  0.8839
   87SAPS    C1 8296   4.425   0.971  10.581 -0.2227  0.4285 -0.1628
   87SAPS    HA 8297   4.337   0.999  10.520  0.2499  0.4626 -0.8335
   87SAPS    HB 8298   4.460   1.073  10.608  0.2742 -0.2521  2.0036
   87SAPS    C2 8299   4.528   0.893  10.492 -0.7371 -0.3177  0.1755
   87SAPS    HS 8300   4.536   0.922  10.385  0.5575  0.5966  0.4858
   87SAPS   O21 8301   4.492   0.754  10.510  0.7338  0.0484 -0.6436
   87SAPS   C21 8302   4.396   0.717  10.419 -0.6676  0.3926  0.0027
   87SAPS   O22 8303   4.343   0.788  10.339 -0.0948 -0.0719  0.1282
   87SAPS   C22 8304   4.361   0.570  10.432 -0.2763 -0.0804 -0.5508
   87SAPS   H2R 8305   4.450   0.504  10.434  0.8190  1.3458 -0.4368
   87SAPS   H2S 8306   4.331   0.567  10.539  2.1027  2.9507  0.3421
   87SAPS    C3 8307   4.672   0.921  10.544 -0.0809  0.1181  0.4187
   87SAPS    HX 8308   4.734   0.837  10.505 -1.9012 -0.2596 -1.8327
   87SAPS    HY 8309   4.679   0.907  10.654 -0.4358  0.9654  0.5544
   87SAPS   O31 8310   4.736   1.041  10.491 -0.0372 -0.0058 -0.4650
   87SAPS   C31 8311   4.746   1.150  10.564  0.2507  0.1133 -0.2155
   87SAPS   O32 8312   4.686   1.170  10.675  0.0336  0.2064 -0.8286
   87SAPS   C32 8313   4.840   1.248  10.500  0.2532 -0.1861  0.4987
   87SAPS   H2X 8314   4.890   1.210  10.409  1.7415  1.2933  0.6452
   87SAPS   H2Y 8315   4.924   1.267  10.571 -0.9414 -1.7712  2.4620
   87SAPS   C23 8316   4.243   0.523  10.344 -0.2211  0.1189  1.0163
   87SAPS   H3R 8317   4.167   0.604  10.341 -0.2824  0.2223  3.4227
   87SAPS   H3S 8318   4.197   0.438  10.399 -0.9297 -0.2099 -0.0386
   87SAPS   C24 8319   4.278   0.472  10.205 -0.1775  0.2217 -0.1956
   87SAPS   H4R 8320   4.182   0.461  10.151 -0.2995  2.8645 -0.6683
   87SAPS   H4S 8321   4.319   0.371  10.225  0.7142  0.5112 -0.4882
   87SAPS   C25 8322   4.377   0.556  10.121 -0.2595 -0.5152 -0.5163
   87SAPS   H5R 8323   4.324   0.634  10.066 -0.8970 -0.0508  0.7104
   87SAPS   C26 8324   4.513   0.542  10.107  0.2126 -0.3058 -0.8043
   87SAPS   H6R 8325   4.566   0.614  10.042  0.0085  0.5743 -0.0210
   87SAPS   C27 8326   4.604   0.446  10.173 -0.0795  1.0570 -0.4479
   87SAPS   H7R 8327   4.656   0.392  10.091 -1.0091  0.1343 -0.4521
   87SAPS   H7S 8328   4.544   0.368  10.225  0.5978  1.1270  0.4694
   87SAPS   C28 8329   4.710   0.502  10.263 -0.1824  0.1243 -0.6321
   87SAPS   H8R 8330   4.676   0.544  10.359 -0.6695 -0.2978 -0.6213
   87SAPS   C29 8331   4.843   0.509  10.238 -0.8460  1.1089  0.3568
   87SAPS   H9R 8332   4.903   0.566  10.310 -2.3241  0.8457  1.8526
   87SAPS  C210 8333   4.908   0.451  10.110 -0.2123 -0.6550  0.1838
   87SAPS  H10R 8334   4.875   0.522  10.031  0.0351  0.1821  0.8112
   87SAPS  H10S 8335   4.864   0.356  10.072  1.1703 -0.5837 -1.7248
   87SAPS  C211 8336   5.059   0.435  10.127  0.2901 -0.8833  0.2195
   87SAPS  H11R 8337   5.091   0.371  10.210  2.0944 -0.3436 -0.0224
   87SAPS  C212 8338   5.157   0.499  10.057  0.2462  0.2964 -0.0280
   87SAPS  H12R 8339   5.259   0.478  10.094  0.0824 -0.2159  0.1361
   87SAPS  C213 8340   5.132   0.575   9.930 -0.1931  0.2206  0.2100
   87SAPS  H13R 8341   5.052   0.524   9.873 -2.4741  1.9417  1.6654
   87SAPS  H13S 8342   5.225   0.580   9.870  1.1103 -1.3612  1.9594
   87SAPS  C214 8343   5.068   0.709   9.952 -0.6379 -0.4462 -0.5648
   87SAPS  H14R 8344   5.005   0.726  10.041  2.5048 -0.8515  1.9079
   87SAPS  C215 8345   5.077   0.818   9.873 -0.5707  0.1840  0.2318
   87SAPS  H15R 8346   5.017   0.903   9.906 -3.6065 -1.5571 -0.4403
   87SAPS  C216 8347   5.161   0.838   9.748 -0.1444 -0.0151  0.4825
   87SAPS  H16R 8348   5.266   0.804   9.760 -0.5476 -0.8838  1.7235
   87SAPS  H16S 8349   5.156   0.945   9.721 -1.6685  0.3255  1.9552
   87SAPS  C217 8350   5.091   0.768   9.629 -0.1490  0.6611  0.3309
   87SAPS  H17R 8351   4.984   0.796   9.619 -0.4143 -0.5649 -0.5172
   87SAPS  H17S 8352   5.091   0.659   9.647 -3.0481 -0.3671 -4.3100
   87SAPS  C218 8353   5.149   0.789   9.489 -0.2084 -0.5084 -0.0112
   87SAPS  H18R 8354   5.258   0.773   9.501 -0.1544  1.0457  2.5110
   87SAPS  H18S 8355   5.129   0.895   9.461  0.6386 -0.1016  0.8568
   87SAPS  C219 8356   5.090   0.695   9.382 -0.0523 -0.8803  0.9332
   87SAPS  H19R 8357   4.985   0.727   9.363  0.1773 -0.7536 -0.1936
   87SAPS  H19S 8358   5.100   0.597   9.433 -0.0835 -0.7869  1.1190
   87SAPS  C220 8359   5.163   0.694   9.246 -0.0853  0.2493  0.2956
   87SAPS  H20R 8360   5.274   0.685   9.251 -0.1663 -0.2231  1.5669
   87SAPS  H20S 8361   5.136   0.777   9.177 -2.6107  0.0921  0.9985
   87SAPS  H20T 8362   5.132   0.601   9.194 -0.6912  1.5066 -1.6694
   87SAPS   C33 8363   4.769   1.387  10.468 -0.2889 -0.3758 -0.3994
   87SAPS   H3X 8364   4.849   1.448  10.423 -0.5490 -0.2630 -0.7144
   87SAPS   H3Y 8365   4.739   1.428  10.567 -0.6438 -0.2359 -0.5610
   87SAPS   C34 8366   4.641   1.369  10.386  0.3872 -0.2109  0.7363
   87SAPS   H4X 8367   4.608   1.471  10.356 -1.1415 -0.4665  1.4558
   87SAPS   H4Y 8368   4.559   1.335  10.453 -0.5563  0.1807 -0.1746
   87SAPS   C35 8369   4.649   1.283  10.261 -0.4037  0.5063 -0.7904
   87SAPS   H5X 8370   4.690   1.184  10.288 -1.7467  0.4299  1.2115
   87SAPS   H5Y 8371   4.716   1.328  10.185 -0.2550 -2.1382 -2.3576
   87SAPS   C36 8372   4.509   1.266  10.203  0.1079  0.0503  0.2410
   87SAPS   H6X 8373   4.474   1.366  10.168 -0.3485 -0.9342 -2.4277
   87SAPS   H6Y 8374   4.434   1.220  10.271  1.3157 -0.4142  1.2822
   87SAPS   C37 8375   4.525   1.195  10.066  0.3149  0.2987 -0.5276
   87SAPS   H7X 8376   4.610   1.245  10.016  0.4387 -0.9785 -1.6354
   87SAPS   H7Y 8377   4.443   1.230   9.999  1.5719  1.6654 -1.4288
   87SAPS   C38 8378   4.535   1.037  10.074  0.2342 -0.4003  0.0476
   87SAPS   H8X 8379   4.437   1.009  10.119 -0.6203  2.0810 -0.0888
   87SAPS   H8Y 8380   4.612   1.010  10.149 -0.2427  1.3692  1.2482
   87SAPS   C39 8381   4.579   0.992   9.933  0.4989 -0.3300  0.1719
   87SAPS   H9X 8382   4.680   1.036   9.918 -0.1010  1.3861  0.9767
   87SAPS   H9Y 8383   4.516   1.028   9.849  0.3651  1.6280  1.0708
   87SAPS  C310 8384   4.585   0.843   9.919  0.1083 -0.9248  0.4220
   87SAPS  H10X 8385   4.487   0.800   9.949 -0.0354  0.2540  1.7277
   87SAPS  H10Y 8386   4.658   0.798   9.990  2.8804  1.5983 -0.5954
   87SAPS  C311 8387   4.630   0.814   9.772 -0.2012  0.4327 -0.5103
   87SAPS  H11X 8388   4.740   0.831   9.766 -0.0593 -0.1914  0.1748
   87SAPS  H11Y 8389   4.557   0.865   9.706 -3.1059 -2.5654  0.1544
   87SAPS  C312 8390   4.631   0.662   9.717 -0.2122  0.4989  0.5871
   87SAPS  H12X 8391   4.524   0.633   9.709  0.0316 -0.8107  1.8672
   87SAPS  H12Y 8392   4.680   0.581   9.774  0.4147  0.1571 -0.4192
   87SAPS  C313 8393   4.693   0.644   9.577 -0.2168  0.0060 -0.1282
   87SAPS  H13X 8394   4.798   0.678   9.587 -0.5555  1.1075 -0.1691
   87SAPS  H13Y 8395   4.650   0.728   9.519 -1.1551 -1.6056 -1.8806
   87SAPS  C314 8396   4.665   0.508   9.507 -0.5236  0.5237 -0.1356
   87SAPS  H14X 8397   4.556   0.487   9.498 -0.3004 -0.8401  0.0124
   87SAPS  H14Y 8398   4.709   0.423   9.564  0.3625  1.3355  0.4146
   87SAPS  C315 8399   4.726   0.502   9.364 -0.1193  0.1751  0.9329
   87SAPS  H15X 8400   4.740   0.398   9.326 -0.2810  0.5916 -0.3266
   87SAPS  H15Y 8401   4.826   0.550   9.372 -0.5079  0.8975  1.5651
   87SAPS  C316 8402   4.650   0.588   9.265 -0.8677  0.0629  0.2315
   87SAPS  H16X 8403   4.660   0.694   9.295  0.0059  0.7972 -2.3452
   87SAPS  H16Y 8404   4.543   0.565   9.281 -0.6439 -0.3938  1.1092
   87SAPS  C317 8405   4.684   0.553   9.120  0.1482  0.3390  0.0011
   87SAPS  H17X 8406   4.610   0.604   9.054  1.3865  0.1348 -1.5862
   87SAPS  H17Y 8407   4.672   0.443   9.115  0.2351  0.3810 -1.5952
   87SAPS  C318 8408   4.816   0.606   9.070  0.3757  0.0946  0.1472
   87SAPS  H18X 8409   4.841   0.587   8.964 -0.6765 -2.2777  0.2544
   87SAPS  H18Y 8410   4.907   0.561   9.116  0.9506 -0.7264 -1.7102
   87SAPS  H18Z 8411   4.817   0.716   9.084 -2.1280  0.3180 -0.9381
   88SAPS     N 8412   6.490   4.483  10.747 -0.7076  0.1062  0.2213
   88SAPS   HN1 8413   6.387   4.488  10.753 -0.8853 -1.7550 -0.5346
   88SAPS   HN2 8414   6.531   4.572  10.711 -2.8109  0.3256 -1.9151
   88SAPS   HN3 8415   6.512   4.407  10.679 -0.6403 -0.3632  0.7591
   88SAPS   C12 8416   6.551   4.455  10.889 -0.0396 -0.0135  1.0604
   88SAPS  H12A 8417   6.658   4.443  10.881  0.1468  2.3375 -2.7706
   88SAPS   C13 8418   6.524   4.583  10.984  0.2634  0.8396 -0.1018
   88SAPS  O13A 8419   6.470   4.687  10.943  0.1884  0.0188  0.6310
   88SAPS  O13B 8420   6.571   4.571  11.103  0.1029 -0.1101 -0.8577
   88SAPS   C11 8421   6.490   4.321  10.948  0.1412  0.1989 -0.5020
   88SAPS  H11A 8422   6.385   4.334  10.983 -0.0837 -3.2559  0.4760
   88SAPS  H11B 8423   6.548   4.285  11.036 -0.3928  1.7848  0.5511
   88SAPS     P 8424   6.515   4.079  10.875 -0.2012 -0.1664 -0.1778
   88SAPS   O13 8425   6.624   4.069  10.979  0.6955  0.3138 -0.0279
   88SAPS   O14 8426   6.386   4.006  10.886  0.4386  0.5599 -0.2195
   88SAPS   O12 8427   6.488   4.230  10.851 -0.0278  0.2255  0.8255
   88SAPS   O11 8428   6.578   4.035  10.730  0.1726  0.3664  0.0544
   88SAPS    C1 8429   6.687   4.110  10.674  0.3723  0.7226  0.4201
   88SAPS    HA 8430   6.672   4.219  10.693 -2.1091  0.7458 -1.2409
   88SAPS    HB 8431   6.784   4.085  10.723 -0.7132  1.0687  2.8904
   88SAPS    C2 8432   6.685   4.105  10.518  0.7351  0.3579 -0.5528
   88SAPS    HS 8433   6.738   4.195  10.480 -0.1212  0.7240 -0.9063
   88SAPS   O21 8434   6.549   4.098  10.458 -0.9355  0.3768 -0.3468
   88SAPS   C21 8435   6.474   4.200  10.495  0.7952 -0.6571  0.3315
   88SAPS   O22 8436   6.508   4.303  10.553 -0.6738  0.4080  0.2174
   88SAPS   C22 8437   6.328   4.156  10.477 -0.0881 -0.2332 -0.4137
   88SAPS   H2R 8438   6.281   4.189  10.381 -0.8931  0.9430  0.3584
   88SAPS   H2S 8439   6.327   4.048  10.502  0.9614 -0.2851 -0.5512
   88SAPS    C3 8440   6.764   3.977  10.474  0.1563 -0.9312 -0.0798
   88SAPS    HX 8441   6.705   3.889  10.507 -3.3974  0.8181 -1.2764
   88SAPS    HY 8442   6.866   3.979  10.517  1.7664 -0.3987 -3.5542
   88SAPS   O31 8443   6.773   3.967  10.329 -0.5807 -0.7826  0.0690
   88SAPS   C31 8444   6.880   3.903  10.284  1.1745  0.3265 -0.3535
   88SAPS   O32 8445   6.975   3.855  10.348  0.0469 -0.0216  0.5041
   88SAPS   C32 8446   6.867   3.890  10.135  0.3519  0.1068  0.3599
   88SAPS   H2X 8447   6.954   3.945  10.092 -0.1663  1.7565  1.2878
   88SAPS   H2Y 8448   6.780   3.951  10.102 -0.1800 -0.0701  1.3942
   88SAPS   C23 8449   6.242   4.205  10.592 -0.0049 -0.4464  0.1948
   88SAPS   H3R 8450   6.230   4.315  10.586  2.5472  0.0801  2.6449
   88SAPS   H3S 8451   6.286   4.187  10.692  0.0492 -2.5655 -0.1584
   88SAPS   C24 8452   6.100   4.134  10.604 -0.5820 -0.6924  0.6128
   88SAPS   H4R 8453   6.058   4.145  10.502 -0.3913  1.8392  0.7461
   88SAPS   H4S 8454   6.035   4.191  10.673 -1.2961 -2.8802  1.8507
   88SAPS   C25 8455   6.075   3.991  10.642  0.0010 -0.1901 -0.2252
   88SAPS   H5R 8456   6.090   3.971  10.750 -1.4631  1.1998  0.2732
   88SAPS   C26 8457   6.048   3.881  10.566  0.0444  0.3519 -0.3754
   88SAPS   H6R 8458   6.031   3.789  10.624 -1.3386 -0.4465 -1.9929
   88SAPS   C27 8459   6.027   3.852  10.415  0.5836 -1.2141  0.4484
   88SAPS   H7R 8460   6.087   3.764  10.382  0.0174 -1.2113 -0.6382
   88SAPS   H7S 8461   6.061   3.942  10.359  0.9868 -0.8318  1.2913
   88SAPS   C28 8462   5.878   3.827  10.397  0.1889 -0.1616  0.5406
   88SAPS   H8R 8463   5.817   3.830  10.489  0.2341 -1.7543  0.6567
   88SAPS   C29 8464   5.809   3.818  10.283 -0.3188  0.4878 -0.4448
   88SAPS   H9R 8465   5.699   3.811  10.288 -0.2143 -0.6961  0.5362
   88SAPS  C210 8466   5.860   3.835  10.145 -0.8128  0.3177  0.0414
   88SAPS  H10R 8467   5.862   3.732  10.103  0.9039 -0.0320  0.8909
   88SAPS  H10S 8468   5.965   3.870  10.154 -0.9013  0.4136  0.6913
   88SAPS  C211 8469   5.795   3.940  10.059 -1.0334 -0.0175 -0.1914
   88SAPS  H11R 8470   5.769   4.033  10.110 -0.3226 -0.2424  0.6141
   88SAPS  C212 8471   5.748   3.926   9.931 -0.7454 -0.7826  0.0658
   88SAPS  H12R 8472   5.711   4.013   9.874 -1.9950 -1.3221  0.0287
   88SAPS  C213 8473   5.752   3.799   9.848 -0.3831 -0.5269 -0.3357
   88SAPS  H13R 8474   5.658   3.797   9.789  0.2618 -1.0621 -1.3764
   88SAPS  H13S 8475   5.732   3.716   9.918 -0.6477  0.3378  0.6358
   88SAPS  C214 8476   5.876   3.783   9.762  0.1900 -0.0424 -0.9551
   88SAPS  H14R 8477   5.965   3.737   9.808 -0.2141  0.6535  0.5876
   88SAPS  C215 8478   5.887   3.825   9.636  0.5101  0.2335 -0.0154
   88SAPS  H15R 8479   5.967   3.791   9.569 -1.2658 -2.1162 -1.0814
   88SAPS  C216 8480   5.767   3.893   9.568  0.0265 -0.2432 -0.0099
   88SAPS  H16R 8481   5.730   3.982   9.624 -4.5175 -0.8367 -1.6131
   88SAPS  H16S 8482   5.691   3.812   9.576 -2.0863  1.6611  0.3848
   88SAPS  C217 8483   5.787   3.938   9.424  0.0640  0.2639  0.4753
   88SAPS  H17R 8484   5.876   4.004   9.414 -0.7642  1.2966 -0.5078
   88SAPS  H17S 8485   5.695   3.989   9.388 -1.4487 -0.8656  2.5423
   88SAPS  C218 8486   5.804   3.815   9.325 -0.6524 -0.3590  0.3703
   88SAPS  H18R 8487   5.701   3.773   9.318 -1.1311  0.9973 -1.2751
   88SAPS  H18S 8488   5.862   3.733   9.373  0.4765 -0.5783 -1.3008
   88SAPS  C219 8489   5.845   3.851   9.182 -0.8385 -0.3698 -0.3268
   88SAPS  H19R 8490   5.861   3.763   9.116  0.7006  1.2695 -2.2987
   88SAPS  H19S 8491   5.945   3.899   9.179 -0.7551 -0.4764  0.5549
   88SAPS  C220 8492   5.752   3.959   9.111 -0.4202  0.0172 -0.2140
   88SAPS  H20R 8493   5.768   4.061   9.152 -1.8951  0.0738  0.2901
   88SAPS  H20S 8494   5.647   3.930   9.135 -0.0285 -0.9686  0.3593
   88SAPS  H20T 8495   5.772   3.961   9.002 -2.3148  0.4745 -0.5923
   88SAPS   C33 8496   6.853   3.744  10.089  0.1429  0.8151  0.3136
   88SAPS   H3X 8497   6.758   3.694  10.118 -0.6858  1.8741 -0.4972
   88SAPS   H3Y 8498   6.923   3.677  10.142 -1.9225 -1.2725  0.5862
   88SAPS   C34 8499   6.880   3.713   9.938  0.0265  0.8133  0.8306
   88SAPS   H4X 8500   6.818   3.777   9.871 -0.1652 -0.8978 -0.7489
   88SAPS   H4Y 8501   6.842   3.609   9.923  0.0676  0.3683  3.3544
   88SAPS   C35 8502   7.027   3.715   9.900 -0.5491  0.1391  0.2293
   88SAPS   H5X 8503   7.087   3.647   9.964 -0.2235  0.9917  0.8485
   88SAPS   H5Y 8504   7.070   3.815   9.924 -0.7407  0.5201 -0.9583
   88SAPS   C36 8505   7.043   3.686   9.752 -0.1614 -0.1640 -0.4990
   88SAPS   H6X 8506   6.973   3.754   9.700 -2.6937 -1.9149  0.4501
   88SAPS   H6Y 8507   7.014   3.579   9.743  1.5072 -0.8758  1.6747
   88SAPS   C37 8508   7.193   3.702   9.711 -0.0652  0.2474  0.2623
   88SAPS   H7X 8509   7.219   3.639   9.624 -0.5794  0.2474  0.1035
   88SAPS   H7Y 8510   7.259   3.680   9.798  1.8367  2.0356 -0.6538
   88SAPS   C38 8511   7.223   3.847   9.673 -0.2974  0.1980  0.1548
   88SAPS   H8X 8512   7.176   3.915   9.748  0.1265  0.3030  0.3294
   88SAPS   H8Y 8513   7.182   3.870   9.572 -0.8917 -2.3498 -0.2495
   88SAPS   C39 8514   7.372   3.882   9.679  0.3339  0.0171  0.2784
   88SAPS   H9X 8515   7.427   3.809   9.614 -1.4948 -0.7897 -0.4284
   88SAPS   H9Y 8516   7.406   3.862   9.783 -0.5726 -0.9899  0.4065
   88SAPS  C310 8517   7.397   4.033   9.644 -0.0870 -0.6555 -0.7707
   88SAPS  H10X 8518   7.506   4.052   9.650 -0.3993  1.8551 -1.7722
   88SAPS  H10Y 8519   7.345   4.093   9.722  1.3333  0.0984 -0.3776
   88SAPS  C311 8520   7.351   4.074   9.500  0.3434 -0.3629  0.0173
   88SAPS  H11X 8521   7.249   4.117   9.493  1.6525  2.9262 -0.6685
   88SAPS  H11Y 8522   7.365   3.985   9.435  0.0479  0.8408 -1.7780
   88SAPS  C312 8523   7.439   4.188   9.437  0.3853  0.2471 -0.2346
   88SAPS  H12X 8524   7.547   4.164   9.432  0.5048  0.4720  0.8807
   88SAPS  H12Y 8525   7.437   4.271   9.511 -1.4183  2.0477 -2.1795
   88SAPS  C313 8526   7.394   4.234   9.304  0.0950 -0.1832  0.3888
   88SAPS  H13X 8527   7.468   4.312   9.274  0.3853 -0.1265  1.2298
   88SAPS  H13Y 8528   7.292   4.278   9.308  0.6669  1.1588  1.0932
   88SAPS  C314 8529   7.395   4.132   9.193 -0.3673 -0.2542 -0.2635
   88SAPS  H14X 8530   7.333   4.042   9.212  1.5504 -1.4648  0.5336
   88SAPS  H14Y 8531   7.499   4.094   9.187 -0.3702 -0.3824  0.4414
   88SAPS  C315 8532   7.371   4.206   9.067 -0.3641  0.2625 -0.5750
   88SAPS  H15X 8533   7.465   4.264   9.054  0.7628 -1.6918 -1.7489
   88SAPS  H15Y 8534   7.284   4.275   9.078 -1.0298 -0.7792  1.0204
   88SAPS  C316 8535   7.360   4.122   8.942  0.7816  0.5836  0.3136
   88SAPS  H16X 8536   7.287   4.040   8.959  0.5118  1.1909  2.4555
   88SAPS  H16Y 8537   7.455   4.065   8.943 -0.7163 -2.0481  1.4094
   88SAPS  C317 8538   7.346   4.191   8.808  1.3247 -0.3590 -0.9993
   88SAPS  H17X 8539   7.433   4.256   8.784  0.4499  0.3140 -2.5048
   88SAPS  H17Y 8540   7.256   4.256   8.814  0.4064 -1.5798 -1.1988
   88SAPS  C318 8541   7.330   4.085   8.699  0.4239 -1.2057 -0.1819
   88SAPS  H18X 8542   7.318   4.130   8.598  2.4255 -0.7482 -0.2481
   88SAPS  H18Y 8543   7.238   4.025   8.718 -0.8185  0.5716 -0.3628
   88SAPS  H18Z 8544   7.425   4.028   8.688  0.8520 -0.7793  1.1770
   89SAPS     N 8545   6.758   6.100  11.222  0.7222  0.0176  0.2098
   89SAPS   HN1 8546   6.808   6.053  11.300  1.1078 -1.0747 -0.6675
   89SAPS   HN2 8547   6.786   6.051  11.135  0.6485  0.7331 -0.2295
   89SAPS   HN3 8548   6.777   6.203  11.226  0.4291  0.2704 -2.5893
   89SAPS   C12 8549   6.610   6.084  11.233  0.0936 -0.6744  0.0617
   89SAPS  H12A 8550   6.579   5.986  11.267 -1.4073  0.8900  3.8001
   89SAPS   C13 8551   6.550   6.182  11.339  0.2924  0.0954  0.3750
   89SAPS  O13A 8552   6.633   6.239  11.415  0.7152  0.3871  0.3673
   89SAPS  O13B 8553   6.428   6.185  11.357  0.2472 -0.1236  0.5709
   89SAPS   C11 8554   6.546   6.117  11.094 -0.7414 -0.4908  0.7419
   89SAPS  H11A 8555   6.569   6.223  11.066 -1.3409 -0.5146  0.1532
   89SAPS  H11B 8556   6.436   6.114  11.104 -0.9893 -0.6475 -1.5950
   89SAPS     P 8557   6.523   6.020  10.854 -0.2982  0.1374 -0.2239
   89SAPS   O13 8558   6.626   5.984  10.755 -0.1818  0.3847  0.5443
   89SAPS   O14 8559   6.415   5.923  10.885  0.4814 -0.6244  0.3262
   89SAPS   O12 8560   6.598   6.038  10.990  0.0494  0.0152 -0.4461
   89SAPS   O11 8561   6.455   6.158  10.807  0.1248  0.5521  0.0555
   89SAPS    C1 8562   6.358   6.144  10.699  0.2705 -0.4990 -0.3937
   89SAPS    HA 8563   6.275   6.073  10.720  2.2254 -3.0564 -0.8046
   89SAPS    HB 8564   6.307   6.241  10.680  1.1880 -0.3640 -2.4051
   89SAPS    C2 8565   6.410   6.104  10.554  0.7058 -0.1414 -0.7554
   89SAPS    HS 8566   6.446   6.000  10.555  0.5805 -0.2035 -1.7401
   89SAPS   O21 8567   6.526   6.192  10.529  0.4076 -0.0636 -0.0561
   89SAPS   C21 8568   6.624   6.149  10.451 -0.0001  0.0644  0.0508
   89SAPS   O22 8569   6.632   6.039  10.406  0.6995 -0.3074 -0.1138
   89SAPS   C22 8570   6.736   6.255  10.434  0.4881  1.2803  0.5184
   89SAPS   H2R 8571   6.682   6.353  10.439  0.4265  1.4348 -2.0340
   89SAPS   H2S 8572   6.795   6.234  10.526  1.4390 -1.1749 -0.6006
   89SAPS    C3 8573   6.310   6.112  10.436 -0.5077  0.4354  0.4710
   89SAPS    HX 8574   6.285   6.219  10.420 -0.1942  0.5016  0.4237
   89SAPS    HY 8575   6.226   6.044  10.462  1.2809 -1.6471  1.1970
   89SAPS   O31 8576   6.376   6.069  10.317 -0.7558 -0.1829  0.1227
   89SAPS   C31 8577   6.371   5.944  10.281 -0.1900 -0.6053  0.1202
   89SAPS   O32 8578   6.326   5.852  10.344 -0.0239 -0.3337 -0.1945
   89SAPS   C32 8579   6.453   5.933  10.153  0.7837 -0.2511  0.5294
   89SAPS   H2X 8580   6.487   5.828  10.142  1.7012  0.1427 -0.5729
   89SAPS   H2Y 8581   6.543   5.998  10.160 -0.1862  1.4608 -1.5870
   89SAPS   C23 8582   6.826   6.250  10.309 -0.2026 -0.0528 -0.0241
   89SAPS   H3R 8583   6.842   6.149  10.265  0.7582  0.4842 -0.9693
   89SAPS   H3S 8584   6.925   6.289  10.343 -0.0993 -0.5391  0.2550
   89SAPS   C24 8585   6.765   6.342  10.197 -0.5739 -0.4578  0.0220
   89SAPS   H4R 8586   6.751   6.445  10.234  0.8790  0.0205 -0.6912
   89SAPS   H4S 8587   6.662   6.304  10.176 -0.8546  0.1804  0.2271
   89SAPS   C25 8588   6.854   6.357  10.075  0.2720  0.2095  0.2953
   89SAPS   H5R 8589   6.943   6.422  10.085 -0.5172  1.5697 -1.0818
   89SAPS   C26 8590   6.829   6.294   9.958 -0.4178  0.0591  0.2832
   89SAPS   H6R 8591   6.902   6.295   9.875  0.2547 -3.9654  0.6327
   89SAPS   C27 8592   6.714   6.207   9.921 -0.7002  0.0475 -0.4352
   89SAPS   H7R 8593   6.679   6.250   9.825  3.4697  0.2410 -2.0672
   89SAPS   H7S 8594   6.632   6.227   9.993 -1.6936  0.5989 -1.6707
   89SAPS   C28 8595   6.730   6.056   9.914 -0.7055 -0.5037 -0.2766
   89SAPS   H8R 8596   6.716   6.007  10.011 -3.7606  1.6246  0.5239
   89SAPS   C29 8597   6.744   5.984   9.802  0.0348 -0.0411  0.0853
   89SAPS   H9R 8598   6.758   5.875   9.805  1.8589  0.1894  2.2739
   89SAPS  C210 8599   6.756   6.049   9.663  0.5611  0.7480 -0.6233
   89SAPS  H10R 8600   6.814   5.980   9.599  3.1793  1.7622  0.5341
   89SAPS  H10S 8601   6.817   6.141   9.667  3.6617 -1.2287  1.5545
   89SAPS  C211 8602   6.631   6.076   9.591 -0.1944  0.6544  0.0706
   89SAPS  H11R 8603   6.545   6.090   9.658  0.5437  2.9711  0.6201
   89SAPS  C212 8604   6.617   6.080   9.451  0.1705 -0.7235 -0.4253
   89SAPS  H12R 8605   6.515   6.091   9.411  0.3537  0.4397 -0.6122
   89SAPS  C213 8606   6.722   6.064   9.345  0.0404  0.0212 -0.4396
   89SAPS  H13R 8607   6.708   5.966   9.295  2.4555 -0.2532 -0.6866
   89SAPS  H13S 8608   6.820   6.044   9.394 -0.0572 -3.9717 -1.5018
   89SAPS  C214 8609   6.720   6.189   9.256 -0.3012 -0.4063  0.3141
   89SAPS  H14R 8610   6.768   6.274   9.305 -0.4286 -0.3077  0.2691
   89SAPS  C215 8611   6.683   6.191   9.124 -0.5383 -0.1536 -0.2355
   89SAPS  H15R 8612   6.677   6.290   9.078 -0.7042 -0.6527 -1.3326
   89SAPS  C216 8613   6.628   6.083   9.037  0.6201  0.9447  0.5735
   89SAPS  H16R 8614   6.550   6.123   8.969 -0.6026  0.2863  1.5534
   89SAPS  H16S 8615   6.582   5.990   9.078  1.7471  0.1616  0.0934
   89SAPS  C217 8616   6.755   6.033   8.959 -0.6179 -0.5782  0.2371
   89SAPS  H17R 8617   6.792   5.945   9.015  1.3598  0.0545 -0.0136
   89SAPS  H17S 8618   6.827   6.117   8.951 -2.0331  0.5925 -0.9652
   89SAPS  C218 8619   6.726   5.996   8.813 -0.1999 -0.1141 -0.3782
   89SAPS  H18R 8620   6.633   5.938   8.798  0.2862 -1.5980  1.8362
   89SAPS  H18S 8621   6.811   5.927   8.791 -0.4614 -0.4936 -0.2021
   89SAPS  C219 8622   6.729   6.112   8.709 -0.4817  0.5362 -0.0684
   89SAPS  H19R 8623   6.819   6.173   8.732 -1.0112  0.0877  3.6685
   89SAPS  H19S 8624   6.636   6.172   8.715 -1.0149 -0.3782  1.3051
   89SAPS  C220 8625   6.736   6.049   8.569  0.0612  0.1369 -0.0194
   89SAPS  H20R 8626   6.834   5.998   8.557  0.1093  0.4346 -1.0164
   89SAPS  H20S 8627   6.727   6.129   8.492 -2.5350  0.2278  0.2928
   89SAPS  H20T 8628   6.650   5.983   8.548  0.7453 -0.7474 -0.0978
   89SAPS   C33 8629   6.379   5.973  10.015  0.2714 -0.2669 -0.1087
   89SAPS   H3X 8630   6.442   5.921   9.939  0.4287 -0.4938  0.1749
   89SAPS   H3Y 8631   6.409   6.079  10.007  2.7156 -0.8043  0.9690
   89SAPS   C34 8632   6.232   5.937   9.999  0.8042 -0.2561  0.1059
   89SAPS   H4X 8633   6.178   5.997  10.076 -0.0933  0.5602 -1.1166
   89SAPS   H4Y 8634   6.212   5.830  10.021 -2.4140  0.3442  0.6137
   89SAPS   C35 8635   6.175   5.978   9.867  0.3196  0.5582  0.1267
   89SAPS   H5X 8636   6.201   6.085   9.851 -2.2819  1.3084  0.2908
   89SAPS   H5Y 8637   6.065   5.997   9.858  0.2716  0.3600  0.2860
   89SAPS   C36 8638   6.215   5.882   9.754 -0.3925 -0.0516  0.7784
   89SAPS   H6X 8639   6.168   5.785   9.783 -0.2128 -0.1987  0.5879
   89SAPS   H6Y 8640   6.325   5.866   9.756 -0.5227 -1.5152 -0.8616
   89SAPS   C37 8641   6.176   5.933   9.612  0.4744 -0.4994 -0.2042
   89SAPS   H7X 8642   6.218   6.035   9.598  0.8392 -0.6221 -0.0343
   89SAPS   H7Y 8643   6.067   5.935   9.594  0.2152  0.2611  1.3197
   89SAPS   C38 8644   6.232   5.849   9.504  0.3124  0.7995  0.4419
   89SAPS   H8X 8645   6.169   5.759   9.488  3.1634 -1.0244 -1.6406
   89SAPS   H8Y 8646   6.335   5.811   9.523 -0.1822 -1.1451 -0.5130
   89SAPS   C39 8647   6.227   5.915   9.366 -0.3300  0.0249  0.2512
   89SAPS   H9X 8648   6.280   6.013   9.369 -2.2394  1.1681 -1.0982
   89SAPS   H9Y 8649   6.121   5.940   9.348  0.0465  1.6813  0.1606
   89SAPS  C310 8650   6.286   5.829   9.252 -0.0849  0.3725 -0.3649
   89SAPS  H10X 8651   6.253   5.724   9.263  1.9342 -0.4343 -1.6168
   89SAPS  H10Y 8652   6.396   5.836   9.260 -0.0238 -1.4375  1.0411
   89SAPS  C311 8653   6.248   5.880   9.114 -0.4451 -0.8473 -0.4315
   89SAPS  H11X 8654   6.296   5.835   9.025 -0.7715  1.9877 -2.1343
   89SAPS  H11Y 8655   6.263   5.990   9.113  0.8630 -0.9242  2.1786
   89SAPS  C312 8656   6.100   5.865   9.074 -0.0015 -0.0889  0.8089
   89SAPS  H12X 8657   6.035   5.926   9.140  0.8070  1.3939  0.2717
   89SAPS  H12Y 8658   6.076   5.758   9.060 -0.0839  0.3694 -4.4348
   89SAPS  C313 8659   6.075   5.917   8.920  0.1678  0.3762  1.0612
   89SAPS  H13X 8660   6.127   6.015   8.914 -0.6805  0.8384  1.2239
   89SAPS  H13Y 8661   5.966   5.932   8.908  0.5071  2.2297 -0.1234
   89SAPS  C314 8662   6.122   5.829   8.805 -0.4970 -0.3502  0.0177
   89SAPS  H14X 8663   6.223   5.798   8.840 -0.7921  0.0500  1.2640
   89SAPS  H14Y 8664   6.135   5.888   8.712  1.7265 -0.0763  0.4546
   89SAPS  C315 8665   6.032   5.714   8.763 -0.1320 -0.7541  0.3097
   89SAPS  H15X 8666   6.007   5.657   8.855  1.2324  1.8909  2.4336
   89SAPS  H15Y 8667   6.085   5.652   8.687 -1.6762 -0.7207 -0.8409
   89SAPS  C316 8668   5.900   5.762   8.703  0.5318  0.8998  0.1137
   89SAPS  H16X 8669   5.849   5.810   8.790 -0.9455 -0.3991 -0.0001
   89SAPS  H16Y 8670   5.852   5.667   8.672  3.9832 -0.6955 -0.7454
   89SAPS  C317 8671   5.926   5.837   8.577  0.4942 -0.4084 -0.3626
   89SAPS  H17X 8672   6.013   5.788   8.529  0.6171  0.0406 -0.6032
   89SAPS  H17Y 8673   5.957   5.938   8.611  0.5315 -0.5664  0.0832
   89SAPS  C318 8674   5.811   5.863   8.484 -0.4125  0.2452  0.1393
   89SAPS  H18X 8675   5.835   5.928   8.397 -0.2855 -1.3851 -1.0832
   89SAPS  H18Y 8676   5.728   5.910   8.541 -0.0981  0.1873  0.6484
   89SAPS  H18Z 8677   5.765   5.771   8.442  0.7594  0.5409 -1.9221
   90SAPS     N 8678   2.240   6.590  11.116 -0.6669  0.1060  0.2023
   90SAPS   HN1 8679   2.280   6.518  11.180 -0.2769  0.8305  0.7814
   90SAPS   HN2 8680   2.259   6.553  11.021  3.5174  0.6869  0.6313
   90SAPS   HN3 8681   2.309   6.666  11.131  1.0684 -1.0830 -1.2598
   90SAPS   C12 8682   2.107   6.623  11.170 -0.6401  0.3056  0.0300
   90SAPS  H12A 8683   2.039   6.541  11.153  0.7004 -1.0082  0.7599
   90SAPS   C13 8684   2.111   6.656  11.325 -0.4173 -0.5107  0.0081
   90SAPS  O13A 8685   2.222   6.670  11.391  0.3903 -0.3159 -0.2124
   90SAPS  O13B 8686   2.003   6.635  11.375 -0.4694 -0.0438  0.0645
   90SAPS   C11 8687   2.048   6.740  11.089  0.2969 -0.0426 -0.1255
   90SAPS  H11A 8688   2.102   6.834  11.112 -1.3845  0.8731  0.2146
   90SAPS  H11B 8689   1.947   6.760  11.129  0.0527 -1.1224 -0.1674
   90SAPS     P 8690   2.003   6.846  10.851  0.5032 -0.0208  0.1930
   90SAPS   O13 8691   1.859   6.865  10.852  0.6237 -0.2600  0.5995
   90SAPS   O14 8692   2.085   6.965  10.883  0.5856  0.3147 -0.1212
   90SAPS   O12 8693   2.045   6.721  10.942 -0.4960 -0.2520  0.6754
   90SAPS   O11 8694   2.039   6.783  10.711  0.1684 -0.1049  0.2098
   90SAPS    C1 8695   2.172   6.785  10.658 -0.0583 -0.2867  0.3177
   90SAPS    HA 8696   2.248   6.811  10.735 -0.6494  1.3841  0.3652
   90SAPS    HB 8697   2.196   6.682  10.623 -0.8867 -1.5365  3.0728
   90SAPS    C2 8698   2.173   6.877  10.528  0.2716  0.3116  0.1923
   90SAPS    HS 8699   2.133   6.977  10.554  1.7276  0.8839  0.3330
   90SAPS   O21 8700   2.105   6.817  10.425  0.2650 -0.7042 -0.3417
   90SAPS   C21 8701   2.040   6.899  10.343  0.0999  0.4872  0.2984
   90SAPS   O22 8702   2.045   7.021  10.353 -0.2614 -0.8555  0.2024
   90SAPS   C22 8703   1.971   6.818  10.244 -0.0572  0.2661 -0.1341
   90SAPS   H2R 8704   2.028   6.732  10.204 -1.1508 -1.1475  1.2557
   90SAPS   H2S 8705   1.877   6.781  10.291 -0.8016 -0.2315 -1.9382
   90SAPS    C3 8706   2.318   6.896  10.491 -0.1332 -0.0736  0.0647
   90SAPS    HX 8707   2.353   6.792  10.475 -0.8627 -0.2387 -0.4699
   90SAPS    HY 8708   2.363   6.954  10.574 -1.1618 -0.2834  0.7840
   90SAPS   O31 8709   2.340   6.962  10.365 -0.8615 -0.4787  0.5511
   90SAPS   C31 8710   2.343   7.093  10.366  0.1935 -0.0012  0.1594
   90SAPS   O32 8711   2.312   7.162  10.461 -0.0281 -0.1788 -0.8694
   90SAPS   C32 8712   2.368   7.153  10.230 -0.7214  0.1707  0.7343
   90SAPS   H2X 8713   2.471   7.137  10.191 -0.9286  1.6170 -0.4797
   90SAPS   H2Y 8714   2.352   7.263  10.239  0.3495  0.4366 -0.3730
   90SAPS   C23 8715   1.933   6.900  10.123 -0.3408  0.1316  0.1645
   90SAPS   H3R 8716   2.022   6.928  10.063  1.0389 -1.7779  1.1879
   90SAPS   H3S 8717   1.889   6.997  10.155  0.2000  1.0954 -1.8304
   90SAPS   C24 8718   1.805   6.831  10.050  0.8933 -0.2404  0.7145
   90SAPS   H4R 8719   1.775   6.879   9.954 -1.7062 -0.5652  1.2910
   90SAPS   H4S 8720   1.726   6.856  10.124  0.6677 -1.4129  0.8837
   90SAPS   C25 8721   1.821   6.682  10.025 -0.3657 -0.1854  0.0697
   90SAPS   H5R 8722   1.802   6.619  10.113 -3.2731  1.5819  0.8355
   90SAPS   C26 8723   1.877   6.628   9.907 -0.3394 -0.1315 -0.0502
   90SAPS   H6R 8724   1.883   6.519   9.895 -3.8796 -0.4173 -0.1812
   90SAPS   C27 8725   1.924   6.708   9.787  1.0031 -0.4842  0.0477
   90SAPS   H7R 8726   1.987   6.789   9.828  1.5870 -0.0342 -1.6957
   90SAPS   H7S 8727   1.846   6.768   9.736 -0.7148 -1.4732  1.3758
   90SAPS   C28 8728   2.005   6.623   9.692 -0.3447  0.1474  0.6538
   90SAPS   H8R 8729   2.072   6.548   9.735 -0.9065  0.3940  1.9888
   90SAPS   C29 8730   1.995   6.639   9.558  0.0760 -0.4735 -0.2029
   90SAPS   H9R 8731   2.045   6.568   9.490 -1.1174  0.0796 -1.7283
   90SAPS  C210 8732   1.913   6.737   9.481  0.6572  0.1020  0.4819
   90SAPS  H10R 8733   1.889   6.828   9.539  3.5764  0.4227  1.3237
   90SAPS  H10S 8734   1.819   6.687   9.447 -0.3090  2.0247  0.2221
   90SAPS  C211 8735   1.992   6.787   9.364  0.8468 -0.0340 -0.1980
   90SAPS  H11R 8736   2.101   6.801   9.375  0.8774  1.7700 -2.2315
   90SAPS  C212 8737   1.944   6.809   9.240 -0.0933 -0.0470  0.2342
   90SAPS  H12R 8738   2.019   6.845   9.168 -0.3417 -1.0337 -0.5404
   90SAPS  C213 8739   1.804   6.792   9.181  0.6397  0.3255 -0.0323
   90SAPS  H13R 8740   1.726   6.793   9.260  1.5965  1.1472  0.9328
   90SAPS  H13S 8741   1.800   6.700   9.119 -2.4291  1.1336 -1.2085
   90SAPS  C214 8742   1.766   6.899   9.081 -0.9276  0.5054  0.2941
   90SAPS  H14R 8743   1.734   6.997   9.121 -1.5248  0.0281  1.0141
   90SAPS  C215 8744   1.758   6.892   8.946  0.3347  0.2502  0.0917
   90SAPS  H15R 8745   1.709   6.971   8.888 -0.4919  0.8584  1.5581
   90SAPS  C216 8746   1.795   6.769   8.869 -0.2747 -0.4328 -0.2503
   90SAPS  H16R 8747   1.700   6.718   8.843 -1.1947  2.1870 -2.5629
   90SAPS  H16S 8748   1.857   6.701   8.930 -0.1892  1.3154  1.7252
   90SAPS  C217 8749   1.847   6.818   8.731  0.2662 -0.1544 -0.0443
   90SAPS  H17R 8750   1.895   6.729   8.686  2.2856  1.0119 -0.3199
   90SAPS  H17S 8751   1.927   6.893   8.747 -1.0761  1.3287  0.0446
   90SAPS  C218 8752   1.744   6.866   8.629 -0.0959  0.2675 -0.8764
   90SAPS  H18R 8753   1.684   6.955   8.657  1.2754  0.7202  0.7630
   90SAPS  H18S 8754   1.678   6.782   8.599 -0.6766 -0.6896  2.6672
   90SAPS  C219 8755   1.810   6.909   8.495  0.3299 -0.1942  0.4742
   90SAPS  H19R 8756   1.875   6.826   8.460  2.0139  1.5160 -0.6530
   90SAPS  H19S 8757   1.892   6.983   8.507  1.4358 -1.3201  0.0363
   90SAPS  C220 8758   1.707   6.954   8.394  0.0895 -0.1192 -0.2714
   90SAPS  H20R 8759   1.749   6.993   8.299  0.9865  1.0359  0.5787
   90SAPS  H20S 8760   1.646   7.032   8.444 -0.4645 -0.0373 -1.0563
   90SAPS  H20T 8761   1.650   6.865   8.358 -0.8014  0.7726 -1.1165
   90SAPS   C33 8762   2.285   7.101  10.116  0.0990  0.5553  1.5169
   90SAPS   H3X 8763   2.180   7.131  10.136  0.2021  2.3629 -0.4304
   90SAPS   H3Y 8764   2.282   6.990  10.105 -1.8011  0.6191  1.1411
   90SAPS   C34 8765   2.317   7.173   9.988 -0.0207  0.1259  0.0409
   90SAPS   H4X 8766   2.422   7.157   9.954  0.9336 -1.6992  3.4174
   90SAPS   H4Y 8767   2.318   7.283  10.003  0.8393  0.2942 -1.0539
   90SAPS   C35 8768   2.221   7.132   9.874  0.1121 -0.2037  0.4629
   90SAPS   H5X 8769   2.128   7.193   9.870 -0.0662 -0.4306  1.0076
   90SAPS   H5Y 8770   2.173   7.036   9.903  0.2037 -0.6334 -0.7824
   90SAPS   C36 8771   2.298   7.122   9.745  0.3462  0.0138 -0.2060
   90SAPS   H6X 8772   2.381   7.050   9.757  0.7484  0.6996  1.5234
   90SAPS   H6Y 8773   2.340   7.219   9.712  0.6555 -0.7522 -2.2056
   90SAPS   C37 8774   2.206   7.083   9.628 -0.5698 -0.8446 -0.4173
   90SAPS   H7X 8775   2.115   7.142   9.608  0.0106  0.4111  0.5255
   90SAPS   H7Y 8776   2.166   6.985   9.662  1.2386 -1.3370  0.4225
   90SAPS   C38 8777   2.289   7.060   9.489 -0.5698  0.1063 -0.1724
   90SAPS   H8X 8778   2.209   7.016   9.424  1.2400 -1.2398 -1.5851
   90SAPS   H8Y 8779   2.374   6.990   9.505 -0.6636 -0.8056 -2.9784
   90SAPS   C39 8780   2.330   7.196   9.432  1.1969 -0.6136 -0.0350
   90SAPS   H9X 8781   2.406   7.246   9.496 -0.3060  1.9420 -0.0871
   90SAPS   H9Y 8782   2.245   7.268   9.435  0.4535 -1.4619 -0.3670
   90SAPS  C310 8783   2.361   7.179   9.282 -0.7175 -0.0250 -0.0513
   90SAPS  H10X 8784   2.458   7.127   9.268 -1.3081 -0.5817 -2.5789
   90SAPS  H10Y 8785   2.389   7.282   9.252  1.5811 -0.6264 -0.1839
   90SAPS  C311 8786   2.254   7.115   9.200  0.1710 -0.0697  0.6102
   90SAPS  H11X 8787   2.153   7.152   9.228  0.6213  1.0925  0.7807
   90SAPS  H11Y 8788   2.254   7.005   9.215 -1.3050 -0.2105 -0.2443
   90SAPS  C312 8789   2.271   7.140   9.052  0.3815 -0.6749  0.1788
   90SAPS  H12X 8790   2.349   7.076   9.007  0.7081 -1.7379  2.1528
   90SAPS  H12Y 8791   2.313   7.241   9.029  0.7310 -0.6281  0.9792
   90SAPS  C313 8792   2.139   7.145   8.968 -0.5132 -0.2205 -0.8383
   90SAPS  H13X 8793   2.063   7.213   9.013 -0.7281 -1.0322  0.0604
   90SAPS  H13Y 8794   2.083   7.049   8.970 -0.0270 -0.5188  1.4689
   90SAPS  C314 8795   2.164   7.186   8.831 -0.6286 -0.1839 -0.3706
   90SAPS  H14X 8796   2.237   7.118   8.780  0.2333  1.6094 -1.6603
   90SAPS  H14Y 8797   2.213   7.286   8.825  0.3274 -0.6525 -0.7501
   90SAPS  C315 8798   2.029   7.204   8.763  0.2415 -0.3683  0.4444
   90SAPS  H15X 8799   1.955   7.257   8.826 -1.6669  0.5981 -2.4333
   90SAPS  H15Y 8800   1.994   7.099   8.756  0.9380 -0.4787 -3.0977
   90SAPS  C316 8801   2.022   7.267   8.621  0.1427 -0.1682 -0.4610
   90SAPS  H16X 8802   2.085   7.214   8.546  0.4068  0.5908 -0.7908
   90SAPS  H16Y 8803   2.055   7.373   8.628 -1.6713  0.3390  1.2075
   90SAPS  C317 8804   1.881   7.275   8.572  0.9345 -0.2290  0.3520
   90SAPS  H17X 8805   1.830   7.346   8.640  0.6675 -1.9437  2.0456
   90SAPS  H17Y 8806   1.826   7.182   8.600 -1.8675  1.6921  1.8226
   90SAPS  C318 8807   1.854   7.300   8.427 -0.6185  0.6143 -0.3068
   90SAPS  H18X 8808   1.874   7.405   8.395 -0.7182  0.2265 -1.6853
   90SAPS  H18Y 8809   1.744   7.295   8.423 -0.6479  1.6838 -2.9885
   90SAPS  H18Z 8810   1.902   7.233   8.353 -0.2075 -1.1614  1.4854
   91SAPS     N 8811   0.047   2.422   6.170 -0.0898 -0.1765  0.9447
   91SAPS   HN1 8812   0.058   2.460   6.266  1.5824  1.6459  0.1278
   91SAPS   HN2 8813  -0.054   2.425   6.143  0.2923  2.0442 -0.6131
   91SAPS   HN3 8814   0.089   2.327   6.169 -0.4065 -0.3264  1.4699
   91SAPS   C12 8815   0.139   2.512   6.082  0.6892  0.5475 -0.1022
   91SAPS  H12A 8816   0.227   2.533   6.142  0.2021 -0.1580  0.8890
   91SAPS   C13 8817   0.186   2.461   5.946 -0.0424 -0.0185  0.6389
   91SAPS  O13A 8818   0.156   2.343   5.921  0.4765 -0.1796 -0.3781
   91SAPS  O13B 8819   0.275   2.524   5.881 -0.3026  0.8982 -0.1996
   91SAPS   C11 8820   0.069   2.650   6.064  0.8140  0.0038 -0.0008
   91SAPS  H11A 8821   0.139   2.713   6.006 -0.0080  0.9934  0.0412
   91SAPS  H11B 8822   0.062   2.695   6.165  3.6324  0.4445  0.0742
   91SAPS     P 8823  -0.151   2.761   5.988 -1.0221  0.7131  0.3543
   91SAPS   O13 8824  -0.069   2.859   5.913 -0.3744  0.3087 -0.0661
   91SAPS   O14 8825  -0.277   2.717   5.925 -0.5631 -0.0559  0.2099
   91SAPS   O12 8826  -0.058   2.630   5.998 -1.0701 -0.7113  0.5159
   91SAPS   O11 8827  -0.167   2.789   6.140 -0.4619  0.8351 -0.0302
   91SAPS    C1 8828  -0.281   2.756   6.209  0.8501 -0.5219 -0.0256
   91SAPS    HA 8829  -0.317   2.654   6.185 -3.5079  0.9874 -0.7209
   91SAPS    HB 8830  -0.253   2.753   6.316 -0.2776 -1.9844  0.2703
   91SAPS    C2 8831  -0.393   2.856   6.185  1.0697 -0.2321 -0.1905
   91SAPS    HS 8832  -0.426   2.842   6.080 -1.8653 -2.6851  0.9118
   91SAPS   O21 8833  -0.352   2.988   6.213  0.2497 -0.4740  0.2822
   91SAPS   C21 8834  -0.408   3.087   6.133  0.0071 -0.1817 -0.4456
   91SAPS   O22 8835  -0.469   3.063   6.030 -0.0807 -0.0030  0.1772
   91SAPS   C22 8836  -0.387   3.227   6.195 -0.6668 -0.3243 -0.6674
   91SAPS   H2R 8837  -0.352   3.212   6.299  0.5728 -1.5612 -1.2447
   91SAPS   H2S 8838  -0.309   3.278   6.135 -0.0940 -0.8386 -0.3662
   91SAPS    C3 8839  -0.521   2.849   6.274  0.2399 -0.3378  0.1378
   91SAPS    HX 8840  -0.574   2.754   6.253  0.7654 -0.6373  0.1386
   91SAPS    HY 8841  -0.579   2.936   6.238  0.9323  0.2242  0.3549
   91SAPS   O31 8842  -0.495   2.860   6.413  0.3240  0.7208 -0.5106
   91SAPS   C31 8843  -0.580   2.922   6.490 -0.1345 -0.6311  0.0815
   91SAPS   O32 8844  -0.680   2.985   6.451 -0.0596  0.1737 -0.2642
   91SAPS   C32 8845  -0.551   2.913   6.642 -0.0582  0.6552 -0.2019
   91SAPS   H2X 8846  -0.452   2.958   6.662 -0.0820  1.2252 -1.3290
   91SAPS   H2Y 8847  -0.557   2.804   6.665 -2.9381  0.2431 -2.3048
   91SAPS   C23 8848  -0.515   3.317   6.184  0.0432  1.0488  0.0622
   91SAPS   H3R 8849  -0.542   3.298   6.077 -1.5755 -3.0961  0.9824
   91SAPS   H3S 8850  -0.491   3.420   6.218  1.0119  0.8792 -0.0812
   91SAPS   C24 8851  -0.634   3.268   6.273 -0.1640  0.5295  0.4039
   91SAPS   H4R 8852  -0.605   3.311   6.371  0.1598  3.2498 -0.7788
   91SAPS   H4S 8853  -0.645   3.158   6.278 -1.0464  0.6566  1.4582
   91SAPS   C25 8854  -0.761   3.330   6.217 -0.6818  0.2495 -0.1093
   91SAPS   H5R 8855  -0.765   3.355   6.110 -2.7184  3.7175  0.6397
   91SAPS   C26 8856  -0.868   3.366   6.283  0.4551 -0.3856  0.9611
   91SAPS   H6R 8857  -0.950   3.413   6.227  1.6835  2.6296  1.4991
   91SAPS   C27 8858  -0.892   3.357   6.433 -0.3150 -0.0493 -0.4305
   91SAPS   H7R 8859  -0.796   3.337   6.484 -0.0894  1.0059 -0.4226
   91SAPS   H7S 8860  -0.965   3.274   6.451  1.0302 -0.7027  2.6894
   91SAPS   C28 8861  -0.941   3.488   6.486  0.5748 -0.5518 -0.5745
   91SAPS   H8R 8862  -0.906   3.575   6.428  1.3787 -1.5104 -1.5869
   91SAPS   C29 8863  -1.020   3.504   6.597 -0.0475  0.4778  1.1358
   91SAPS   H9R 8864  -1.055   3.608   6.603 -0.1504  0.6368 -1.4005
   91SAPS  C210 8865  -1.074   3.406   6.693 -0.3344 -0.7792  0.0374
   91SAPS  H10R 8866  -1.124   3.327   6.633  0.3337 -1.3995  0.2700
   91SAPS  H10S 8867  -1.156   3.448   6.755  0.5575 -1.8511  2.0523
   91SAPS  C211 8868  -0.965   3.361   6.777 -0.0183 -0.1156 -0.1925
   91SAPS  H11R 8869  -0.874   3.330   6.724  0.0089  0.2695 -0.3835
   91SAPS  C212 8870  -0.971   3.342   6.915 -0.0426  0.4620 -0.9878
   91SAPS  H12R 8871  -0.877   3.307   6.962 -0.1953 -1.1916 -1.8373
   91SAPS  C213 8872  -1.086   3.360   7.014 -0.2112  0.0864 -0.2800
   91SAPS  H13R 8873  -1.079   3.271   7.081 -2.7249  0.1566  0.1557
   91SAPS  H13S 8874  -1.182   3.357   6.957 -0.6301  1.3094  0.3373
   91SAPS  C214 8875  -1.071   3.498   7.079 -0.9066 -0.6026  0.3226
   91SAPS  H14R 8876  -1.092   3.583   7.012  0.3355 -0.8730 -0.4378
   91SAPS  C215 8877  -1.027   3.519   7.207 -0.2024  0.2927  0.2620
   91SAPS  H15R 8878  -1.038   3.620   7.249  0.5328 -0.6235  2.8637
   91SAPS  C216 8879  -0.987   3.412   7.313 -0.1935  0.3192 -0.0216
   91SAPS  H16R 8880  -0.878   3.394   7.306  0.0573  1.9283 -0.7489
   91SAPS  H16S 8881  -1.024   3.309   7.291  0.9123 -0.5479  1.9142
   91SAPS  C217 8882  -1.046   3.437   7.456  0.5806 -0.8620  1.1853
   91SAPS  H17R 8883  -1.057   3.342   7.511 -0.9941 -1.7742 -0.5897
   91SAPS  H17S 8884  -1.147   3.484   7.454  0.8216 -0.2941  1.8633
   91SAPS  C218 8885  -0.970   3.538   7.546 -0.0055  0.8104  0.8101
   91SAPS  H18R 8886  -1.023   3.631   7.519 -1.6546 -0.9042 -2.5351
   91SAPS  H18S 8887  -0.865   3.542   7.510  0.1452  1.1523  1.2862
   91SAPS  C219 8888  -0.974   3.507   7.695  0.3590  0.4765  0.5122
   91SAPS  H19R 8889  -0.906   3.574   7.751  0.2820  0.0835  1.0837
   91SAPS  H19S 8890  -0.944   3.403   7.718  0.3083  0.5197  0.7788
   91SAPS  C220 8891  -1.112   3.545   7.753  0.7053  0.7866  0.2919
   91SAPS  H20R 8892  -1.110   3.517   7.860 -2.9836  2.7174  1.0100
   91SAPS  H20S 8893  -1.198   3.499   7.701 -0.0163  3.4734 -1.0738
   91SAPS  H20T 8894  -1.125   3.655   7.740 -0.1954  1.0192  2.7526
   91SAPS   C33 8895  -0.662   2.997   6.717 -0.9015 -0.1014  0.3013
   91SAPS   H3X 8896  -0.759   2.959   6.680 -1.0788  0.9562 -0.3596
   91SAPS   H3Y 8897  -0.669   3.100   6.676 -1.2569 -1.0942 -2.2880
   91SAPS   C34 8898  -0.661   2.978   6.870 -0.1920  0.2845 -0.3813
   91SAPS   H4X 8899  -0.557   2.979   6.909 -0.1636 -0.4148 -0.4253
   91SAPS   H4Y 8900  -0.713   2.881   6.884  0.3251 -0.4766 -3.0097
   91SAPS   C35 8901  -0.742   3.097   6.936  0.0802  0.4764  0.5111
   91SAPS   H5X 8902  -0.833   3.102   6.873  0.5962 -2.0925 -0.5721
   91SAPS   H5Y 8903  -0.694   3.197   6.932  0.9261  0.0472 -0.5648
   91SAPS   C36 8904  -0.792   3.069   7.084  0.1842 -0.4610  0.6369
   91SAPS   H6X 8905  -0.790   2.960   7.105  0.0624 -0.7239 -0.6251
   91SAPS   H6Y 8906  -0.893   3.113   7.101  0.0526 -1.3586  2.2622
   91SAPS   C37 8907  -0.695   3.117   7.197  0.8884  0.7384 -0.3001
   91SAPS   H7X 8908  -0.675   3.224   7.173  1.0470  0.4382 -1.5852
   91SAPS   H7Y 8909  -0.600   3.060   7.189  0.2407 -0.1683 -1.8925
   91SAPS   C38 8910  -0.749   3.107   7.335  0.8878  0.3406  0.2676
   91SAPS   H8X 8911  -0.781   3.004   7.361 -2.7956  1.3875  0.3788
   91SAPS   H8Y 8912  -0.844   3.164   7.332  0.7798  0.2124  0.9857
   91SAPS   C39 8913  -0.644   3.158   7.435  0.4800  0.2622 -0.7833
   91SAPS   H9X 8914  -0.594   3.244   7.386 -0.7017  0.9143 -0.8964
   91SAPS   H9Y 8915  -0.570   3.080   7.463 -0.4462 -0.5789 -0.6302
   91SAPS  C310 8916  -0.718   3.191   7.566 -0.2670 -0.2390 -0.2613
   91SAPS  H10X 8917  -0.779   3.102   7.593 -0.8254  0.6242  1.4953
   91SAPS  H10Y 8918  -0.801   3.263   7.552 -0.5990 -1.0717 -3.4566
   91SAPS  C311 8919  -0.617   3.239   7.673 -0.2723 -0.2700  0.2164
   91SAPS  H11X 8920  -0.622   3.350   7.668  0.4222 -0.0407  3.1563
   91SAPS  H11Y 8921  -0.512   3.210   7.652 -0.0438 -0.7305  1.9050
   91SAPS  C312 8922  -0.654   3.205   7.818 -0.0221  0.0289 -0.0473
   91SAPS  H12X 8923  -0.645   3.095   7.827 -1.8785 -0.2892 -1.4916
   91SAPS  H12Y 8924  -0.759   3.235   7.839 -0.5890 -1.2139 -0.9491
   91SAPS  C313 8925  -0.561   3.270   7.925  0.5549  0.1922  0.1408
   91SAPS  H13X 8926  -0.585   3.373   7.960  2.2340  0.9852 -0.9235
   91SAPS  H13Y 8927  -0.458   3.281   7.884  0.4381  0.4004 -0.1013
   91SAPS  C314 8928  -0.562   3.195   8.055  1.0222 -0.4390  0.0533
   91SAPS  H14X 8929  -0.507   3.100   8.040 -1.0344 -1.5190 -1.1687
   91SAPS  H14Y 8930  -0.665   3.158   8.072  0.7742 -0.8227 -2.0104
   91SAPS  C315 8931  -0.514   3.282   8.172 -0.3375 -0.1900 -0.0755
   91SAPS  H15X 8932  -0.506   3.223   8.266 -2.6128 -0.5239 -0.0414
   91SAPS  H15Y 8933  -0.576   3.371   8.193  0.8040  0.1413  2.1216
   91SAPS  C316 8934  -0.367   3.337   8.162  0.1632 -0.0868  0.2100
   91SAPS  H16X 8935  -0.358   3.408   8.077  1.0348 -0.1414  0.2422
   91SAPS  H16Y 8936  -0.295   3.254   8.144 -1.0363 -0.6789 -2.3051
   91SAPS  C317 8937  -0.326   3.410   8.292 -0.2084 -0.4410  0.4142
   91SAPS  H17X 8938  -0.260   3.496   8.270 -0.4202 -0.1417  0.9278
   91SAPS  H17Y 8939  -0.265   3.344   8.359  2.2772  1.6167  0.3469
   91SAPS  C318 8940  -0.439   3.469   8.372 -0.0980 -0.1778  0.0200
   91SAPS  H18X 8941  -0.396   3.510   8.466 -2.8274 -0.1418  1.3358
   91SAPS  H18Y 8942  -0.499   3.384   8.408 -1.5504  0.2075 -1.3860
   91SAPS  H18Z 8943  -0.508   3.537   8.319 -2.2175 -1.6148  0.8188
   92SAPS     N 8944   0.421   1.444   6.136  0.0843 -0.2771  0.0520
   92SAPS   HN1 8945   0.470   1.370   6.083  1.0459  0.3304  0.0732
   92SAPS   HN2 8946   0.408   1.406   6.232 -0.1215 -0.8654 -0.2046
   92SAPS   HN3 8947   0.327   1.465   6.095  0.8321 -0.8276 -2.0855
   92SAPS   C12 8948   0.508   1.563   6.135  0.3071 -0.3083  0.4569
   92SAPS  H12A 8949   0.520   1.596   6.032 -0.9184 -1.7238 -0.1781
   92SAPS   C13 8950   0.448   1.672   6.230 -0.4668  0.0179 -0.2830
   92SAPS  O13A 8951   0.338   1.653   6.285  0.4127  0.2251  0.4987
   92SAPS  O13B 8952   0.485   1.794   6.215  0.0027  0.5825  0.2462
   92SAPS   C11 8953   0.649   1.533   6.187  0.3229  0.5004 -0.2777
   92SAPS  H11A 8954   0.701   1.631   6.199 -0.1511  0.7263 -0.0288
   92SAPS  H11B 8955   0.694   1.483   6.099 -0.9094 -0.1761 -0.5419
   92SAPS     P 8956   0.776   1.364   6.344  0.1647  0.5406 -0.1608
   92SAPS   O13 8957   0.735   1.260   6.440 -0.2392 -0.8617 -0.6042
   92SAPS   O14 8958   0.829   1.319   6.211 -0.5688  0.6833 -0.6769
   92SAPS   O12 8959   0.660   1.456   6.312 -0.6270 -0.1697 -0.8870
   92SAPS   O11 8960   0.877   1.467   6.413  0.0493  0.3543  0.6221
   92SAPS    C1 8961   1.006   1.438   6.457 -0.7908  1.1333  0.2193
   92SAPS    HA 8962   1.071   1.378   6.390 -1.4605 -0.1950  0.7069
   92SAPS    HB 8963   1.063   1.529   6.485  0.7154  0.0847  0.6901
   92SAPS    C2 8964   1.005   1.349   6.592 -0.0740 -0.1832  0.5424
   92SAPS    HS 8965   0.965   1.249   6.564  0.8770  0.2111 -2.7388
   92SAPS   O21 8966   0.918   1.429   6.684  0.8932 -0.0176 -0.4175
   92SAPS   C21 8967   0.861   1.352   6.780 -0.0420 -0.3540 -0.2756
   92SAPS   O22 8968   0.875   1.235   6.786  0.0902 -0.0483  0.3076
   92SAPS   C22 8969   0.776   1.437   6.863  0.5424 -0.1923 -1.0068
   92SAPS   H2R 8970   0.827   1.532   6.889  2.3184 -1.3325 -0.0990
   92SAPS   H2S 8971   0.680   1.453   6.810  0.0628  1.5843  0.3000
   92SAPS    C3 8972   1.149   1.330   6.652  0.4118 -0.5728 -0.9337
   92SAPS    HX 8973   1.206   1.250   6.599 -2.0510 -4.3612  1.5683
   92SAPS    HY 8974   1.146   1.288   6.755 -0.3307  1.4046 -0.1211
   92SAPS   O31 8975   1.231   1.447   6.653 -0.7237 -0.1693  0.0089
   92SAPS   C31 8976   1.239   1.520   6.765 -0.4190 -0.8622 -0.7421
   92SAPS   O32 8977   1.191   1.487   6.873  0.5260  0.2686 -0.2535
   92SAPS   C32 8978   1.303   1.651   6.731 -0.2242  0.5547 -0.6611
   92SAPS   H2X 8979   1.307   1.721   6.817 -0.8551  1.3275 -1.2352
   92SAPS   H2Y 8980   1.253   1.710   6.650  0.6581  0.1262 -1.5449
   92SAPS   C23 8981   0.742   1.376   7.000 -0.0893 -0.8978 -0.1244
   92SAPS   H3R 8982   0.663   1.298   6.989 -1.4337  0.0679  1.9227
   92SAPS   H3S 8983   0.716   1.453   7.076  0.5712 -0.7073 -0.0847
   92SAPS   C24 8984   0.851   1.309   7.087  0.1050 -0.2570  0.3269
   92SAPS   H4R 8985   0.936   1.380   7.097  1.3908 -1.9177  2.1935
   92SAPS   H4S 8986   0.887   1.216   7.038 -2.3981 -2.2647  2.0367
   92SAPS   C25 8987   0.806   1.254   7.216  0.1059 -0.1668 -0.1388
   92SAPS   H5R 8988   0.732   1.173   7.207 -1.2362  1.1943 -2.0487
   92SAPS   C26 8989   0.844   1.302   7.337  0.1215  0.2744  0.3533
   92SAPS   H6R 8990   0.824   1.242   7.427 -1.4718 -1.0554 -0.8314
   92SAPS   C27 8991   0.938   1.415   7.367  0.4252  0.3583  1.0161
   92SAPS   H7R 8992   0.894   1.471   7.453 -1.4713  4.8223 -2.4852
   92SAPS   H7S 8993   0.927   1.494   7.290 -2.0721  0.2321  1.1620
   92SAPS   C28 8994   1.080   1.366   7.382  0.2682  0.0565 -0.0311
   92SAPS   H8R 8995   1.137   1.357   7.288 -0.3548 -0.1030 -0.3936
   92SAPS   C29 8996   1.135   1.338   7.505  0.6559 -0.2749  0.0510
   92SAPS   H9R 8997   1.237   1.297   7.516  0.5398 -1.8012 -3.3537
   92SAPS  C210 8998   1.068   1.358   7.644 -0.4241  0.2678 -0.2242
   92SAPS  H10R 8999   1.054   1.466   7.665 -1.5969  1.0125 -4.0900
   92SAPS  H10S 9000   1.144   1.324   7.718 -1.2433 -1.4493 -0.1208
   92SAPS  C211 9001   0.944   1.283   7.683 -0.2699 -0.1536  0.2297
   92SAPS  H11R 9002   0.931   1.193   7.622 -1.8871 -0.1789  0.5741
   92SAPS  C212 9003   0.872   1.300   7.797 -0.3021  0.2412 -0.1810
   92SAPS  H12R 9004   0.778   1.242   7.798 -0.1455 -0.0710  2.6536
   92SAPS  C213 9005   0.912   1.389   7.915  0.6940  0.3691 -0.2510
   92SAPS  H13R 9006   0.913   1.496   7.883  0.8596  0.2904 -0.5160
   92SAPS  H13S 9007   1.017   1.361   7.940  0.0361 -1.4162  0.6502
   92SAPS  C214 9008   0.851   1.369   8.050  0.0327 -0.2108 -0.0344
   92SAPS  H14R 9009   0.796   1.274   8.055  1.3357 -1.3175 -3.5518
   92SAPS  C215 9010   0.846   1.456   8.153 -0.2810 -0.0044  0.3255
   92SAPS  H15R 9011   0.790   1.428   8.243  0.2997 -1.5267  0.2598
   92SAPS  C216 9012   0.907   1.593   8.162  0.4823  0.2891  0.3151
   92SAPS  H16R 9013   0.837   1.676   8.138 -0.8446 -1.0083 -0.5000
   92SAPS  H16S 9014   0.980   1.607   8.078 -1.4283  1.3931 -1.2554
   92SAPS  C217 9015   0.992   1.609   8.282  0.0872 -0.4654  0.1515
   92SAPS  H17R 9016   0.933   1.634   8.373 -0.2210 -0.1679 -0.1268
   92SAPS  H17S 9017   1.047   1.704   8.268 -1.3531  0.5356  1.0745
   92SAPS  C218 9018   1.082   1.498   8.323 -0.8722  0.3777 -0.5300
   92SAPS  H18R 9019   1.021   1.407   8.343  0.6900 -1.0104 -1.7578
   92SAPS  H18S 9020   1.142   1.523   8.413 -1.0166  0.7287 -0.5308
   92SAPS  C219 9021   1.176   1.448   8.220 -0.2185  0.6194  0.0162
   92SAPS  H19R 9022   1.132   1.448   8.118  0.5206  2.6948 -0.3560
   92SAPS  H19S 9023   1.202   1.344   8.251 -1.0425  0.7178  1.0661
   92SAPS  C220 9024   1.304   1.533   8.227  0.1103  0.0562  0.3268
   92SAPS  H20R 9025   1.343   1.539   8.331 -0.3331 -1.3184  0.5950
   92SAPS  H20S 9026   1.290   1.637   8.189 -1.0143 -0.1557  0.1209
   92SAPS  H20T 9027   1.384   1.491   8.163  0.3079  0.4072  0.3374
   92SAPS   C33 9028   1.451   1.644   6.693  0.6957 -0.2120 -0.7076
   92SAPS   H3X 9029   1.487   1.741   6.650 -0.6580  0.6106 -0.0643
   92SAPS   H3Y 9030   1.451   1.570   6.610  3.0047  1.4214 -2.2857
   92SAPS   C34 9031   1.537   1.597   6.809 -0.6751  0.0389 -0.1034
   92SAPS   H4X 9032   1.635   1.554   6.778  0.0764  1.7234 -0.1912
   92SAPS   H4Y 9033   1.492   1.505   6.852 -0.9329 -0.1607 -0.7789
   92SAPS   C35 9034   1.560   1.700   6.915 -0.2232 -0.3955 -0.2625
   92SAPS   H5X 9035   1.488   1.702   7.000  2.2115  0.7007  1.9318
   92SAPS   H5Y 9036   1.553   1.799   6.864  2.4455 -0.1418 -0.2587
   92SAPS   C36 9037   1.693   1.676   6.997 -0.7585 -0.5270  0.0721
   92SAPS   H6X 9038   1.782   1.687   6.931 -4.0316  0.7419 -4.6624
   92SAPS   H6Y 9039   1.708   1.567   7.014 -3.0428 -1.3603 -2.4781
   92SAPS   C37 9040   1.696   1.766   7.125 -0.4278 -0.5068 -0.0366
   92SAPS   H7X 9041   1.599   1.759   7.179 -0.5670  2.0632  0.1581
   92SAPS   H7Y 9042   1.696   1.874   7.099 -0.2257 -0.7607 -1.1553
   92SAPS   C38 9043   1.801   1.733   7.233 -0.3218  0.2656 -0.9679
   92SAPS   H8X 9044   1.899   1.782   7.221 -0.1588  1.1900  2.8281
   92SAPS   H8Y 9045   1.811   1.624   7.255 -2.5299  0.5818  2.4031
   92SAPS   C39 9046   1.747   1.783   7.378 -0.1916  0.3949  0.3988
   92SAPS   H9X 9047   1.650   1.741   7.412 -0.5078  1.1451  0.4263
   92SAPS   H9Y 9048   1.739   1.893   7.363  1.3019  0.8620  2.5591
   92SAPS  C310 9049   1.859   1.739   7.484 -0.3551  0.8739  1.1115
   92SAPS  H10X 9050   1.947   1.801   7.455  1.4858 -2.2002 -0.3161
   92SAPS  H10Y 9051   1.885   1.632   7.470  0.5862  1.1806  0.4230
   92SAPS  C311 9052   1.820   1.776   7.629  0.1646  0.1207  0.4930
   92SAPS  H11X 9053   1.791   1.685   7.685 -0.3739  1.0562  1.7865
   92SAPS  H11Y 9054   1.739   1.852   7.622  0.3020  0.2193 -0.1211
   92SAPS  C312 9055   1.936   1.835   7.712 -0.8165 -0.0870  0.3442
   92SAPS  H12X 9056   1.985   1.917   7.656 -1.7267 -0.7567 -1.5033
   92SAPS  H12Y 9057   2.010   1.762   7.752 -2.6444 -0.6907  2.8935
   92SAPS  C313 9058   1.892   1.897   7.846  0.2406 -0.7750 -0.7651
   92SAPS  H13X 9059   1.836   1.818   7.899  1.1206 -0.4955  0.6455
   92SAPS  H13Y 9060   1.825   1.983   7.826 -0.2990 -0.8298  0.7028
   92SAPS  C314 9061   2.002   1.952   7.932 -0.1745 -0.4328 -0.3203
   92SAPS  H14X 9062   2.046   2.044   7.887  1.3014 -1.7536 -1.6615
   92SAPS  H14Y 9063   2.082   1.876   7.941 -0.0985 -0.4496 -1.0206
   92SAPS  C315 9064   1.949   2.002   8.074  0.1496  0.5590  0.0685
   92SAPS  H15X 9065   1.870   1.924   8.081  1.0391 -0.2380  1.7793
   92SAPS  H15Y 9066   1.890   2.096   8.075  0.4762  0.7963 -1.4060
   92SAPS  C316 9067   2.042   1.999   8.190 -0.0229  0.1080 -0.8297
   92SAPS  H16X 9068   2.114   2.084   8.182  0.4455 -0.2086 -0.1740
   92SAPS  H16Y 9069   2.102   1.906   8.180  1.9317  1.5433 -3.8954
   92SAPS  C317 9070   1.961   2.016   8.322 -0.2938  0.9018 -0.4986
   92SAPS  H17X 9071   1.902   1.922   8.318  2.0069 -0.6354 -0.0808
   92SAPS  H17Y 9072   1.892   2.104   8.324  0.9820  1.9192  1.1401
   92SAPS  C318 9073   2.054   2.013   8.444  0.1970 -0.5672  0.0603
   92SAPS  H18X 9074   2.121   1.924   8.439 -0.4391 -1.0381 -0.3868
   92SAPS  H18Y 9075   2.007   2.021   8.544  0.4652  1.5373  0.0685
   92SAPS  H18Z 9076   2.124   2.098   8.430  1.0148 -1.4161 -1.2428
   93SAPS     N 9077   1.239   6.656   6.246 -0.6951  0.2779 -0.4615
   93SAPS   HN1 9078   1.173   6.684   6.321  0.4334  2.1991 -0.1045
   93SAPS   HN2 9079   1.318   6.606   6.292 -0.5195  1.9719  1.2388
   93SAPS   HN3 9080   1.264   6.746   6.201  0.6491  0.3508  0.3710
   93SAPS   C12 9081   1.172   6.573   6.143  0.0745 -0.8008  0.6769
   93SAPS  H12A 9082   1.104   6.647   6.104 -1.5703 -1.2236  2.5761
   93SAPS   C13 9083   1.277   6.524   6.040 -0.1941 -0.0562 -0.1312
   93SAPS  O13A 9084   1.400   6.558   6.061  0.8506 -0.2537  0.6273
   93SAPS  O13B 9085   1.236   6.452   5.948  0.2127  0.9766 -0.7218
   93SAPS   C11 9086   1.097   6.463   6.216  0.0893  0.0917 -0.0950
   93SAPS  H11A 9087   1.053   6.407   6.131 -2.0292 -0.6009  1.4014
   93SAPS  H11B 9088   1.022   6.510   6.283 -0.5864 -1.7345  0.4844
   93SAPS     P 9089   1.144   6.255   6.374  0.2722  0.0279  0.2091
   93SAPS   O13 9090   1.010   6.203   6.330 -0.3893  0.1066  0.2011
   93SAPS   O14 9091   1.257   6.157   6.393  0.1756  0.3585 -0.2294
   93SAPS   O12 9092   1.193   6.377   6.277 -0.4133  0.0119 -0.6614
   93SAPS   O11 9093   1.127   6.333   6.513 -0.2819  0.4396 -0.0560
   93SAPS    C1 9094   1.245   6.398   6.575  0.3695  0.6659  0.2034
   93SAPS    HA 9095   1.338   6.353   6.535  1.1701  1.6697  0.8903
   93SAPS    HB 9096   1.249   6.507   6.552 -1.5555  0.9681  1.0981
   93SAPS    C2 9097   1.252   6.372   6.726 -0.2018  0.3835  0.3701
   93SAPS    HS 9098   1.324   6.448   6.762  0.9420  0.5824 -2.1834
   93SAPS   O21 9099   1.278   6.238   6.764 -0.1259  0.4561 -0.0340
   93SAPS   C21 9100   1.406   6.189   6.749  0.8662  0.0928  0.6365
   93SAPS   O22 9101   1.501   6.251   6.713  0.7847  0.7889  0.0079
   93SAPS   C22 9102   1.394   6.047   6.801 -0.2023 -1.5063 -0.2618
   93SAPS   H2R 9103   1.376   6.063   6.909  1.4838 -0.2301 -0.1255
   93SAPS   H2S 9104   1.305   6.002   6.751 -0.7439 -0.7040 -0.0348
   93SAPS    C3 9105   1.114   6.412   6.792  0.3225 -0.1484 -0.3227
   93SAPS    HX 9106   1.038   6.337   6.763  0.4605 -0.0263 -0.9980
   93SAPS    HY 9107   1.095   6.515   6.756 -0.7219 -0.3229 -0.3143
   93SAPS   O31 9108   1.119   6.400   6.937 -0.3662  0.0473  0.0492
   93SAPS   C31 9109   1.176   6.502   7.004  0.7723 -0.4230  0.3339
   93SAPS   O32 9110   1.198   6.611   6.956  0.4774 -0.3666 -0.5753
   93SAPS   C32 9111   1.231   6.455   7.140 -0.4975  0.0313  0.2097
   93SAPS   H2X 9112   1.337   6.486   7.145  0.8466 -4.1654  1.5146
   93SAPS   H2Y 9113   1.237   6.344   7.143  2.2486  0.0756 -0.7626
   93SAPS   C23 9114   1.526   5.972   6.768  0.0424 -0.2042 -0.2091
   93SAPS   H3R 9115   1.564   5.978   6.664  3.2672 -1.6549  0.7382
   93SAPS   H3S 9116   1.505   5.865   6.790 -0.3950  0.0420  0.6209
   93SAPS   C24 9117   1.641   6.021   6.864  0.2111  0.0650  0.4961
   93SAPS   H4R 9118   1.598   6.032   6.966  0.3020 -0.9642  0.6580
   93SAPS   H4S 9119   1.672   6.125   6.841  1.1063 -0.0758  1.0177
   93SAPS   C25 9120   1.762   5.926   6.864  0.8982 -0.0328  0.4625
   93SAPS   H5R 9121   1.821   5.931   6.771 -0.4666  3.3192 -0.3954
   93SAPS   C26 9122   1.803   5.851   6.964  0.4682  0.8985 -0.6613
   93SAPS   H6R 9123   1.895   5.790   6.962  0.2776  0.6226 -1.7039
   93SAPS   C27 9124   1.722   5.847   7.090 -0.4236  0.3815 -0.4297
   93SAPS   H7R 9125   1.620   5.816   7.059  0.2902 -1.0088 -1.5497
   93SAPS   H7S 9126   1.695   5.944   7.135 -2.3976 -1.1495  1.9699
   93SAPS   C28 9127   1.777   5.765   7.205 -0.4682  0.2488 -0.5069
   93SAPS   H8R 9128   1.832   5.809   7.290  0.3912 -1.8032  0.0651
   93SAPS   C29 9129   1.744   5.631   7.219  0.0074 -0.6314  0.3052
   93SAPS   H9R 9130   1.782   5.572   7.304 -0.6019 -0.8739  0.4187
   93SAPS  C210 9131   1.654   5.547   7.125 -0.2660 -0.0187 -0.2731
   93SAPS  H10R 9132   1.702   5.452   7.093 -2.2217 -1.6803  1.4567
   93SAPS  H10S 9133   1.636   5.596   7.027  1.0550 -3.1409 -2.2101
   93SAPS  C211 9134   1.522   5.516   7.187 -0.1579  0.0979 -0.0858
   93SAPS  H11R 9135   1.460   5.607   7.190  1.4458  1.2613  3.1313
   93SAPS  C212 9136   1.485   5.410   7.256  0.3922 -0.2108 -0.6865
   93SAPS  H12R 9137   1.378   5.416   7.284  0.7986 -2.1303  1.6447
   93SAPS  C213 9138   1.562   5.288   7.288  0.6885  0.4436 -0.1902
   93SAPS  H13R 9139   1.569   5.278   7.399  1.1708 -1.5219 -0.3712
   93SAPS  H13S 9140   1.668   5.298   7.256  0.8001  1.6388  0.4789
   93SAPS  C214 9141   1.503   5.162   7.230  0.0860 -0.1951 -0.1606
   93SAPS  H14R 9142   1.450   5.160   7.134  0.2116  2.1672 -0.3372
   93SAPS  C215 9143   1.533   5.043   7.292 -0.0233 -0.4633  0.3676
   93SAPS  H15R 9144   1.498   4.951   7.242 -2.0388  1.3333 -1.7396
   93SAPS  C216 9145   1.619   5.005   7.408  0.3129  0.7368  0.7439
   93SAPS  H16R 9146   1.707   5.073   7.404  1.1174 -0.3410 -1.1141
   93SAPS  H16S 9147   1.665   4.906   7.389  0.3760  0.2332  3.1701
   93SAPS  C217 9148   1.546   4.996   7.536  0.1694 -0.2797 -0.0090
   93SAPS  H17R 9149   1.479   4.907   7.537 -0.4601  0.0204  4.2595
   93SAPS  H17S 9150   1.484   5.083   7.566 -0.1970 -0.7011  0.4835
   93SAPS  C218 9151   1.651   4.979   7.640  0.5349  0.1898 -0.6590
   93SAPS  H18R 9152   1.713   5.069   7.661  1.4171 -0.4379 -0.5073
   93SAPS  H18S 9153   1.730   4.907   7.608 -0.2378 -1.1054  0.2382
   93SAPS  C219 9154   1.594   4.936   7.776 -0.0860  0.0395 -0.3660
   93SAPS  H19R 9155   1.530   4.847   7.754 -0.1528 -0.3038  1.0579
   93SAPS  H19S 9156   1.527   5.015   7.816 -1.0047 -1.3169  0.9259
   93SAPS  C220 9157   1.705   4.895   7.880 -0.2499  0.2890  0.3940
   93SAPS  H20R 9158   1.658   4.839   7.964  1.8102 -0.1899  1.2909
   93SAPS  H20S 9159   1.762   4.984   7.915 -0.9354  1.6702 -1.8639
   93SAPS  H20T 9160   1.782   4.827   7.838  2.2461  3.0356  0.1988
   93SAPS   C33 9161   1.156   6.518   7.262  0.4697  0.9178  0.0379
   93SAPS   H3X 9162   1.055   6.475   7.278  0.7409  0.6492  1.0936
   93SAPS   H3Y 9163   1.141   6.625   7.237  0.0231  0.4462 -1.8735
   93SAPS   C34 9164   1.242   6.521   7.387  0.0304 -0.2591  0.9083
   93SAPS   H4X 9165   1.186   6.560   7.475  0.4340 -2.3415  2.1541
   93SAPS   H4Y 9166   1.314   6.605   7.380 -1.6395  1.0892 -2.3074
   93SAPS   C35 9167   1.305   6.392   7.429 -0.4439 -0.1506 -0.3807
   93SAPS   H5X 9168   1.411   6.382   7.396 -0.8654  0.0930 -1.8848
   93SAPS   H5Y 9169   1.238   6.309   7.397  1.0353 -1.1163 -1.0758
   93SAPS   C36 9170   1.314   6.384   7.592  0.1625  0.1580  0.4149
   93SAPS   H6X 9171   1.207   6.389   7.623 -0.5396  0.3645 -1.8347
   93SAPS   H6Y 9172   1.360   6.475   7.634 -1.0097  0.7996  0.3439
   93SAPS   C37 9173   1.383   6.259   7.643  0.5297  0.5063 -0.3475
   93SAPS   H7X 9174   1.459   6.219   7.572  0.2801  0.4925 -0.6083
   93SAPS   H7Y 9175   1.312   6.174   7.640  0.6363  0.4425 -2.5903
   93SAPS   C38 9176   1.422   6.280   7.794  0.3094  0.2179  0.2704
   93SAPS   H8X 9177   1.334   6.330   7.840 -1.1810 -1.7587 -0.2998
   93SAPS   H8Y 9178   1.504   6.355   7.797  0.7095 -0.2510  0.9846
   93SAPS   C39 9179   1.455   6.148   7.873  0.4777 -0.6399  0.6271
   93SAPS   H9X 9180   1.484   6.158   7.980 -0.6152 -1.7338  1.0475
   93SAPS   H9Y 9181   1.550   6.111   7.828  0.0123 -1.9081  0.6635
   93SAPS  C310 9182   1.342   6.045   7.881 -0.6833 -0.5381  0.5838
   93SAPS  H10X 9183   1.397   5.955   7.917  2.1097  1.6172  2.1035
   93SAPS  H10Y 9184   1.296   6.009   7.786 -0.7993 -0.2561  0.5342
   93SAPS  C311 9185   1.228   6.077   7.980  0.6264  0.2964 -0.5635
   93SAPS  H11X 9186   1.161   6.149   7.928  1.4872  2.7696  1.5375
   93SAPS  H11Y 9187   1.276   6.118   8.071 -3.7260 -0.3134  2.3103
   93SAPS  C312 9188   1.131   5.959   8.024 -0.4499 -0.7426 -0.3624
   93SAPS  H12X 9189   1.143   5.874   7.954 -1.0610 -0.9434 -0.2341
   93SAPS  H12Y 9190   1.025   5.994   8.020 -0.3249  0.0770  1.9573
   93SAPS  C313 9191   1.177   5.907   8.163  0.2527  0.1367  0.0537
   93SAPS  H13X 9192   1.144   5.982   8.238  1.0654 -0.2875  0.8508
   93SAPS  H13Y 9193   1.286   5.890   8.175  0.0381  0.0080  2.1481
   93SAPS  C314 9194   1.085   5.784   8.196 -0.2474 -0.1692  0.7761
   93SAPS  H14X 9195   0.977   5.811   8.199  0.0082  1.6166 -2.1950
   93SAPS  H14Y 9196   1.105   5.771   8.304 -1.6218  2.0803  1.3712
   93SAPS  C315 9197   1.113   5.663   8.107 -0.2130 -1.0160 -0.0237
   93SAPS  H15X 9198   1.222   5.642   8.107 -0.2807 -1.3780 -0.4955
   93SAPS  H15Y 9199   1.067   5.676   8.007  1.3448  0.7995 -0.5592
   93SAPS  C316 9200   1.058   5.543   8.182  0.4034 -0.1559  0.1207
   93SAPS  H16X 9201   0.955   5.572   8.211  0.2496 -2.3163  2.0268
   93SAPS  H16Y 9202   1.116   5.522   8.274  3.0768 -0.2030 -1.4508
   93SAPS  C317 9203   1.033   5.420   8.095 -0.0231  0.3981  0.2932
   93SAPS  H17X 9204   1.130   5.409   8.041 -0.2816 -1.0214  0.0734
   93SAPS  H17Y 9205   0.956   5.444   8.019 -1.3467  0.4595  1.6299
   93SAPS  C318 9206   1.007   5.293   8.171 -0.2250 -0.3447  0.2313
   93SAPS  H18X 9207   1.015   5.194   8.122 -1.3784 -2.8722  4.6018
   93SAPS  H18Y 9208   0.901   5.303   8.202 -0.0572  1.6862  0.2856
   93SAPS  H18Z 9209   1.065   5.287   8.265  0.5039 -0.5316 -0.2174
   94SAPS     N 9210   0.746   3.642   5.854 -0.2487 -0.4410  0.4175
   94SAPS   HN1 9211   0.683   3.701   5.913  2.4882  0.6735  2.4034
   94SAPS   HN2 9212   0.721   3.634   5.753 -1.0020 -0.0306  0.5590
   94SAPS   HN3 9213   0.751   3.546   5.893 -0.6145 -0.3406  0.7228
   94SAPS   C12 9214   0.887   3.704   5.868  0.4104  0.1250 -0.6208
   94SAPS  H12A 9215   0.902   3.741   5.968  1.7363  0.2381 -0.8496
   94SAPS   C13 9216   1.008   3.613   5.833  0.5557 -0.3293  0.7608
   94SAPS  O13A 9217   0.981   3.525   5.742 -0.0163  0.5194 -0.0835
   94SAPS  O13B 9218   1.126   3.647   5.866  0.2787  0.6338 -0.0157
   94SAPS   C11 9219   0.900   3.834   5.786  0.3185  0.4789 -0.3168
   94SAPS  H11A 9220   0.870   3.811   5.681 -4.4811 -3.4503  1.5334
   94SAPS  H11B 9221   1.007   3.864   5.780  1.0410 -2.0488 -1.6943
   94SAPS     P 9222   0.847   4.077   5.854 -0.1331 -0.3770 -0.5469
   94SAPS   O13 9223   0.980   4.111   5.797 -0.1634 -0.7760  0.1731
   94SAPS   O14 9224   0.730   4.146   5.783  0.3098  0.2912 -0.2965
   94SAPS   O12 9225   0.816   3.926   5.849 -0.2249  0.0715  0.6815
   94SAPS   O11 9226   0.842   4.103   6.007  0.2637  0.2515 -0.6687
   94SAPS    C1 9227   0.922   4.034   6.100  0.0199 -0.2219 -0.1451
   94SAPS    HA 9228   0.880   3.933   6.116  2.7436 -1.6727 -1.5365
   94SAPS    HB 9229   1.027   4.021   6.067  0.1249  2.1932 -0.9529
   94SAPS    C2 9230   0.926   4.102   6.237 -0.2307  0.1170  0.3776
   94SAPS    HS 9231   1.019   4.066   6.285 -1.2307 -0.1647  2.1947
   94SAPS   O21 9232   0.819   4.069   6.319  0.9656 -0.1707 -0.0322
   94SAPS   C21 9233   0.840   4.062   6.449 -1.1474 -0.0955  0.0963
   94SAPS   O22 9234   0.950   4.050   6.504 -0.0208  0.6246 -0.3092
   94SAPS   C22 9235   0.709   4.057   6.526 -0.4203 -0.0386 -0.4827
   94SAPS   H2R 9236   0.648   4.143   6.493 -1.5787 -0.2012  1.1037
   94SAPS   H2S 9237   0.656   3.966   6.492 -1.8648  0.5829  0.0427
   94SAPS    C3 9238   0.950   4.254   6.231 -0.4691 -0.2137 -0.3849
   94SAPS    HX 9239   0.866   4.307   6.179  1.5356  0.4835 -3.1662
   94SAPS    HY 9240   1.041   4.262   6.168 -0.8042 -2.2196 -1.1852
   94SAPS   O31 9241   0.968   4.310   6.364  0.0332  0.2516  0.0473
   94SAPS   C31 9242   1.039   4.426   6.374 -0.7853  0.3766 -0.4111
   94SAPS   O32 9243   1.077   4.490   6.278  0.2260 -0.2373 -0.3141
   94SAPS   C32 9244   1.054   4.466   6.518 -0.5385  0.1093 -1.0811
   94SAPS   H2X 9245   1.155   4.437   6.553 -0.0500  1.1777 -1.5491
   94SAPS   H2Y 9246   0.977   4.411   6.576  1.5503  0.0507  1.8246
   94SAPS   C23 9247   0.736   4.058   6.675 -0.2165  0.1520  0.0439
   94SAPS   H3R 9248   0.816   3.982   6.690  1.2076  1.4690 -0.6197
   94SAPS   H3S 9249   0.649   4.015   6.728 -0.4747 -0.0912 -0.5661
   94SAPS   C24 9250   0.768   4.196   6.731 -0.5464  0.4831 -0.5190
   94SAPS   H4R 9251   0.689   4.274   6.742 -0.0048  0.9647 -0.0387
   94SAPS   H4S 9252   0.844   4.250   6.670  0.2224  1.7262  1.4586
   94SAPS   C25 9253   0.822   4.165   6.871  0.3356  0.5556  0.4837
   94SAPS   H5R 9254   0.761   4.094   6.930  0.3509  0.5867  0.5377
   94SAPS   C26 9255   0.941   4.204   6.919  0.5495  0.3150  0.4178
   94SAPS   H6R 9256   0.951   4.184   7.027 -1.0827 -1.6134  0.2755
   94SAPS   C27 9257   1.029   4.305   6.851 -0.2999 -0.3659 -0.3484
   94SAPS   H7R 9258   0.964   4.381   6.803  2.4280  1.6399 -1.0525
   94SAPS   H7S 9259   1.097   4.253   6.781  0.3710 -1.5159  1.0989
   94SAPS   C28 9260   1.125   4.375   6.950 -0.0811 -1.0169 -0.0734
   94SAPS   H8R 9261   1.229   4.345   6.968  0.2612  1.0306  1.8205
   94SAPS   C29 9262   1.091   4.469   7.041  0.1721  0.1798 -0.0525
   94SAPS   H9R 9263   1.168   4.522   7.100 -0.9735  1.4302  0.3718
   94SAPS  C210 9264   0.952   4.531   7.056 -0.1525 -0.0501 -0.9825
   94SAPS  H10R 9265   0.880   4.462   7.007 -0.8562  1.2034 -1.7658
   94SAPS  H10S 9266   0.959   4.623   6.993  0.1897  1.1692  0.7798
   94SAPS  C211 9267   0.909   4.569   7.195 -0.1180  0.4499 -0.5893
   94SAPS  H11R 9268   0.893   4.676   7.212 -0.0228  0.2616  0.8236
   94SAPS  C212 9269   0.905   4.502   7.312 -0.2205 -0.3147  0.1409
   94SAPS  H12R 9270   0.889   4.566   7.401 -2.1818  0.9145 -1.0255
   94SAPS  C213 9271   0.946   4.363   7.358  0.3549 -0.0162 -0.0098
   94SAPS  H13R 9272   0.896   4.281   7.302 -0.5372  0.7829 -0.4170
   94SAPS  H13S 9273   0.921   4.338   7.463  1.4328  3.4155  1.2285
   94SAPS  C214 9274   1.093   4.338   7.351 -0.0725  0.3355  0.2699
   94SAPS  H14R 9275   1.130   4.262   7.280 -3.0397 -1.3790  0.3983
   94SAPS  C215 9276   1.186   4.378   7.439 -0.5266  0.0126  0.0779
   94SAPS  H15R 9277   1.290   4.355   7.410 -0.1423  0.4667  1.0694
   94SAPS  C216 9278   1.159   4.455   7.567 -0.1410  0.0254 -0.2561
   94SAPS  H16R 9279   1.054   4.494   7.560 -0.4596 -1.1437 -4.1784
   94SAPS  H16S 9280   1.219   4.547   7.582 -1.6897  0.9824  0.3717
   94SAPS  C217 9281   1.164   4.358   7.684 -0.1472  0.1152 -0.4951
   94SAPS  H17R 9282   1.263   4.308   7.695 -0.0129  0.8921  3.0701
   94SAPS  H17S 9283   1.082   4.286   7.665 -1.1639  1.8403 -3.1026
   94SAPS  C218 9284   1.156   4.426   7.823 -0.1226 -0.1810 -0.1628
   94SAPS  H18R 9285   1.057   4.474   7.834 -1.2681 -2.0113 -1.9168
   94SAPS  H18S 9286   1.233   4.507   7.825 -0.6056  0.2717  0.5300
   94SAPS  C219 9287   1.196   4.339   7.935  0.8091  0.0068 -0.2497
   94SAPS  H19R 9288   1.272   4.269   7.896 -1.5352 -2.8520 -0.1023
   94SAPS  H19S 9289   1.111   4.286   7.983 -0.1806  1.8354  0.1231
   94SAPS  C220 9290   1.268   4.408   8.053  0.2678  0.3871  0.0123
   94SAPS  H20R 9291   1.293   4.332   8.130 -1.4751  0.3252  0.5556
   94SAPS  H20S 9292   1.204   4.488   8.097  0.4863  0.9691 -0.7020
   94SAPS  H20T 9293   1.362   4.457   8.018  0.0851 -1.3330 -3.3024
   94SAPS   C33 9294   1.046   4.616   6.542 -0.2628 -0.0439  0.2749
   94SAPS   H3X 9295   1.100   4.682   6.470 -0.4420  0.5199  0.6444
   94SAPS   H3Y 9296   1.088   4.635   6.643 -0.1633  2.6483 -0.1920
   94SAPS   C34 9297   0.903   4.668   6.550  0.0956 -0.1494 -0.1238
   94SAPS   H4X 9298   0.836   4.625   6.472  0.2560 -2.0952  0.7509
   94SAPS   H4Y 9299   0.897   4.779   6.546 -1.1650 -0.2326 -1.0117
   94SAPS   C35 9300   0.833   4.633   6.684 -0.5393 -0.0556  0.3470
   94SAPS   H5X 9301   0.901   4.672   6.763 -0.7410  1.3584 -0.1418
   94SAPS   H5Y 9302   0.815   4.525   6.703 -1.2603 -0.2770 -1.3912
   94SAPS   C36 9303   0.718   4.720   6.709 -0.0812 -0.2201  0.3230
   94SAPS   H6X 9304   0.655   4.725   6.618 -0.0376  3.3249  0.3698
   94SAPS   H6Y 9305   0.752   4.822   6.738 -0.2490  0.2909 -1.1917
   94SAPS   C37 9306   0.634   4.668   6.821  0.6761  1.2252  0.3470
   94SAPS   H7X 9307   0.704   4.600   6.874  0.8092  1.9079  1.0550
   94SAPS   H7Y 9308   0.544   4.615   6.782 -0.2455  3.0553 -0.1529
   94SAPS   C38 9309   0.586   4.781   6.907 -0.4292  0.2832 -0.7534
   94SAPS   H8X 9310   0.520   4.848   6.848 -1.5972  1.6269  1.8799
   94SAPS   H8Y 9311   0.680   4.835   6.932  0.7680  0.1040 -4.3807
   94SAPS   C39 9312   0.496   4.724   7.019 -0.1952 -0.5538 -0.4583
   94SAPS   H9X 9313   0.541   4.635   7.069 -3.4001 -2.8700 -1.3559
   94SAPS   H9Y 9314   0.397   4.691   6.980  0.4027 -1.8933 -0.8933
   94SAPS  C310 9315   0.460   4.817   7.133 -0.0938 -0.6265  0.4072
   94SAPS  H10X 9316   0.392   4.764   7.203  2.2385 -2.8791  1.1042
   94SAPS  H10Y 9317   0.415   4.914   7.102  0.5021 -0.1519  0.9806
   94SAPS  C311 9318   0.591   4.850   7.208 -0.5872  0.0283  0.5294
   94SAPS  H11X 9319   0.680   4.867   7.145 -2.0911  0.4582 -1.6106
   94SAPS  H11Y 9320   0.614   4.761   7.271 -1.1623 -1.6846 -1.5360
   94SAPS  C312 9321   0.577   4.958   7.315 -0.7233 -0.0878 -0.5278
   94SAPS  H12X 9322   0.477   4.948   7.362 -0.1500 -0.0530  0.7161
   94SAPS  H12Y 9323   0.574   5.064   7.281  0.1430  0.8096  1.9779
   94SAPS  C313 9324   0.674   4.957   7.435 -0.2026  0.2316 -0.3142
   94SAPS  H13X 9325   0.769   4.984   7.385 -1.6490  0.7110 -3.0065
   94SAPS  H13Y 9326   0.684   4.854   7.476 -0.2765  0.2407 -0.2721
   94SAPS  C314 9327   0.645   5.058   7.551 -0.9425 -0.7276  0.1724
   94SAPS  H14X 9328   0.734   5.072   7.615 -1.2949  1.2032  0.3208
   94SAPS  H14Y 9329   0.565   5.016   7.615 -1.3954 -2.3036 -1.3387
   94SAPS  C315 9330   0.602   5.200   7.509  0.1229 -0.4033 -0.5092
   94SAPS  H15X 9331   0.513   5.206   7.442 -0.0676  0.1114 -0.2170
   94SAPS  H15Y 9332   0.679   5.256   7.451  0.3987 -1.2807 -0.9990
   94SAPS  C316 9333   0.576   5.287   7.631 -0.6474 -0.3187 -0.2978
   94SAPS  H16X 9334   0.493   5.244   7.691  1.9128 -1.6811  2.5533
   94SAPS  H16Y 9335   0.549   5.391   7.601  0.0008  0.0166  0.2487
   94SAPS  C317 9336   0.690   5.323   7.737  0.6605 -0.4118 -0.1195
   94SAPS  H17X 9337   0.785   5.334   7.682  1.7035 -0.9542  1.4976
   94SAPS  H17Y 9338   0.708   5.236   7.804  0.3347  1.2661  2.2966
   94SAPS  C318 9339   0.665   5.447   7.821 -0.6673 -0.0604 -0.4887
   94SAPS  H18X 9340   0.653   5.533   7.752 -1.9192 -0.1738 -0.4377
   94SAPS  H18Y 9341   0.747   5.475   7.891 -2.0638  0.2115  1.0893
   94SAPS  H18Z 9342   0.568   5.449   7.874 -0.6265 -2.4297 -0.2118
   95SAPS     N 9343   1.234   2.102   6.126 -0.5489 -0.2661 -0.9778
   95SAPS   HN1 9344   1.185   2.022   6.082  1.0563 -1.4926 -0.6197
   95SAPS   HN2 9345   1.182   2.130   6.211  0.6844 -0.0476 -0.2732
   95SAPS   HN3 9346   1.248   2.182   6.060  0.2929 -1.6822 -2.6067
   95SAPS   C12 9347   1.371   2.053   6.174  0.0153 -0.2901 -0.0651
   95SAPS  H12A 9348   1.355   1.951   6.206  0.4919  0.6312  3.5306
   95SAPS   C13 9349   1.484   2.052   6.069  0.5497  0.7165  0.0681
   95SAPS  O13A 9350   1.445   2.059   5.950 -0.2635  0.2471 -0.1514
   95SAPS  O13B 9351   1.595   1.998   6.090 -0.2911 -0.0409 -0.4613
   95SAPS   C11 9352   1.419   2.140   6.296 -0.1247  0.4629  0.3321
   95SAPS  H11A 9353   1.449   2.241   6.259  2.3858  0.8562  3.1402
   95SAPS  H11B 9354   1.514   2.093   6.329 -0.1882 -2.2769 -2.8479
   95SAPS     P 9355   1.326   2.051   6.535  0.1287 -0.0612  0.0077
   95SAPS   O13 9356   1.217   1.952   6.536 -0.2147 -0.3232  0.6510
   95SAPS   O14 9357   1.465   1.997   6.548  0.0848 -0.2338  0.2980
   95SAPS   O12 9358   1.323   2.142   6.406 -0.0348 -0.0261  0.5431
   95SAPS   O11 9359   1.284   2.163   6.640  0.0489  0.3531 -0.2200
   95SAPS    C1 9360   1.324   2.298   6.619  0.1967  0.6635 -0.3641
   95SAPS    HA 9361   1.429   2.294   6.581  1.3393  1.7165  2.3766
   95SAPS    HB 9362   1.264   2.350   6.541 -2.0722 -0.7698  0.3362
   95SAPS    C2 9363   1.324   2.384   6.749 -0.0463  0.1866  0.8811
   95SAPS    HS 9364   1.404   2.461   6.742 -1.3059  1.3844 -1.9845
   95SAPS   O21 9365   1.345   2.294   6.864 -0.4501  0.4945  0.1649
   95SAPS   C21 9366   1.463   2.238   6.866  0.1380  0.6318  0.6449
   95SAPS   O22 9367   1.567   2.284   6.821 -0.0305 -0.2547  0.1492
   95SAPS   C22 9368   1.442   2.107   6.939  0.1470  0.2700  0.4085
   95SAPS   H2R 9369   1.385   2.042   6.869 -0.2862  1.0708 -0.0091
   95SAPS   H2S 9370   1.539   2.058   6.959  1.3609  1.9912 -0.9654
   95SAPS    C3 9371   1.190   2.460   6.761 -0.0988 -0.6122  0.5392
   95SAPS    HX 9372   1.101   2.402   6.730 -0.5413  1.1736 -1.7980
   95SAPS    HY 9373   1.200   2.543   6.688  0.1979  0.0132  1.2672
   95SAPS   O31 9374   1.178   2.523   6.892  0.5145  0.4478  0.2322
   95SAPS   C31 9375   1.120   2.442   6.983  0.3694 -0.2150  0.3712
   95SAPS   O32 9376   1.076   2.330   6.957  0.3086  0.2817  0.4685
   95SAPS   C32 9377   1.142   2.493   7.123 -0.3691  0.5078  0.3177
   95SAPS   H2X 9378   1.229   2.562   7.118  1.2497 -1.4438 -0.1607
   95SAPS   H2Y 9379   1.175   2.402   7.178  0.5368  2.0428  2.4411
   95SAPS   C23 9380   1.365   2.118   7.078 -0.1949 -0.4929 -0.5501
   95SAPS   H3R 9381   1.352   2.014   7.115  0.2759 -1.5338 -3.1102
   95SAPS   H3S 9382   1.262   2.144   7.044 -0.1280 -0.3516 -0.6451
   95SAPS   C24 9383   1.432   2.208   7.178 -0.0169  0.4495 -0.3362
   95SAPS   H4R 9384   1.445   2.312   7.140 -0.3046  1.8771  3.1447
   95SAPS   H4S 9385   1.534   2.171   7.202  0.9288  2.2288 -1.4251
   95SAPS   C25 9386   1.350   2.228   7.301 -0.5685 -0.5994  0.1149
   95SAPS   H5R 9387   1.245   2.258   7.288 -0.4137 -0.6535 -1.4337
   95SAPS   C26 9388   1.401   2.229   7.427 -0.6864 -0.3333  0.4363
   95SAPS   H6R 9389   1.331   2.250   7.510  0.6732  0.1448  1.4970
   95SAPS   C27 9390   1.553   2.210   7.475 -0.0015 -0.4983 -0.3138
   95SAPS   H7R 9391   1.584   2.301   7.531  0.2649 -1.8133  1.7589
   95SAPS   H7S 9392   1.628   2.200   7.393 -1.7349 -3.2016 -1.7108
   95SAPS   C28 9393   1.555   2.099   7.582  0.1580 -0.4341 -0.1587
   95SAPS   H8R 9394   1.550   1.996   7.544  2.0593 -0.2642 -1.0334
   95SAPS   C29 9395   1.567   2.118   7.715 -0.5697 -0.0415 -0.6911
   95SAPS   H9R 9396   1.577   2.029   7.778  2.7882  0.5102 -0.2130
   95SAPS  C210 9397   1.576   2.242   7.811  0.6740  0.3243 -0.1784
   95SAPS  H10R 9398   1.503   2.228   7.894 -1.7862 -0.4524 -2.3211
   95SAPS  H10S 9399   1.539   2.337   7.765 -0.7044  0.1333  0.4765
   95SAPS  C211 9400   1.708   2.280   7.867  0.2480  0.3328 -0.4293
   95SAPS  H11R 9401   1.694   2.335   7.961 -1.0165  2.4429 -1.7629
   95SAPS  C212 9402   1.833   2.272   7.815 -0.2591  0.7538  0.4638
   95SAPS  H12R 9403   1.910   2.322   7.877  0.7642  1.5638 -1.3715
   95SAPS  C213 9404   1.869   2.231   7.675 -0.0742  0.1568  0.0599
   95SAPS  H13R 9405   1.810   2.292   7.603  2.5423 -0.2416 -2.5793
   95SAPS  H13S 9406   1.850   2.124   7.652 -1.0859  0.7346 -2.0292
   95SAPS  C214 9407   2.013   2.257   7.628  0.2846 -0.1262  0.0297
   95SAPS  H14R 9408   2.052   2.336   7.694 -0.5165  2.0730 -1.9966
   95SAPS  C215 9409   2.080   2.206   7.526  0.3389  0.7147  0.2901
   95SAPS  H15R 9410   2.186   2.232   7.510  0.5587  0.3493  1.1346
   95SAPS  C216 9411   2.018   2.113   7.428  0.4619 -0.3283  0.0094
   95SAPS  H16R 9412   1.916   2.084   7.460  0.9415 -1.8474  0.2323
   95SAPS  H16S 9413   2.067   2.014   7.421  1.3820  0.1732 -1.1059
   95SAPS  C217 9414   2.008   2.167   7.287 -0.2995  0.5900 -0.0458
   95SAPS  H17R 9415   2.112   2.199   7.262  0.6026 -0.8948  1.5962
   95SAPS  H17S 9416   1.948   2.260   7.278  1.8178  1.8659 -2.4151
   95SAPS  C218 9417   1.946   2.070   7.184 -0.2288 -0.3450 -0.0923
   95SAPS  H18R 9418   1.846   2.048   7.227  0.0986  2.1353  2.1304
   95SAPS  H18S 9419   1.997   1.972   7.175 -0.3246 -0.4375  0.3908
   95SAPS  C219 9420   1.929   2.133   7.047  0.2976  0.4480  0.4710
   95SAPS  H19R 9421   2.024   2.169   7.004 -0.9748  1.2891 -1.7946
   95SAPS  H19S 9422   1.859   2.219   7.057 -1.2796 -0.7006 -0.1256
   95SAPS  C220 9423   1.863   2.035   6.944 -0.1439 -0.0793  0.3526
   95SAPS  H20R 9424   1.916   1.938   6.950  1.7200  0.9203  0.8401
   95SAPS  H20S 9425   1.881   2.070   6.840 -2.4326  0.0169 -0.0521
   95SAPS  H20T 9426   1.754   2.030   6.961  0.3578 -0.4834  4.2072
   95SAPS   C33 9427   1.022   2.541   7.203 -0.3313 -0.5050 -0.6954
   95SAPS   H3X 9428   0.953   2.455   7.212 -1.4056  0.4054  0.0029
   95SAPS   H3Y 9429   0.971   2.615   7.137 -0.6213 -1.6602 -1.7972
   95SAPS   C34 9430   1.051   2.614   7.337  0.1463 -0.2818  0.2935
   95SAPS   H4X 9431   0.982   2.701   7.346  0.2497 -0.3002  1.5441
   95SAPS   H4Y 9432   1.150   2.664   7.326 -1.1987  2.9511  1.5141
   95SAPS   C35 9433   1.044   2.536   7.465  0.4475 -0.1118 -0.0206
   95SAPS   H5X 9434   1.111   2.452   7.439  0.4400  0.5027 -2.1605
   95SAPS   H5Y 9435   0.945   2.486   7.478  0.1546  0.6142  0.5904
   95SAPS   C36 9436   1.096   2.602   7.593  0.1535 -0.4321 -0.3792
   95SAPS   H6X 9437   1.028   2.684   7.626 -1.0573 -2.1147  1.4867
   95SAPS   H6Y 9438   1.189   2.656   7.567 -0.6916  0.8324 -0.8903
   95SAPS   C37 9439   1.119   2.496   7.710 -0.5203 -0.2014 -0.3455
   95SAPS   H7X 9440   1.196   2.420   7.683 -0.0635  0.4120 -0.7878
   95SAPS   H7Y 9441   1.027   2.435   7.725  0.2017 -1.4369 -0.7452
   95SAPS   C38 9442   1.152   2.561   7.852  0.4749 -0.2919 -0.3484
   95SAPS   H8X 9443   1.069   2.628   7.884  0.2341 -1.6847  2.2273
   95SAPS   H8Y 9444   1.253   2.605   7.863  0.4388 -0.7978  3.0622
   95SAPS   C39 9445   1.159   2.455   7.958 -0.0560  0.3795 -0.6087
   95SAPS   H9X 9446   1.247   2.394   7.928 -2.4863 -3.2702 -0.9088
   95SAPS   H9Y 9447   1.077   2.381   7.946  0.0347 -0.1735  1.7911
   95SAPS  C310 9448   1.169   2.506   8.105  0.1339 -0.2954 -0.7652
   95SAPS  H10X 9449   1.082   2.563   8.144  1.1172  0.4621  0.3817
   95SAPS  H10Y 9450   1.246   2.586   8.110 -1.0581  0.9960 -2.2906
   95SAPS  C311 9451   1.218   2.395   8.201 -0.1869  0.2018 -0.1901
   95SAPS  H11X 9452   1.323   2.366   8.180 -0.9705 -2.9558 -0.3435
   95SAPS  H11Y 9453   1.157   2.302   8.189  0.4907 -0.3996  0.9026
   95SAPS  C312 9454   1.217   2.437   8.348 -0.3077  0.3526  0.1149
   95SAPS  H12X 9455   1.279   2.528   8.362 -0.1979  0.9033 -3.1453
   95SAPS  H12Y 9456   1.257   2.357   8.413  0.3290  2.4824  2.5212
   95SAPS  C313 9457   1.074   2.458   8.393  0.2673  0.4973 -0.1659
   95SAPS  H13X 9458   1.009   2.395   8.329  1.2429  1.0933 -1.7883
   95SAPS  H13Y 9459   1.035   2.560   8.370  2.5510  1.3887 -0.4052
   95SAPS  C314 9460   1.064   2.422   8.540  0.5234  0.0171 -0.5020
   95SAPS  H14X 9461   1.108   2.499   8.608  0.6067 -1.2961  0.9948
   95SAPS  H14Y 9462   1.099   2.321   8.570 -1.5122 -0.0844  1.8742
   95SAPS  C315 9463   0.921   2.428   8.595 -0.1432  0.3580  0.2492
   95SAPS  H15X 9464   0.877   2.329   8.572  3.3493 -1.0901 -0.8835
   95SAPS  H15Y 9465   0.859   2.509   8.552  0.8351  0.6581 -0.6501
   95SAPS  C316 9466   0.910   2.442   8.743 -0.1427  0.4869 -0.1219
   95SAPS  H16X 9467   0.923   2.550   8.766 -0.6505 -0.0097  3.0399
   95SAPS  H16Y 9468   0.994   2.391   8.796 -0.6348  0.2522  0.4552
   95SAPS  C317 9469   0.786   2.378   8.812 -0.3218  0.2332  0.2310
   95SAPS  H17X 9470   0.799   2.398   8.920  1.2810 -0.3258  0.1653
   95SAPS  H17Y 9471   0.783   2.268   8.795  1.9947  0.2947 -0.8847
   95SAPS  C318 9472   0.655   2.428   8.765  0.8153  0.1154  0.9274
   95SAPS  H18X 9473   0.675   2.447   8.657  1.0711  1.2979  1.1741
   95SAPS  H18Y 9474   0.631   2.526   8.811  2.2135  1.1065 -0.3807
   95SAPS  H18Z 9475   0.570   2.359   8.786 -1.5717  2.2570 -0.9852
   96SAPS     N 9476   3.906   4.011   6.096  0.2489  0.4500 -0.2608
   96SAPS   HN1 9477   3.951   3.941   6.035 -0.0250 -0.6682  0.7921
   96SAPS   HN2 9478   3.947   4.004   6.191 -2.3551 -1.6237  0.8633
   96SAPS   HN3 9479   3.808   3.978   6.110  0.6518 -1.3227 -1.3511
   96SAPS   C12 9480   3.926   4.144   6.042 -1.1018  0.2040  0.3753
   96SAPS  H12A 9481   4.029   4.174   6.029 -0.3428 -1.2908  2.4847
   96SAPS   C13 9482   3.873   4.160   5.900  0.7325 -0.3031 -0.2439
   96SAPS  O13A 9483   3.839   4.059   5.836  0.3845  0.2533  0.1404
   96SAPS  O13B 9484   3.893   4.273   5.843  0.0718 -0.2255  0.6083
   96SAPS   C11 9485   3.876   4.254   6.131 -0.3600 -0.4167  0.2114
   96SAPS  H11A 9486   3.878   4.349   6.074 -0.4388 -1.4986 -1.6573
   96SAPS  H11B 9487   3.949   4.257   6.215 -0.8130 -2.9532  0.7977
   96SAPS     P 9488   3.649   4.336   6.239 -0.1086  0.0591  0.3779
   96SAPS   O13 9489   3.627   4.441   6.134  0.1922  0.2224  0.4814
   96SAPS   O14 9490   3.530   4.259   6.291 -0.1988 -0.0792 -0.5329
   96SAPS   O12 9491   3.746   4.227   6.183 -0.0969 -0.1894  0.0973
   96SAPS   O11 9492   3.726   4.400   6.353 -0.2362  0.0683 -0.9121
   96SAPS    C1 9493   3.793   4.327   6.454  0.1952 -0.7742  0.2071
   96SAPS    HA 9494   3.810   4.223   6.418 -1.0632 -0.4512 -1.4292
   96SAPS    HB 9495   3.895   4.371   6.460 -1.2192  2.7780  0.6264
   96SAPS    C2 9496   3.726   4.325   6.592 -1.1584 -1.5367 -0.6597
   96SAPS    HS 9497   3.617   4.307   6.578 -1.7346  0.9926  0.1020
   96SAPS   O21 9498   3.747   4.459   6.652 -0.2740  0.5906 -0.2582
   96SAPS   C21 9499   3.650   4.491   6.739 -0.9845  0.1508 -0.1460
   96SAPS   O22 9500   3.550   4.426   6.751 -0.1723 -0.3814  0.1443
   96SAPS   C22 9501   3.693   4.602   6.831 -0.1816 -0.6150 -0.1732
   96SAPS   H2R 9502   3.792   4.575   6.873  1.0416 -0.5162 -2.8012
   96SAPS   H2S 9503   3.688   4.696   6.771 -1.3056 -0.0208  0.8088
   96SAPS    C3 9504   3.785   4.205   6.674  0.2077  0.1220  0.1307
   96SAPS    HX 9505   3.883   4.233   6.718 -0.0933  0.8687  0.3376
   96SAPS    HY 9506   3.805   4.115   6.614 -0.3845 -0.7288  1.1607
   96SAPS   O31 9507   3.689   4.160   6.765  0.5889 -0.2866 -0.2017
   96SAPS   C31 9508   3.700   4.190   6.891 -0.7979 -0.0777  0.2471
   96SAPS   O32 9509   3.800   4.238   6.948 -0.2162  0.0620 -0.6363
   96SAPS   C32 9510   3.575   4.124   6.968 -0.6243 -0.5109 -0.0499
   96SAPS   H2X 9511   3.562   4.023   6.923  1.2938 -0.2247 -1.3845
   96SAPS   H2Y 9512   3.487   4.188   6.949 -1.0808 -0.7561  1.1626
   96SAPS   C23 9513   3.593   4.626   6.949  0.4555  0.3971  0.1618
   96SAPS   H3R 9514   3.588   4.540   7.018 -1.3136 -1.6620 -2.3651
   96SAPS   H3S 9515   3.491   4.631   6.906  0.3280 -0.4529  0.3472
   96SAPS   C24 9516   3.638   4.747   7.036  0.2684 -0.0478 -0.7948
   96SAPS   H4R 9517   3.572   4.737   7.125 -0.1899 -1.4800 -1.2676
   96SAPS   H4S 9518   3.604   4.837   6.981 -1.4087 -0.5561 -0.6482
   96SAPS   C25 9519   3.781   4.739   7.085 -0.0669  0.3316  0.1007
   96SAPS   H5R 9520   3.853   4.777   7.012  1.0588 -1.5366  0.1643
   96SAPS   C26 9521   3.826   4.672   7.193 -0.8827 -0.0132  0.4464
   96SAPS   H6R 9522   3.932   4.683   7.221 -1.6914  2.2858  3.0609
   96SAPS   C27 9523   3.752   4.586   7.295 -0.1306 -0.3561  0.0447
   96SAPS   H7R 9524   3.645   4.573   7.267 -0.5553  0.6773  1.0894
   96SAPS   H7S 9525   3.739   4.639   7.392 -0.8287  1.2536 -0.8955
   96SAPS   C28 9526   3.820   4.450   7.309 -0.2851  0.3726 -0.4384
   96SAPS   H8R 9527   3.844   4.395   7.216 -2.5461  0.3164 -1.0610
   96SAPS   C29 9528   3.834   4.395   7.431 -0.4460 -0.4435  0.6599
   96SAPS   H9R 9529   3.883   4.297   7.428 -0.7712 -0.5913 -1.3909
   96SAPS  C210 9530   3.802   4.444   7.568 -0.4254  0.3624  0.1631
   96SAPS  H10R 9531   3.857   4.539   7.582  1.8063 -0.9013  0.6124
   96SAPS  H10S 9532   3.852   4.368   7.633  0.4006 -2.2241 -3.1970
   96SAPS  C211 9533   3.664   4.440   7.608  0.1856 -0.4572 -0.4306
   96SAPS  H11R 9534   3.593   4.381   7.549 -0.7859  0.7669 -0.5239
   96SAPS  C212 9535   3.629   4.491   7.729  0.4482  0.1791  0.2544
   96SAPS  H12R 9536   3.523   4.493   7.760  0.3600 -0.3479 -0.0051
   96SAPS  C213 9537   3.725   4.570   7.822  1.0761 -0.2030 -0.0442
   96SAPS  H13R 9538   3.670   4.653   7.873  1.2989 -0.2382  0.2549
   96SAPS  H13S 9539   3.796   4.628   7.759 -0.8718  1.1206 -1.1243
   96SAPS  C214 9540   3.797   4.489   7.921  0.5178 -0.2112 -0.2497
   96SAPS  H14R 9541   3.866   4.416   7.875  0.2273 -0.6727  0.0399
   96SAPS  C215 9542   3.796   4.485   8.057  0.4295 -0.2285  0.2788
   96SAPS  H15R 9543   3.870   4.425   8.112  0.8519  0.5761  0.6147
   96SAPS  C216 9544   3.705   4.577   8.145  0.0861  0.6873 -0.4481
   96SAPS  H16R 9545   3.617   4.516   8.173 -4.1458  5.4081 -1.9769
   96SAPS  H16S 9546   3.677   4.665   8.084  0.1897  0.1531 -1.2969
   96SAPS  C217 9547   3.767   4.605   8.278  0.6036 -0.1853  0.6107
   96SAPS  H17R 9548   3.696   4.678   8.322 -2.2423 -0.9676 -2.2986
   96SAPS  H17S 9549   3.863   4.661   8.270  1.4125 -1.6936 -0.8074
   96SAPS  C218 9550   3.776   4.479   8.371  0.2073 -0.6621  0.2212
   96SAPS  H18R 9551   3.875   4.428   8.364  1.4694  1.4669  1.5652
   96SAPS  H18S 9552   3.694   4.407   8.347 -1.3562  0.9332  0.5646
   96SAPS  C219 9553   3.763   4.504   8.517  0.3484  0.0194  0.0372
   96SAPS  H19R 9554   3.654   4.522   8.532 -0.0021  0.3569 -2.5595
   96SAPS  H19S 9555   3.817   4.600   8.530 -0.7041  0.9293 -1.8683
   96SAPS  C220 9556   3.807   4.389   8.611 -0.0704  0.0881  0.4134
   96SAPS  H20R 9557   3.918   4.390   8.611 -0.0327 -1.7496  0.8140
   96SAPS  H20S 9558   3.768   4.293   8.573 -0.0419  1.2458 -2.8807
   96SAPS  H20T 9559   3.778   4.402   8.717 -1.6578  1.4733 -0.1343
   96SAPS   C33 9560   3.592   4.113   7.118  0.0961  0.5407  0.0405
   96SAPS   H3X 9561   3.490   4.104   7.162  0.3757 -1.6975  0.3363
   96SAPS   H3Y 9562   3.633   4.209   7.155 -2.5706  1.5556  0.6436
   96SAPS   C34 9563   3.680   3.991   7.164  0.1895 -0.2591  0.4821
   96SAPS   H4X 9564   3.760   3.977   7.088 -0.9494 -0.9831 -0.6165
   96SAPS   H4Y 9565   3.617   3.900   7.153 -2.3621  1.3661  0.8430
   96SAPS   C35 9566   3.731   3.994   7.306 -0.3247  0.2580 -0.1894
   96SAPS   H5X 9567   3.770   4.097   7.310  0.0886  0.0787  0.5405
   96SAPS   H5Y 9568   3.813   3.920   7.320 -0.6239  0.1019  0.9068
   96SAPS   C36 9569   3.628   3.972   7.411  0.0930  0.0128 -0.1656
   96SAPS   H6X 9570   3.562   3.884   7.406 -2.1349  1.4875  1.4461
   96SAPS   H6Y 9571   3.549   4.049   7.399 -0.8396 -0.8590  0.2129
   96SAPS   C37 9572   3.686   3.991   7.551 -0.2459  0.1921 -0.3143
   96SAPS   H7X 9573   3.728   4.093   7.563 -0.4039  0.2711 -0.4247
   96SAPS   H7Y 9574   3.770   3.921   7.571 -0.7027 -0.9912 -2.1854
   96SAPS   C38 9575   3.580   3.954   7.655 -0.4300  0.7105 -0.0412
   96SAPS   H8X 9576   3.570   3.844   7.649 -0.0692  0.7381 -1.9469
   96SAPS   H8Y 9577   3.477   3.992   7.637 -0.7379 -0.0656  0.0802
   96SAPS   C39 9578   3.638   3.992   7.794  0.3203 -0.1644  0.4678
   96SAPS   H9X 9579   3.647   4.103   7.798 -2.2698  0.0951  1.2659
   96SAPS   H9Y 9580   3.732   3.939   7.817 -0.4161 -1.6845  0.0861
   96SAPS  C310 9581   3.526   3.953   7.896  0.2371 -0.3628 -0.0317
   96SAPS  H10X 9582   3.502   3.845   7.892  0.5819 -0.4310 -0.3400
   96SAPS  H10Y 9583   3.426   3.997   7.876  0.4947  0.1018 -0.3354
   96SAPS  C311 9584   3.563   3.999   8.043  0.1612  0.3138 -0.0418
   96SAPS  H11X 9585   3.466   4.002   8.096  0.5759  0.7768  0.7091
   96SAPS  H11Y 9586   3.596   4.103   8.024 -0.2843  0.4364 -0.1431
   96SAPS  C312 9587   3.675   3.922   8.113 -0.2172  0.8401 -0.2451
   96SAPS  H12X 9588   3.750   3.978   8.172  0.2518 -1.3302  1.3356
   96SAPS  H12Y 9589   3.744   3.889   8.032 -0.1194  0.1396  0.1187
   96SAPS  C313 9590   3.624   3.806   8.176  0.0998  0.4416 -0.3806
   96SAPS  H13X 9591   3.697   3.722   8.170 -2.0500 -1.5508 -0.4486
   96SAPS  H13Y 9592   3.536   3.755   8.130 -0.7750  1.4815  0.0848
   96SAPS  C314 9593   3.588   3.831   8.321 -0.1396 -0.4787 -0.1596
   96SAPS  H14X 9594   3.531   3.926   8.329 -1.3038 -1.2482  1.2165
   96SAPS  H14Y 9595   3.679   3.838   8.385 -0.9234 -2.0040  1.1767
   96SAPS  C315 9596   3.503   3.719   8.385 -0.0712 -0.2954  0.1132
   96SAPS  H15X 9597   3.551   3.620   8.382  0.7211  0.0901 -2.1081
   96SAPS  H15Y 9598   3.405   3.720   8.331 -0.7695  0.5927  1.3458
   96SAPS  C316 9599   3.465   3.760   8.527 -0.0138  0.0122  0.2134
   96SAPS  H16X 9600   3.401   3.848   8.506  1.2307  1.2506  1.4239
   96SAPS  H16Y 9601   3.548   3.782   8.597  0.2308 -1.0903  0.2938
   96SAPS  C317 9602   3.372   3.649   8.580 -0.0980 -0.3400  0.2897
   96SAPS  H17X 9603   3.436   3.558   8.582  0.6956  0.2089  0.0725
   96SAPS  H17Y 9604   3.299   3.621   8.501  0.9047 -1.4052 -0.2936
   96SAPS  C318 9605   3.301   3.686   8.703 -0.5680 -0.3072  0.4114
   96SAPS  H18X 9606   3.263   3.590   8.744  0.1328 -1.2650 -1.0884
   96SAPS  H18Y 9607   3.216   3.753   8.679 -0.9159 -0.8360  0.1435
   96SAPS  H18Z 9608   3.372   3.738   8.771  2.5801 -3.3978 -0.1973
   97SAPS     N 9609   0.095   1.705   6.184 -0.2356  0.0685 -0.3194
   97SAPS   HN1 9610   0.037   1.776   6.234  2.1250  0.7435  1.6632
   97SAPS   HN2 9611   0.166   1.680   6.256 -1.3306  0.5910  0.9928
   97SAPS   HN3 9612   0.144   1.755   6.107  0.9991 -0.6035 -0.0053
   97SAPS   C12 9613   0.034   1.576   6.153 -0.1537 -0.1485  0.3554
   97SAPS  H12A 9614  -0.066   1.595   6.115  0.2329  1.5341  0.1061
   97SAPS   C13 9615   0.096   1.496   6.044 -0.4654 -0.4555 -0.0520
   97SAPS  O13A 9616   0.206   1.530   5.995  0.3253 -0.7396  0.1336
   97SAPS  O13B 9617   0.037   1.386   6.016  0.4644 -0.2199  0.4179
   97SAPS   C11 9618   0.021   1.499   6.287 -0.5273  0.4342  0.3524
   97SAPS  H11A 9619   0.125   1.471   6.317 -1.0406  0.4095  2.2618
   97SAPS  H11B 9620  -0.038   1.406   6.272 -1.6543  1.0548  0.7837
   97SAPS     P 9621  -0.058   1.559   6.530  0.3076  0.0174  0.1511
   97SAPS   O13 9622  -0.072   1.691   6.591  0.0345  0.0625 -0.0790
   97SAPS   O14 9623  -0.162   1.459   6.565  0.1873 -0.1378 -0.0973
   97SAPS   O12 9624  -0.060   1.574   6.377 -0.2134 -0.0267  0.4673
   97SAPS   O11 9625   0.087   1.509   6.568 -0.1608  0.1966  0.6332
   97SAPS    C1 9626   0.118   1.375   6.616  0.0818 -0.3163  0.2419
   97SAPS    HA 9627   0.049   1.293   6.588  0.1826 -0.7155  1.1403
   97SAPS    HB 9628   0.220   1.343   6.583  1.1276  1.2794  1.7229
   97SAPS    C2 9629   0.125   1.368   6.771  0.7250 -0.6440 -0.9617
   97SAPS    HS 9630   0.136   1.261   6.797  0.0081 -0.2585  1.1108
   97SAPS   O21 9631   0.001   1.426   6.822 -0.4099 -0.0416  0.1745
   97SAPS   C21 9632  -0.101   1.339   6.826  1.2757 -0.0890 -0.1423
   97SAPS   O22 9633  -0.107   1.222   6.799 -0.8372  0.2821 -0.5600
   97SAPS   C22 9634  -0.225   1.408   6.884  0.6719 -0.3317 -0.5824
   97SAPS   H2R 9635  -0.209   1.518   6.883  1.7634 -0.4716 -1.7204
   97SAPS   H2S 9636  -0.303   1.411   6.805  2.2367  2.9891 -2.2203
   97SAPS    C3 9637   0.240   1.456   6.820 -0.1012  1.0915 -0.2287
   97SAPS    HX 9638   0.219   1.558   6.781  0.0796  1.2136 -0.0066
   97SAPS    HY 9639   0.334   1.420   6.773 -0.4312  0.9786 -0.8172
   97SAPS   O31 9640   0.247   1.457   6.963  0.2962  0.6868  0.0555
   97SAPS   C31 9641   0.331   1.541   7.012  0.1482 -0.2536 -0.7169
   97SAPS   O32 9642   0.392   1.626   6.956 -0.0766 -0.0507  0.2299
   97SAPS   C32 9643   0.342   1.524   7.161  0.0678  1.1847 -1.1450
   97SAPS   H2X 9644   0.363   1.418   7.188 -0.3351  1.1803 -0.8509
   97SAPS   H2Y 9645   0.244   1.554   7.204  0.3711  1.4454 -0.6323
   97SAPS   C23 9646  -0.280   1.353   7.020 -0.1684  0.2558  0.2791
   97SAPS   H3R 9647  -0.198   1.317   7.087  0.7083  2.7109  0.6414
   97SAPS   H3S 9648  -0.338   1.265   6.986 -0.6265  0.6790 -0.0462
   97SAPS   C24 9649  -0.378   1.453   7.083  0.2265 -0.0337 -0.3267
   97SAPS   H4R 9650  -0.465   1.481   7.019 -0.8093  1.1912  1.5029
   97SAPS   H4S 9651  -0.312   1.542   7.096  0.5716 -0.3646  0.2315
   97SAPS   C25 9652  -0.438   1.383   7.204 -0.2766  0.6102  0.1438
   97SAPS   H5R 9653  -0.522   1.316   7.183  0.8870 -1.1109  0.8133
   97SAPS   C26 9654  -0.407   1.415   7.332  0.2488  0.4131 -0.2742
   97SAPS   H6R 9655  -0.459   1.360   7.412  1.5481 -1.3753 -0.6131
   97SAPS   C27 9656  -0.296   1.509   7.370  0.4092 -0.5557 -0.2043
   97SAPS   H7R 9657  -0.253   1.571   7.288 -1.6492  0.8718 -0.2668
   97SAPS   H7S 9658  -0.218   1.443   7.414 -0.5195 -0.9254  0.9431
   97SAPS   C28 9659  -0.346   1.617   7.471  0.6189  0.0196 -0.6616
   97SAPS   H8R 9660  -0.366   1.716   7.427 -2.2350  0.5087  1.4127
   97SAPS   C29 9661  -0.366   1.603   7.604 -0.1089 -0.0872 -1.3930
   97SAPS   H9R 9662  -0.373   1.695   7.664  0.3009  0.0619 -1.5628
   97SAPS  C210 9663  -0.333   1.476   7.676  1.0466  0.2121  0.0437
   97SAPS  H10R 9664  -0.241   1.427   7.640  1.6594  1.5658 -0.2861
   97SAPS  H10S 9665  -0.417   1.407   7.650  0.2986  0.8784  0.6269
   97SAPS  C211 9666  -0.342   1.477   7.825 -0.8739 -0.0830 -1.1715
   97SAPS  H11R 9667  -0.447   1.481   7.857 -0.1921  0.4921  1.1819
   97SAPS  C212 9668  -0.240   1.475   7.914  0.6715 -1.1457 -0.2677
   97SAPS  H12R 9669  -0.268   1.483   8.020  1.5027 -0.1395 -0.0992
   97SAPS  C213 9670  -0.093   1.474   7.893 -0.3611  0.3393 -0.9642
   97SAPS  H13R 9671  -0.036   1.528   7.972  0.5065 -0.5521 -0.9561
   97SAPS  H13S 9672  -0.063   1.522   7.797  2.1257 -1.2873 -1.0826
   97SAPS  C214 9673  -0.023   1.339   7.901  0.2668 -0.2983  0.0177
   97SAPS  H14R 9674  -0.040   1.287   7.997 -1.3639  2.1303  1.1377
   97SAPS  C215 9675   0.053   1.266   7.816 -0.3613 -0.0484  0.3401
   97SAPS  H15R 9676   0.090   1.165   7.841  0.5153 -0.1484 -1.2406
   97SAPS  C216 9677   0.100   1.314   7.680  0.5210  0.0093  0.2650
   97SAPS  H16R 9678   0.210   1.309   7.673  0.4968 -0.0744 -0.0857
   97SAPS  H16S 9679   0.071   1.420   7.664 -1.2212  0.0403  2.9401
   97SAPS  C217 9680   0.030   1.245   7.565  0.3628  0.3777 -0.1803
   97SAPS  H17R 9681  -0.080   1.253   7.574  0.4518 -0.4768  2.4133
   97SAPS  H17S 9682   0.043   1.135   7.559 -1.6217  0.2021 -2.7452
   97SAPS  C218 9683   0.062   1.310   7.428  0.2827  0.2925  0.5829
   97SAPS  H18R 9684   0.171   1.314   7.407  0.2063 -2.1774 -0.6995
   97SAPS  H18S 9685   0.030   1.415   7.436  0.5280  0.4159 -0.0348
   97SAPS  C219 9686  -0.002   1.243   7.304  0.0728  0.3158  0.0615
   97SAPS  H19R 9687  -0.108   1.274   7.305  0.0276  0.2420  2.4598
   97SAPS  H19S 9688  -0.003   1.132   7.311  0.0131  0.3053 -0.0936
   97SAPS  C220 9689   0.062   1.255   7.166 -0.3366 -0.0448 -0.2305
   97SAPS  H20R 9690   0.167   1.219   7.167 -0.8150 -1.5323 -0.7322
   97SAPS  H20S 9691   0.092   1.357   7.133  0.5347 -1.2236 -3.4518
   97SAPS  H20T 9692   0.009   1.201   7.085  0.4427  1.7293 -2.0332
   97SAPS   C33 9693   0.450   1.618   7.221  0.0812  0.6082  0.3297
   97SAPS   H3X 9694   0.409   1.718   7.194  1.2610  0.6898 -1.3470
   97SAPS   H3Y 9695   0.543   1.589   7.168  0.2429  0.2412  0.8130
   97SAPS   C34 9696   0.476   1.618   7.367 -0.2225  0.3739  1.2092
   97SAPS   H4X 9697   0.379   1.660   7.403 -0.9717  0.3830 -0.7374
   97SAPS   H4Y 9698   0.561   1.686   7.390  0.3676  0.1007 -0.0845
   97SAPS   C35 9699   0.475   1.482   7.433  0.2420  0.2489 -0.6008
   97SAPS   H5X 9700   0.539   1.418   7.368 -2.4397 -0.2031 -2.9951
   97SAPS   H5Y 9701   0.373   1.437   7.437 -0.0661  1.0477  2.1203
   97SAPS   C36 9702   0.531   1.492   7.570 -0.4748  0.2019  0.4989
   97SAPS   H6X 9703   0.619   1.559   7.568  0.7094 -1.3100 -2.0425
   97SAPS   H6Y 9704   0.544   1.389   7.609 -1.7563  0.0145  0.4896
   97SAPS   C37 9705   0.430   1.562   7.660  0.4088  0.4312  0.2241
   97SAPS   H7X 9706   0.343   1.494   7.675  0.0093  1.0897  0.9622
   97SAPS   H7Y 9707   0.389   1.656   7.617 -1.1455 -1.1089 -1.8792
   97SAPS   C38 9708   0.484   1.598   7.789  0.1052 -0.2775 -0.3732
   97SAPS   H8X 9709   0.423   1.670   7.847 -2.1334 -1.5463 -1.0580
   97SAPS   H8Y 9710   0.582   1.649   7.778  0.4944 -1.0898 -0.7642
   97SAPS   C39 9711   0.507   1.481   7.884  0.1797  0.0475 -1.3007
   97SAPS   H9X 9712   0.578   1.524   7.959  2.1777  0.3054 -3.2454
   97SAPS   H9Y 9713   0.572   1.407   7.832  1.7003 -0.6596  1.4113
   97SAPS  C310 9714   0.380   1.413   7.934  0.3200  0.3352  0.4509
   97SAPS  H10X 9715   0.353   1.327   7.869 -0.1379 -2.6689  4.2270
   97SAPS  H10Y 9716   0.301   1.490   7.947 -0.0781 -0.1839  1.1710
   97SAPS  C311 9717   0.403   1.346   8.068 -0.2332  0.7790 -0.0022
   97SAPS  H11X 9718   0.414   1.431   8.137  3.0327  0.0833  0.4844
   97SAPS  H11Y 9719   0.501   1.293   8.062  0.2697  1.7022 -0.0471
   97SAPS  C312 9720   0.296   1.246   8.114 -0.0892 -0.4094  0.0740
   97SAPS  H12X 9721   0.300   1.152   8.054  1.0019 -0.6698  0.5427
   97SAPS  H12Y 9722   0.192   1.283   8.097 -0.5625 -2.4560 -2.0092
   97SAPS  C313 9723   0.321   1.193   8.258 -0.4313  0.1164  0.2305
   97SAPS  H13X 9724   0.239   1.125   8.288 -1.1850  0.8777 -0.0816
   97SAPS  H13Y 9725   0.325   1.281   8.326  0.0630 -0.0098  0.3741
   97SAPS  C314 9726   0.452   1.112   8.276 -0.1902 -0.3634  0.3614
   97SAPS  H14X 9727   0.545   1.172   8.262 -0.5551 -0.0954 -1.0999
   97SAPS  H14Y 9728   0.453   1.023   8.210 -0.3663 -1.5226  1.8828
   97SAPS  C315 9729   0.471   1.054   8.415 -0.0255  0.2385 -0.4746
   97SAPS  H15X 9730   0.385   0.989   8.441 -0.2754  1.1518  1.1385
   97SAPS  H15Y 9731   0.484   1.132   8.494 -0.5458  0.8162 -0.9520
   97SAPS  C316 9732   0.600   0.960   8.429 -0.2088 -0.6191  1.1845
   97SAPS  H16X 9733   0.682   1.033   8.438  0.1682 -1.0345  1.1401
   97SAPS  H16Y 9734   0.604   0.903   8.334 -1.6112  1.1171  0.0159
   97SAPS  C317 9735   0.612   0.865   8.555  0.2730 -0.0560 -0.3092
   97SAPS  H17X 9736   0.531   0.790   8.548  1.0755 -1.0117  0.3513
   97SAPS  H17Y 9737   0.602   0.919   8.652 -0.2559 -1.0186  0.1789
   97SAPS  C318 9738   0.754   0.813   8.562 -1.2174 -0.5622  0.3724
   97SAPS  H18X 9739   0.782   0.769   8.660  0.0802 -0.9758 -0.1537
   97SAPS  H18Y 9740   0.828   0.894   8.544 -0.8656 -0.9353  0.0946
   97SAPS  H18Z 9741   0.767   0.734   8.485  0.8799  0.6979 -0.6514
   98SAPS     N 9742   3.722   2.550   6.003 -0.1811 -0.6344 -0.2483
   98SAPS   HN1 9743   3.700   2.455   6.038 -2.9850 -0.2592 -0.7405
   98SAPS   HN2 9744   3.722   2.552   5.899 -2.1527 -0.1187 -0.2651
   98SAPS   HN3 9745   3.815   2.579   6.039 -0.8266 -0.9828  1.7737
   98SAPS   C12 9746   3.627   2.655   6.042 -0.0464 -0.2601 -0.3947
   98SAPS  H12A 9747   3.631   2.667   6.149  3.9057 -0.1773 -0.4120
   98SAPS   C13 9748   3.662   2.797   5.992  0.1415  0.5482 -0.5858
   98SAPS  O13A 9749   3.770   2.819   5.935  0.1026 -0.0565 -0.0529
   98SAPS  O13B 9750   3.575   2.885   5.985  0.7357  0.0182 -0.7557
   98SAPS   C11 9751   3.492   2.623   5.987  0.1237  0.1673  0.2661
   98SAPS  H11A 9752   3.498   2.636   5.877  1.4382  3.7163  0.6339
   98SAPS  H11B 9753   3.416   2.699   6.016 -0.9566 -0.3875 -1.0163
   98SAPS     P 9754   3.317   2.483   6.104  0.6194 -0.5570 -0.1933
   98SAPS   O13 9755   3.204   2.525   6.016 -0.9576  0.3343  0.0901
   98SAPS   O14 9756   3.301   2.346   6.165 -0.0119 -0.0895  0.2845
   98SAPS   O12 9757   3.452   2.492   6.024 -0.1350  0.0452  0.6123
   98SAPS   O11 9758   3.330   2.594   6.222 -0.2669  0.4550  0.1843
   98SAPS    C1 9759   3.428   2.592   6.326  0.3558 -0.0196 -0.3148
   98SAPS    HA 9760   3.509   2.520   6.302  2.0911  1.0321  1.9782
   98SAPS    HB 9761   3.482   2.687   6.342 -2.0223  1.0786  2.0051
   98SAPS    C2 9762   3.361   2.563   6.469 -0.0615 -0.3151  0.8369
   98SAPS    HS 9763   3.269   2.505   6.447  0.1779 -0.5230  0.3850
   98SAPS   O21 9764   3.327   2.695   6.525  0.5269 -0.1624 -0.4596
   98SAPS   C21 9765   3.226   2.688   6.616  0.5975  0.2019  0.6856
   98SAPS   O22 9766   3.169   2.584   6.642  0.1287  0.1773 -0.1880
   98SAPS   C22 9767   3.201   2.819   6.683 -0.0604 -0.1016 -0.7521
   98SAPS   H2R 9768   3.171   2.795   6.787 -0.3206 -0.4730 -0.9110
   98SAPS   H2S 9769   3.304   2.859   6.687  0.2404 -0.8651  3.0927
   98SAPS    C3 9770   3.458   2.485   6.565  0.4098 -0.6574 -0.3810
   98SAPS    HX 9771   3.559   2.530   6.555 -0.0173  0.6204  0.7855
   98SAPS    HY 9772   3.465   2.384   6.519 -1.9698 -1.7152  1.4170
   98SAPS   O31 9773   3.415   2.480   6.708  0.0375 -0.4017  0.4303
   98SAPS   C31 9774   3.419   2.366   6.763  0.7162 -0.1425 -0.5615
   98SAPS   O32 9775   3.439   2.255   6.719  0.1407  0.1739 -0.3015
   98SAPS   C32 9776   3.361   2.382   6.905 -0.2087 -0.0405 -0.0083
   98SAPS   H2X 9777   3.259   2.339   6.897  0.2202 -0.9343 -0.8568
   98SAPS   H2Y 9778   3.351   2.491   6.925 -0.6464  0.3311 -2.0426
   98SAPS   C23 9779   3.113   2.936   6.615  0.1508 -0.1957 -0.2706
   98SAPS   H3R 9780   3.008   2.898   6.612 -0.8135  2.3220 -1.0026
   98SAPS   H3S 9781   3.141   2.961   6.511 -1.0382 -0.1363 -0.5977
   98SAPS   C24 9782   3.096   3.064   6.708 -0.0172 -0.3026  0.3973
   98SAPS   H4R 9783   3.049   3.037   6.805 -0.8540 -2.3545 -0.5355
   98SAPS   H4S 9784   3.024   3.137   6.666  0.5526 -0.7888 -1.4798
   98SAPS   C25 9785   3.214   3.149   6.725 -0.9266 -0.3374  0.4643
   98SAPS   H5R 9786   3.253   3.188   6.630 -0.9147 -0.7541  0.2994
   98SAPS   C26 9787   3.278   3.174   6.842  0.7134  0.0190  0.0475
   98SAPS   H6R 9788   3.368   3.235   6.825  0.6252 -0.0637 -0.7338
   98SAPS   C27 9789   3.250   3.129   6.982  0.0733  0.8312  0.6031
   98SAPS   H7R 9790   3.145   3.140   7.016 -0.1467 -1.5161  0.8491
   98SAPS   H7S 9791   3.293   3.211   7.043  2.0101  2.6778 -2.9067
   98SAPS   C28 9792   3.287   2.987   7.023  0.1404 -0.9824  0.4443
   98SAPS   H8R 9793   3.313   2.917   6.943 -1.9900 -1.7749  0.3949
   98SAPS   C29 9794   3.284   2.940   7.150  0.0800 -0.4338  0.0642
   98SAPS   H9R 9795   3.306   2.836   7.176  2.3792 -0.2094 -0.7039
   98SAPS  C210 9796   3.253   3.035   7.260 -0.1593  0.4801 -0.5900
   98SAPS  H10R 9797   3.195   2.986   7.341  1.5665 -0.5496  0.1035
   98SAPS  H10S 9798   3.188   3.119   7.229 -0.9799 -0.3896 -1.2779
   98SAPS  C211 9799   3.380   3.099   7.322  0.4280  0.3770  0.6548
   98SAPS  H11R 9800   3.463   3.114   7.252  0.4326 -2.2618 -0.0110
   98SAPS  C212 9801   3.395   3.127   7.454  0.4355  0.4349 -0.5247
   98SAPS  H12R 9802   3.487   3.179   7.483  0.4262 -0.1438  0.6200
   98SAPS  C213 9803   3.293   3.105   7.567 -0.7230 -0.2470  0.4254
   98SAPS  H13R 9804   3.190   3.122   7.530 -0.0956  0.7770 -0.9156
   98SAPS  H13S 9805   3.310   3.187   7.640  1.4609 -0.3182  0.0470
   98SAPS  C214 9806   3.298   2.966   7.619  0.2875 -0.3580 -0.1360
   98SAPS  H14R 9807   3.294   2.891   7.539 -3.2138  3.0718 -3.6379
   98SAPS  C215 9808   3.300   2.925   7.747  0.0114 -0.2247 -0.5634
   98SAPS  H15R 9809   3.305   2.817   7.768 -2.3463 -0.5628 -1.3586
   98SAPS  C216 9810   3.299   3.010   7.872 -0.0148  0.7240 -0.4206
   98SAPS  H16R 9811   3.220   3.088   7.877 -1.8216 -1.0855  1.9924
   98SAPS  H16S 9812   3.399   3.056   7.883  1.1205 -1.4382 -1.2370
   98SAPS  C217 9813   3.283   2.927   8.004 -0.5030 -0.1404 -0.2225
   98SAPS  H17R 9814   3.373   2.863   8.019 -0.3123 -0.3494 -2.1143
   98SAPS  H17S 9815   3.197   2.858   8.000  0.9226 -2.0396  0.5569
   98SAPS  C218 9816   3.273   3.020   8.124  0.3618  0.3820 -0.0268
   98SAPS  H18R 9817   3.178   3.073   8.103 -0.0886  1.5876  4.0846
   98SAPS  H18S 9818   3.354   3.096   8.123  3.3210 -2.5502 -0.8924
   98SAPS  C219 9819   3.260   2.947   8.266 -0.1993  0.5810 -0.2718
   98SAPS  H19R 9820   3.270   3.026   8.343  4.1840  0.1069 -0.0888
   98SAPS  H19S 9821   3.340   2.872   8.285 -0.1669  1.1312  2.0088
   98SAPS  C220 9822   3.125   2.890   8.292  0.4312  0.5469  0.3537
   98SAPS  H20R 9823   3.058   2.973   8.324  0.4372  0.3135  0.9974
   98SAPS  H20S 9824   3.139   2.817   8.375  1.3262 -1.2128 -1.2573
   98SAPS  H20T 9825   3.086   2.831   8.207  0.2307  0.4617  0.5028
   98SAPS   C33 9826   3.440   2.304   7.012 -0.7769 -0.0768  0.7792
   98SAPS   H3X 9827   3.543   2.347   7.023 -0.4714 -0.9449  1.4435
   98SAPS   H3Y 9828   3.454   2.196   6.992 -0.2465 -0.3412  2.4129
   98SAPS   C34 9829   3.368   2.310   7.144 -0.3787  0.2926 -0.1800
   98SAPS   H4X 9830   3.262   2.277   7.138  0.0997 -1.4199  0.3303
   98SAPS   H4Y 9831   3.348   2.413   7.179 -1.6472 -0.1509  0.4535
   98SAPS   C35 9832   3.437   2.220   7.250 -0.0238  0.3833 -0.6443
   98SAPS   H5X 9833   3.545   2.243   7.266 -0.9687  2.9303  3.8337
   98SAPS   H5Y 9834   3.431   2.119   7.205  0.1057  0.4183 -0.7413
   98SAPS   C36 9835   3.369   2.219   7.383  0.0220  0.5915  0.3199
   98SAPS   H6X 9836   3.275   2.161   7.369  0.1468 -0.1541  2.2589
   98SAPS   H6Y 9837   3.349   2.319   7.427 -3.0672  1.9967 -3.6272
   98SAPS   C37 9838   3.445   2.126   7.488  0.2110  0.2439 -0.1209
   98SAPS   H7X 9839   3.543   2.167   7.520 -1.9178  3.4425  3.0416
   98SAPS   H7Y 9840   3.456   2.030   7.433  1.5252  0.0370  0.4540
   98SAPS   C38 9841   3.355   2.114   7.613 -0.7171  0.5333 -0.1715
   98SAPS   H8X 9842   3.250   2.091   7.586 -0.9098  2.5677 -1.3229
   98SAPS   H8Y 9843   3.363   2.214   7.661  1.1916 -0.3714  1.5779
   98SAPS   C39 9844   3.415   2.022   7.720 -0.7901  0.3541  0.0856
   98SAPS   H9X 9845   3.525   2.030   7.727 -0.8728  0.0425  2.4434
   98SAPS   H9Y 9846   3.398   1.924   7.671 -1.8093  0.9392 -0.7809
   98SAPS  C310 9847   3.342   2.025   7.858  0.4655 -0.9293  0.2159
   98SAPS  H10X 9848   3.237   2.019   7.821  0.4202  0.6450  0.0022
   98SAPS  H10Y 9849   3.361   2.126   7.901 -0.4624 -0.2372 -0.9334
   98SAPS  C311 9850   3.398   1.921   7.958 -0.4427 -0.0250 -0.3672
   98SAPS  H11X 9851   3.508   1.940   7.967 -0.4306 -0.4690  0.5273
   98SAPS  H11Y 9852   3.392   1.818   7.917 -0.0974 -1.4604  2.8838
   98SAPS  C312 9853   3.324   1.930   8.091 -0.5904  0.0247 -0.0560
   98SAPS  H12X 9854   3.219   1.910   8.058  0.5777 -1.6407 -3.1883
   98SAPS  H12Y 9855   3.333   2.035   8.127  0.3108 -0.1979  0.3814
   98SAPS  C313 9856   3.370   1.816   8.189 -0.0482  0.0862 -0.5172
   98SAPS  H13X 9857   3.474   1.842   8.218 -0.6394  0.7946  1.0919
   98SAPS  H13Y 9858   3.363   1.719   8.134 -1.9156 -0.1802  0.1210
   98SAPS  C314 9859   3.282   1.799   8.315  0.0204  0.5793  0.5596
   98SAPS  H14X 9860   3.321   1.711   8.372  2.3101 -0.3160 -2.1233
   98SAPS  H14Y 9861   3.177   1.780   8.286  0.1806  2.1592 -1.1793
   98SAPS  C315 9862   3.275   1.925   8.398  0.1187 -0.2376 -0.2846
   98SAPS  H15X 9863   3.291   2.017   8.337  2.5236 -0.7441 -0.5509
   98SAPS  H15Y 9864   3.368   1.922   8.459  0.2578 -0.6374 -0.5150
   98SAPS  C316 9865   3.146   1.956   8.465  0.5147  0.5479 -0.6235
   98SAPS  H16X 9866   3.079   1.973   8.378  0.2563 -0.8672 -0.7133
   98SAPS  H16Y 9867   3.136   2.051   8.522 -2.0449 -1.4772  2.6635
   98SAPS  C317 9868   3.098   1.844   8.549 -0.2952 -0.6143 -1.2501
   98SAPS  H17X 9869   3.135   1.840   8.653 -0.9330  0.6657 -0.9597
   98SAPS  H17Y 9870   3.123   1.744   8.506  0.9581 -1.1224  0.5620
   98SAPS  C318 9871   2.949   1.861   8.571  0.1897  0.1388  0.2499
   98SAPS  H18X 9872   2.921   1.772   8.633  2.6484 -0.8454  0.0470
   98SAPS  H18Y 9873   2.896   1.867   8.474  2.3763  2.8031 -0.8957
   98SAPS  H18Z 9874   2.912   1.955   8.619 -0.9594  0.5921 -1.4306
   99SAPS     N 9875   2.202   5.823   6.009 -0.1043 -0.2477  0.0200
   99SAPS   HN1 9876   2.147   5.875   6.080 -0.4186 -2.9609  1.9275
   99SAPS   HN2 9877   2.278   5.774   6.062  2.2478  1.9573 -1.1113
   99SAPS   HN3 9878   2.232   5.888   5.934 -2.9453 -0.6691 -1.6096
   99SAPS   C12 9879   2.124   5.715   5.932  0.2033 -0.5675  0.4419
   99SAPS  H12A 9880   2.069   5.770   5.857  2.0250 -0.3658 -0.8174
   99SAPS   C13 9881   2.214   5.617   5.850  0.0000  0.2341 -0.0483
   99SAPS  O13A 9882   2.328   5.659   5.818  0.0935  0.5607 -0.2233
   99SAPS  O13B 9883   2.161   5.509   5.805  0.1793 -0.3453  0.4380
   99SAPS   C11 9884   2.029   5.644   6.025  0.3941  0.2021  0.2521
   99SAPS  H11A 9885   2.094   5.625   6.113  0.7439  4.3663  1.0936
   99SAPS  H11B 9886   1.992   5.546   5.988  2.0901 -0.2630 -0.3188
   99SAPS     P 9887   1.907   5.809   6.191 -0.1270  0.0661 -0.1653
   99SAPS   O13 9888   2.024   5.906   6.194  0.2441  0.3087 -0.0610
   99SAPS   O14 9889   1.767   5.864   6.197 -0.6308 -0.1695 -0.4409
   99SAPS   O12 9890   1.919   5.727   6.059 -0.2352  0.2767 -0.0447
   99SAPS   O11 9891   1.925   5.700   6.309 -0.1431 -0.3460  0.0456
   99SAPS    C1 9892   2.044   5.701   6.392 -0.1134  0.0211 -0.0960
   99SAPS    HA 9893   2.062   5.595   6.419  1.1031 -0.0938 -1.2681
   99SAPS    HB 9894   2.136   5.722   6.334 -1.0536 -1.4383 -2.2396
   99SAPS    C2 9895   2.022   5.786   6.525 -0.3307  0.2433  0.1740
   99SAPS    HS 9896   2.094   5.734   6.592 -1.1077 -2.7966 -1.1427
   99SAPS   O21 9897   1.880   5.772   6.558 -0.0325  0.0497 -0.1625
   99SAPS   C21 9898   1.858   5.657   6.603 -0.2260 -0.5788  0.4101
   99SAPS   O22 9899   1.940   5.569   6.626  0.2347  0.3998 -0.0302
   99SAPS   C22 9900   1.709   5.644   6.621  0.4626 -0.0768 -0.6901
   99SAPS   H2R 9901   1.664   5.745   6.633 -1.2578 -0.8249 -0.4940
   99SAPS   H2S 9902   1.659   5.596   6.534  2.3979 -2.2425 -0.7072
   99SAPS    C3 9903   2.056   5.936   6.511  0.2650 -0.1320 -0.1306
   99SAPS    HX 9904   1.986   5.982   6.438  0.8458  1.1028  0.0625
   99SAPS    HY 9905   2.159   5.952   6.471 -0.3832 -0.2055 -1.9394
   99SAPS   O31 9906   2.039   6.002   6.635 -0.1860  1.0294  0.0897
   99SAPS   C31 9907   2.148   5.993   6.715 -0.2442  0.1338 -0.4014
   99SAPS   O32 9908   2.257   5.959   6.680  0.1958 -0.5202  0.1004
   99SAPS   C32 9909   2.111   6.052   6.851  0.0178  0.2292  0.5864
   99SAPS   H2X 9910   2.000   6.059   6.855 -0.1067 -0.0476 -1.4355
   99SAPS   H2Y 9911   2.136   6.160   6.844 -3.3798  1.3190  2.8657
   99SAPS   C23 9912   1.680   5.548   6.741 -0.8736 -0.0072  0.2192
   99SAPS   H3R 9913   1.715   5.592   6.837 -0.3067 -1.8706  0.9167
   99SAPS   H3S 9914   1.743   5.458   6.721 -0.6025 -0.3633  2.4432
   99SAPS   C24 9915   1.533   5.509   6.762  0.0034 -0.0100  0.1225
   99SAPS   H4R 9916   1.467   5.598   6.756 -0.5980 -0.1765  3.0269
   99SAPS   H4S 9917   1.524   5.473   6.867 -0.6646  1.5303  0.6262
   99SAPS   C25 9918   1.500   5.396   6.669 -0.0037  0.7705  0.1192
   99SAPS   H5R 9919   1.457   5.429   6.574 -3.3851 -2.0658  0.4322
   99SAPS   C26 9920   1.512   5.262   6.689 -0.2982  0.0684 -0.4792
   99SAPS   H6R 9921   1.482   5.192   6.609 -1.9768  0.1649  0.0135
   99SAPS   C27 9922   1.568   5.208   6.820  0.3720 -1.0519 -0.2424
   99SAPS   H7R 9923   1.477   5.188   6.881 -0.5682  2.1058 -0.4173
   99SAPS   H7S 9924   1.626   5.280   6.882  0.8821 -0.8314 -0.9583
   99SAPS   C28 9925   1.657   5.087   6.799  0.3896 -0.9069 -0.2250
   99SAPS   H8R 9926   1.614   5.009   6.733 -0.3961  0.5520 -1.5104
   99SAPS   C29 9927   1.785   5.066   6.843  0.5718 -0.1868 -0.0069
   99SAPS   H9R 9928   1.839   4.972   6.823 -0.3951 -1.0159  1.1282
   99SAPS  C210 9929   1.851   5.168   6.929  0.0613  0.8969  0.3084
   99SAPS  H10R 9930   1.788   5.201   7.014 -0.0534 -0.5394  0.8171
   99SAPS  H10S 9931   1.872   5.259   6.869  1.1019 -0.1219 -0.9505
   99SAPS  C211 9932   1.983   5.110   6.978  0.0301 -0.6216  0.5032
   99SAPS  H11R 9933   2.057   5.114   6.897  1.9396  1.8729  2.1741
   99SAPS  C212 9934   2.016   5.078   7.102 -0.3144  0.6849  0.5244
   99SAPS  H12R 9935   2.113   5.033   7.124 -0.5006  0.3278  0.6233
   99SAPS  C213 9936   1.940   5.089   7.235  0.7807 -1.0356  0.2782
   99SAPS  H13R 9937   1.968   5.015   7.313  0.0870  0.4920  2.0349
   99SAPS  H13S 9938   1.831   5.069   7.223  0.2624  2.2267 -1.3587
   99SAPS  C214 9939   1.942   5.227   7.289  0.2691 -0.3988 -0.2055
   99SAPS  H14R 9940   1.942   5.304   7.210  0.5173  0.3437  0.5065
   99SAPS  C215 9941   1.953   5.261   7.419  0.2596 -0.0430 -0.1429
   99SAPS  H15R 9942   1.936   5.363   7.456 -1.1904 -0.8888  1.6765
   99SAPS  C216 9943   1.957   5.170   7.535 -0.2521  0.1301  0.1168
   99SAPS  H16R 9944   2.016   5.078   7.515 -1.5820 -0.8101  0.3664
   99SAPS  H16S 9945   1.860   5.123   7.565  1.3566 -3.9148 -0.3498
   99SAPS  C217 9946   2.010   5.240   7.667 -0.0998  0.1417  0.3923
   99SAPS  H17R 9947   1.923   5.302   7.698 -0.7800  0.5227 -2.1040
   99SAPS  H17S 9948   2.096   5.310   7.654 -0.6397  0.5585 -1.2056
   99SAPS  C218 9949   2.037   5.138   7.768  0.1281 -0.0911 -0.2969
   99SAPS  H18R 9950   2.128   5.082   7.739  2.0649  3.3880 -1.5820
   99SAPS  H18S 9951   1.958   5.061   7.777  1.6793 -1.7010  0.0247
   99SAPS  C219 9952   2.060   5.223   7.897  0.0514  0.9165  1.0475
   99SAPS  H19R 9953   1.980   5.300   7.894 -0.9484 -0.1431 -0.9961
   99SAPS  H19S 9954   2.154   5.279   7.874  0.4928  0.0964  0.8268
   99SAPS  C220 9955   2.069   5.142   8.023 -0.3270  0.5089  0.0014
   99SAPS  H20R 9956   2.148   5.065   8.004 -0.5624 -0.1728  1.6368
   99SAPS  H20S 9957   1.976   5.083   8.034 -0.5130 -0.4278 -4.4685
   99SAPS  H20T 9958   2.109   5.191   8.114 -0.9026 -1.3600  1.3423
   99SAPS   C33 9959   2.161   5.978   6.978 -0.4577  0.1598 -0.3629
   99SAPS   H3X 9960   2.270   5.999   6.985 -0.8427  2.5751 -0.6994
   99SAPS   H3Y 9961   2.145   5.868   6.980 -1.8223  0.3394  2.4228
   99SAPS   C34 9962   2.085   6.038   7.098  0.0061  0.1804  0.8032
   99SAPS   H4X 9963   1.984   5.992   7.094 -0.0734  0.4526 -1.9667
   99SAPS   H4Y 9964   2.074   6.149   7.090 -1.8722  0.0222  0.5402
   99SAPS   C35 9965   2.136   6.001   7.240 -0.2725  0.2066 -0.0235
   99SAPS   H5X 9966   2.176   5.899   7.219 -3.3227 -0.8019 -1.6497
   99SAPS   H5Y 9967   2.044   5.998   7.303 -0.8343  2.4557 -0.6489
   99SAPS   C36 9968   2.243   6.098   7.301 -0.0101 -0.3159  0.2332
   99SAPS   H6X 9969   2.194   6.195   7.325  3.0053  1.7222 -1.2618
   99SAPS   H6Y 9970   2.314   6.126   7.221 -1.0810  0.3502 -0.5133
   99SAPS   C37 9971   2.304   6.035   7.429  0.2424 -0.2305  0.1238
   99SAPS   H7X 9972   2.369   5.947   7.410  0.6784 -0.1578  1.2116
   99SAPS   H7Y 9973   2.219   6.001   7.493 -0.3597 -1.8482 -1.4424
   99SAPS   C38 9974   2.396   6.133   7.507 -0.7955 -0.1607  0.3251
   99SAPS   H8X 9975   2.343   6.226   7.534  2.5350  1.5867  1.4958
   99SAPS   H8Y 9976   2.489   6.151   7.448 -0.3872  0.0596  1.0272
   99SAPS   C39 9977   2.444   6.077   7.643 -0.3845  0.6319 -0.2746
   99SAPS   H9X 9978   2.522   6.000   7.624  0.3779  1.1636  0.5900
   99SAPS   H9Y 9979   2.357   6.029   7.693 -2.3961  3.1093 -1.1666
   99SAPS  C310 9980   2.510   6.179   7.743  0.2698 -0.5277  0.0593
   99SAPS  H10X 9981   2.432   6.246   7.785 -0.3427 -1.7630  0.9437
   99SAPS  H10Y 9982   2.567   6.244   7.674 -0.0313  0.0316  0.3348
   99SAPS  C311 9983   2.591   6.110   7.857  0.1588  0.5813 -0.2667
   99SAPS  H11X 9984   2.676   6.176   7.885 -0.7670  1.7008 -0.0105
   99SAPS  H11Y 9985   2.627   6.017   7.808  0.8195 -0.3742  1.9490
   99SAPS  C312 9986   2.501   6.081   7.978  0.5890 -0.3109  0.1555
   99SAPS  H12X 9987   2.402   6.037   7.954 -0.0750 -0.3595  2.6696
   99SAPS  H12Y 9988   2.492   6.173   8.040  4.0488 -0.9033  1.8064
   99SAPS  C313 9989   2.569   5.977   8.073  0.3985 -0.2505 -0.5294
   99SAPS  H13X 9990   2.674   6.013   8.080 -0.8828  3.7766  1.0383
   99SAPS  H13Y 9991   2.575   5.877   8.026 -0.2362 -0.5188 -0.0470
   99SAPS  C314 9992   2.510   5.960   8.215 -0.2399 -0.2659 -0.2032
   99SAPS  H14X 9993   2.400   5.943   8.206 -0.3916  0.7657 -0.3731
   99SAPS  H14Y 9994   2.519   6.061   8.260  0.3845  0.3319 -1.6178
   99SAPS  C315 9995   2.575   5.844   8.299 -1.4153  0.0689  0.1064
   99SAPS  H15X 9996   2.672   5.890   8.327 -1.5602  0.5837 -0.2251
   99SAPS  H15Y 9997   2.579   5.752   8.238 -0.1703  0.0130  0.2523
   99SAPS  C316 9998   2.482   5.819   8.417 -0.2332  0.1747  0.0084
   99SAPS  H16X 9999   2.385   5.774   8.386  1.7662 -2.8354 -2.6307
   99SAPS  H16Y10000   2.466   5.913   8.473  1.7195 -0.7849  2.3946
   99SAPS  C31710001   2.556   5.725   8.511 -0.2013  0.2235 -0.1911
   99SAPS  H17X10002   2.662   5.757   8.518  0.1277 -0.9624  0.4784
   99SAPS  H17Y10003   2.553   5.623   8.466  1.2657  1.5757 -3.7668
   99SAPS  C31810004   2.502   5.722   8.653  0.3022 -0.1034  0.4446
   99SAPS  H18X10005   2.391   5.728   8.642  0.3408 -1.7550 -1.5120
   99SAPS  H18Y10006   2.525   5.814   8.711 -1.6679 -0.6584  2.2439
   99SAPS  H18Z10007   2.534   5.628   8.701  3.7052  0.6199 -0.1949
  100SAPS     N10008   5.605   5.890   6.088 -0.4048  0.4460  0.1690
  100SAPS   HN110009   5.547   5.921   6.169  0.3716 -0.6336  1.1709
  100SAPS   HN210010   5.603   5.970   6.022 -1.6442  1.2327  1.1141
  100SAPS   HN310011   5.565   5.807   6.039  1.7502  0.2147 -1.3195
  100SAPS   C1210012   5.740   5.851   6.141 -0.4563 -0.2318  0.1426
  100SAPS  H12A10013   5.721   5.756   6.190 -1.3170 -0.2678 -0.2359
  100SAPS   C1310014   5.849   5.826   6.045 -0.1578  0.0890 -0.6847
  100SAPS  O13A10015   5.848   5.840   5.921  0.4459  0.4149 -0.3088
  100SAPS  O13B10016   5.952   5.782   6.091 -0.2315 -0.2134 -0.3930
  100SAPS   C1110017   5.793   5.961   6.238 -1.7127 -0.0707  0.1627
  100SAPS  H11A10018   5.831   6.044   6.174 -1.0243  1.3082  2.2526
  100SAPS  H11B10019   5.885   5.931   6.294 -2.4032 -0.0652  1.3362
  100SAPS     P10020   5.676   6.151   6.376  0.1165  0.7437  0.0925
  100SAPS   O1310021   5.701   6.243   6.265 -0.4354 -0.5063 -0.0233
  100SAPS   O1410022   5.542   6.153   6.435 -0.3217  1.0818 -0.6460
  100SAPS   O1210023   5.689   6.005   6.326  0.6023  0.5922  0.4317
  100SAPS   O1110024   5.783   6.182   6.487 -0.1078  0.6427  0.3070
  100SAPS    C110025   5.749   6.153   6.621  0.2349 -0.1054 -0.1077
  100SAPS    HA10026   5.703   6.246   6.661  1.4926  0.1978  0.6883
  100SAPS    HB10027   5.669   6.077   6.629 -0.1269  0.3131  0.3320
  100SAPS    C210028   5.869   6.120   6.710  1.0140 -0.2272 -0.2299
  100SAPS    HS10029   5.823   6.129   6.810  1.5108 -0.5872  0.0347
  100SAPS   O2110030   5.964   6.231   6.700 -0.0307 -0.4034  0.2541
  100SAPS   C2110031   6.013   6.271   6.814 -1.3904 -0.0766 -0.1389
  100SAPS   O2210032   5.960   6.241   6.919  0.4345 -0.0045 -1.0570
  100SAPS   C2210033   6.115   6.382   6.798  0.0185 -0.3641  0.2114
  100SAPS   H2R10034   6.168   6.361   6.702  1.8227 -2.4305  1.5674
  100SAPS   H2S10035   6.069   6.482   6.794  0.9602  0.0596 -0.4192
  100SAPS    C310036   5.930   5.988   6.689  0.3794  0.0997  0.3282
  100SAPS    HX10037   5.975   5.992   6.587 -1.3116 -1.1103 -0.5196
  100SAPS    HY10038   5.851   5.912   6.674  0.4295  0.4509 -2.1400
  100SAPS   O3110039   6.016   5.948   6.797  0.4867 -0.0598  0.0045
  100SAPS   C3110040   5.943   5.903   6.909 -0.0123  0.6456  0.7742
  100SAPS   O3210041   5.819   5.892   6.922  0.2005 -0.2907  0.2032
  100SAPS   C3210042   6.036   5.893   7.023  0.0397 -0.1435 -0.0711
  100SAPS   H2X10043   6.050   5.996   7.062  2.7209  0.8071 -3.0683
  100SAPS   H2Y10044   6.140   5.862   6.999  0.6669  1.9863 -0.2731
  100SAPS   C2310045   6.212   6.384   6.917  0.1159  0.3868 -0.2341
  100SAPS   H3R10046   6.160   6.353   7.010  0.8083  0.6433  0.2496
  100SAPS   H3S10047   6.255   6.486   6.928  1.4225 -0.1385 -0.3030
  100SAPS   C2410048   6.332   6.285   6.893  1.0412  0.2271 -1.1103
  100SAPS   H4R10049   6.381   6.320   6.800  0.1492  0.7325 -1.4002
  100SAPS   H4S10050   6.274   6.190   6.886 -3.0834  1.8004  4.4385
  100SAPS   C2510051   6.424   6.288   7.016  0.4259  0.4252 -0.2770
  100SAPS   H5R10052   6.488   6.378   7.015 -1.2446  1.6599 -0.2658
  100SAPS   C2610053   6.425   6.212   7.128 -0.0614 -0.3115  0.2359
  100SAPS   H6R10054   6.501   6.219   7.207  1.1429 -0.8938 -0.8279
  100SAPS   C2710055   6.335   6.087   7.165 -0.4276 -0.3211  0.6401
  100SAPS   H7R10056   6.258   6.062   7.089  0.5812 -1.3105 -0.0868
  100SAPS   H7S10057   6.292   6.108   7.265  0.9000 -0.0527  1.1721
  100SAPS   C2810058   6.405   5.954   7.162  0.3899 -0.0069 -0.8419
  100SAPS   H8R10059   6.386   5.892   7.073  0.0050 -0.2086 -0.6221
  100SAPS   C2910060   6.487   5.908   7.264 -0.7647  0.7390 -0.2636
  100SAPS   H9R10061   6.549   5.820   7.238 -1.1700  0.3291  0.1395
  100SAPS  C21010062   6.514   5.981   7.396  0.0779  0.3147  0.8660
  100SAPS  H10R10063   6.450   6.072   7.400 -0.3443  0.1809 -1.2723
  100SAPS  H10S10064   6.619   6.017   7.389 -0.0934  0.5029 -2.3801
  100SAPS  C21110065   6.491   5.903   7.523 -0.4879  0.4065  0.4206
  100SAPS  H11R10066   6.411   5.828   7.515  0.8872 -0.9722 -1.7771
  100SAPS  C21210067   6.554   5.922   7.645 -0.1825  0.0230 -0.0384
  100SAPS  H12R10068   6.531   5.861   7.733 -4.4783  1.5149  0.1021
  100SAPS  C21310069   6.662   6.017   7.673 -0.5275  0.1895 -0.0094
  100SAPS  H13R10070   6.710   6.058   7.581 -2.0665  0.6531 -0.6347
  100SAPS  H13S10071   6.745   5.959   7.720 -2.4312 -2.1270  0.6774
  100SAPS  C21410072   6.610   6.125   7.762 -1.2041 -0.5944 -0.1977
  100SAPS  H14R10073   6.557   6.206   7.710 -2.0948 -0.9520  0.1424
  100SAPS  C21510074   6.626   6.141   7.894 -0.7305 -0.4312 -0.1895
  100SAPS  H15R10075   6.593   6.236   7.938 -0.2248 -1.0191  1.5544
  100SAPS  C21610076   6.696   6.045   7.990 -0.8374  0.2639  0.2905
  100SAPS  H16R10077   6.806   6.055   7.988 -0.7884 -0.2847 -1.0945
  100SAPS  H16S10078   6.692   5.946   7.938  4.0182  0.9256 -1.8474
  100SAPS  C21710079   6.627   6.040   8.127 -0.1784 -0.9644 -0.7299
  100SAPS  H17R10080   6.659   5.947   8.179  0.3812  0.1231  0.9413
  100SAPS  H17S10081   6.518   6.029   8.107 -0.3802  1.9750 -1.7334
  100SAPS  C21810082   6.647   6.166   8.210  0.2031  0.1959  0.4974
  100SAPS  H18R10083   6.653   6.251   8.139 -2.2255  0.2399  0.2582
  100SAPS  H18S10084   6.744   6.154   8.263  0.0022  1.5270  1.2133
  100SAPS  C21910085   6.528   6.193   8.295 -0.6353 -0.0754  0.0733
  100SAPS  H19R10086   6.527   6.123   8.381  1.4569 -0.8838 -0.4989
  100SAPS  H19S10087   6.435   6.186   8.235 -0.4331 -0.4042 -0.2030
  100SAPS  C22010088   6.553   6.336   8.345  0.1990 -0.1566 -0.1890
  100SAPS  H20R10089   6.656   6.348   8.384 -0.0960 -0.7440  0.8036
  100SAPS  H20S10090   6.476   6.365   8.419 -0.3236  1.1911 -1.2225
  100SAPS  H20T10091   6.543   6.405   8.258  1.4220  1.5433  0.9586
  100SAPS   C3310092   5.990   5.803   7.139  0.2894 -0.1687 -0.1167
  100SAPS   H3X10093   5.880   5.811   7.156  0.1970  1.4539 -1.2503
  100SAPS   H3Y10094   6.025   5.841   7.238 -0.5860 -0.1893  0.2088
  100SAPS   C3410095   6.028   5.655   7.114 -0.1751  0.1872  0.1722
  100SAPS   H4X10096   6.011   5.628   7.008 -0.7447  1.2569 -0.0206
  100SAPS   H4Y10097   5.951   5.595   7.168  0.9612 -0.1430  1.4864
  100SAPS   C3510098   6.166   5.608   7.166  0.6356  0.4202  0.5429
  100SAPS   H5X10099   6.235   5.695   7.156 -0.3723  1.1280 -0.5014
  100SAPS   H5Y10100   6.211   5.536   7.094 -0.4149  0.0385  0.2495
  100SAPS   C3610101   6.181   5.562   7.312 -0.3869 -0.8362  0.4914
  100SAPS   H6X10102   6.286   5.529   7.324 -0.5120 -0.9745  1.2255
  100SAPS   H6Y10103   6.109   5.484   7.343 -1.6239  0.6553  1.5718
  100SAPS   C3710104   6.161   5.685   7.400  0.2036 -0.0237 -0.1520
  100SAPS   H7X10105   6.054   5.714   7.393 -0.5378 -2.3082  0.8537
  100SAPS   H7Y10106   6.214   5.776   7.363 -0.0015 -0.7619 -2.3784
  100SAPS   C3810107   6.186   5.650   7.549  0.1814  0.3182  0.1288
  100SAPS   H8X10108   6.282   5.596   7.557 -1.1790 -1.9873  2.1378
  100SAPS   H8Y10109   6.106   5.577   7.577  0.3080  0.0695 -0.1529
  100SAPS   C3910110   6.170   5.760   7.647 -0.1594  0.0795 -0.5300
  100SAPS   H9X10111   6.091   5.835   7.625 -0.8953 -0.8350 -1.0687
  100SAPS   H9Y10112   6.265   5.816   7.659  0.3802 -1.4308  4.5934
  100SAPS  C31010113   6.152   5.711   7.789 -0.2706  0.0753  0.8925
  100SAPS  H10X10114   6.216   5.624   7.815  1.2533  0.9915  0.2956
  100SAPS  H10Y10115   6.044   5.685   7.795 -0.6679  1.4750  0.1849
  100SAPS  C31110116   6.193   5.817   7.891 -0.6306  0.7531  0.1484
  100SAPS  H11X10117   6.145   5.917   7.880  0.6672  1.4911  0.8709
  100SAPS  H11Y10118   6.300   5.832   7.865 -1.2573 -0.6212 -3.9933
  100SAPS  C31210119   6.172   5.774   8.035  0.8063  0.2436  0.0397
  100SAPS  H12X10120   6.218   5.673   8.037 -1.7943 -1.0272 -0.0790
  100SAPS  H12Y10121   6.063   5.762   8.049  0.3798 -1.0558 -3.4807
  100SAPS  C31310122   6.218   5.882   8.143  0.3990 -0.5048  0.3378
  100SAPS  H13X10123   6.178   5.980   8.110 -1.2141 -1.4476 -0.6414
  100SAPS  H13Y10124   6.327   5.895   8.129 -0.0502  0.0502 -4.0107
  100SAPS  C31410125   6.180   5.856   8.290  0.3200 -0.2332  0.3869
  100SAPS  H14X10126   6.076   5.818   8.287  0.5594 -0.9052  0.4385
  100SAPS  H14Y10127   6.180   5.948   8.353 -0.2452 -0.2846  0.4691
  100SAPS  C31510128   6.271   5.752   8.363 -0.1649 -0.6109  0.0876
  100SAPS  H15X10129   6.352   5.728   8.291 -1.9083 -3.0260 -1.2213
  100SAPS  H15Y10130   6.216   5.656   8.377 -3.0654  0.7345 -1.1676
  100SAPS  C31610131   6.346   5.803   8.484  0.5180  0.1188  0.3794
  100SAPS  H16X10132   6.266   5.826   8.557  1.6804 -0.3838  1.8717
  100SAPS  H16Y10133   6.398   5.897   8.455  1.3879 -0.1943  0.8473
  100SAPS  C31710134   6.459   5.709   8.534  0.3987 -0.3379 -0.6178
  100SAPS  H17X10135   6.415   5.609   8.552  0.8775 -0.4281  0.0698
  100SAPS  H17Y10136   6.495   5.747   8.632 -1.3194  1.0269 -0.4666
  100SAPS  C31810137   6.583   5.686   8.432 -0.4043 -0.1050  0.4385
  100SAPS  H18X10138   6.551   5.699   8.326 -4.6592 -0.7206  1.4491
  100SAPS  H18Y10139   6.617   5.581   8.447 -0.6132 -0.1927  0.3101
  100SAPS  H18Z10140   6.662   5.755   8.468  1.0155 -1.8921  0.9298
  101OSM      N10141   5.010   2.027  11.203 -0.7564  0.3699 -1.1383
  101OSM    C1510142   4.904   2.054  11.312 -0.3972 -1.0768  0.6420
  101OSM   H15A10143   4.882   1.961  11.363  2.5797 -1.8893  0.5981
  101OSM   H15B10144   4.811   2.088  11.268  0.0886  0.1591  0.5506
  101OSM   H15C10145   4.938   2.135  11.374 -1.8379  0.8720 -0.9456
  101OSM    C1410146   5.132   1.974  11.285 -0.7459 -0.3549  0.8363
  101OSM   H14A10147   5.118   1.881  11.339  1.2438 -0.9416  0.3917
  101OSM   H14B10148   5.158   2.053  11.353 -0.1274  0.9862 -0.9071
  101OSM   H14C10149   5.220   1.955  11.226 -1.1525 -0.6332  0.3071
  101OSM    C1310150   4.966   1.919  11.119  0.4390  0.1605 -0.4226
  101OSM   H13A10151   4.971   1.833  11.184  0.7937  1.6903  1.6731
  101OSM   H13B10152   5.034   1.904  11.036  0.0359 -0.9807 -0.5592
  101OSM   H13C10153   4.860   1.929  11.101 -0.2701 -0.8420  2.6877
  101OSM    C1210154   5.054   2.152  11.126 -1.4960 -0.9029 -0.7950
  101OSM   H12A10155   5.080   2.223  11.203  0.7705 -2.3996 -0.0870
  101OSM   H12B10156   4.962   2.187  11.081  0.4943  2.2515 -2.6932
  101OSM    C1110157   5.168   2.158  11.026 -0.3222 -0.0686 -0.0110
  101OSM   H11A10158   5.254   2.132  11.091 -2.4656 -0.7207  2.7236
  101OSM   H11B10159   5.175   2.263  10.991 -0.2006 -0.2659 -0.5967
  101OSM      P10160   5.049   2.109  10.805  0.3355 -0.6819 -0.4766
  101OSM    O1310161   5.037   2.000  10.701  0.4721 -0.4721  0.0723
  101OSM    O1410162   4.922   2.158  10.874  0.2348 -0.2362  0.0820
  101OSM    O1110163   5.111   2.237  10.727 -0.0225 -0.0556  0.2607
  101OSM    O1210164   5.155   2.067  10.918  0.4083  0.1262 -0.3265
  101OSM    C1S10165   5.253   2.245  10.694  0.5876  0.0565  0.5963
  101OSM    H1S10166   5.318   2.195  10.770 -0.5176  0.9058  2.1578
  101OSM    H1T10167   5.284   2.352  10.704  0.6805 -0.1592  3.4299
  101OSM     NF10168   5.427   2.188  10.530  0.0934 -0.2381  0.2428
  101OSM    HNF10169   5.469   2.256  10.471  3.4608 -1.5330  0.9143
  101OSM    C2S10170   5.284   2.183  10.555 -0.7020 -0.7532  0.4789
  101OSM    H2S10171   5.262   2.075  10.569  2.2012 -1.1684  2.8484
  101OSM    C3S10172   5.200   2.252  10.438 -0.0172 -0.3232  0.6433
  101OSM    H3S10173   5.244   2.354  10.432 -0.8387 -0.0085 -0.6023
  101OSM     O310174   5.062   2.280  10.472 -0.1770  0.0955 -0.1590
  101OSM    HO310175   5.056   2.248  10.563 -0.3627  3.0508  0.9795
  101OSM    C4S10176   5.218   2.174  10.309 -0.9094  0.7794  0.3556
  101OSM    H4S10177   5.274   2.220  10.226 -0.7299 -0.0764 -0.0063
  101OSM    C5S10178   5.158   2.063  10.279 -0.1733  0.8390  0.2656
  101OSM    H5S10179   5.093   2.005  10.347  0.9883  0.3405  0.9835
  101OSM    C6S10180   5.184   2.010  10.143  0.8208 -0.2880  0.1459
  101OSM    H6S10181   5.237   1.913  10.158 -2.0675 -2.0666 -0.3585
  101OSM    H6T10182   5.251   2.075  10.083  3.4173 -2.4390  0.5048
  101OSM    C7S10183   5.041   1.986  10.089  0.0508 -0.0483 -0.0470
  101OSM    H7S10184   4.998   2.083  10.056 -0.2064  0.8031  2.6036
  101OSM    H7T10185   4.971   1.950  10.167  0.8154 -0.1991  0.5726
  101OSM    C8S10186   5.033   1.890   9.964  0.3519 -0.6034 -0.3948
  101OSM    H8S10187   5.083   1.794   9.989 -1.5645 -1.4800  0.3049
  101OSM    H8T10188   5.097   1.939   9.887 -0.1021 -0.4335 -0.6658
  101OSM    C9S10189   4.899   1.865   9.901 -0.2224 -0.2785 -0.1226
  101OSM    H9S10190   4.854   1.963   9.874  1.3972 -0.0375 -2.2380
  101OSM    H9T10191   4.837   1.824   9.984  1.1682  0.1355  1.1732
  101OSM   C10S10192   4.910   1.764   9.784  0.3478 -0.6507  1.3373
  101OSM   H10S10193   4.818   1.705   9.766 -0.2412  0.7811 -0.7464
  101OSM   H10T10194   4.989   1.689   9.807  0.9904 -0.3982  0.0404
  101OSM   C11S10195   4.955   1.835   9.651  0.3130  0.2749 -0.7643
  101OSM   H11S10196   5.066   1.836   9.642  0.4606  0.7854  0.8236
  101OSM   H11T10197   4.932   1.944   9.655 -1.9048 -0.1763  2.0858
  101OSM   C12S10198   4.887   1.773   9.528  0.1625  0.1140 -0.3057
  101OSM   H12S10199   4.778   1.780   9.552  0.2880 -1.4119  0.8379
  101OSM   H12T10200   4.896   1.662   9.532 -1.4452 -0.1141 -1.6853
  101OSM   C13S10201   4.930   1.851   9.408  0.2892  0.1932  0.3017
  101OSM   H13S10202   5.029   1.826   9.366 -0.2193 -0.7735 -0.3591
  101OSM   H13T10203   4.938   1.960   9.430 -4.9207  0.4745  2.2701
  101OSM   C14S10204   4.822   1.852   9.293  0.2931  0.3103  0.2790
  101OSM   H14S10205   4.864   1.906   9.206  1.3381  0.0376  0.6026
  101OSM   H14T10206   4.726   1.901   9.321 -0.4945 -1.8020  1.5958
  101OSM   C15S10207   4.779   1.708   9.248 -0.4389  0.2036  0.5815
  101OSM   H15S10208   4.728   1.650   9.327 -2.3655  1.7986  0.5952
  101OSM   H15T10209   4.874   1.657   9.223 -1.3151 -1.7314  1.0215
  101OSM   C16S10210   4.681   1.716   9.130 -0.7618  0.8599  0.2001
  101OSM   H16S10211   4.577   1.729   9.166 -0.7623 -2.9026  2.1006
  101OSM   H16T10212   4.676   1.614   9.086  2.0274  0.9115 -0.4004
  101OSM   C17S10213   4.715   1.814   9.007 -0.0826 -0.1716 -0.1282
  101OSM   H17S10214   4.822   1.791   8.987 -0.4476 -0.3972 -1.9594
  101OSM   H17T10215   4.721   1.917   9.050  1.6620  0.6918 -2.2009
  101OSM   C18S10216   4.618   1.810   8.891 -0.4286 -0.0212  0.2061
  101OSM   H18S10217   4.523   1.865   8.907 -0.8878 -0.7221 -0.0528
  101OSM   H18T10218   4.609   1.706   8.852 -0.4032  0.4170 -0.9932
  101OSM   H18U10219   4.658   1.859   8.800 -1.1809 -2.5250 -1.5819
  101OSM    C1F10220   5.518   2.115  10.601  0.0929 -0.3752 -0.2029
  101OSM     OF10221   5.478   2.026  10.672 -0.1824 -0.3582 -0.3353
  101OSM    C2F10222   5.660   2.133  10.576 -0.6470  0.1197  0.0683
  101OSM    H2F10223   5.713   2.122  10.673  0.1812 -3.0956 -0.6303
  101OSM    H2G10224   5.679   2.237  10.542 -0.2923 -0.0705 -0.3370
  101OSM    C3F10225   5.724   2.030  10.482 -0.3915 -0.4794  0.4447
  101OSM    H3F10226   5.715   1.931  10.532 -1.6534  0.2954  1.8363
  101OSM    H3G10227   5.834   2.042  10.473 -0.5920  0.5265 -1.1397
  101OSM    C4F10228   5.671   2.023  10.341  0.8658  0.7949 -0.0052
  101OSM    H4F10229   5.722   2.096  10.274  0.6877  0.1276 -0.8829
  101OSM    H4G10230   5.563   2.048  10.334  1.1351  1.6803 -1.3276
  101OSM    C5F10231   5.689   1.892  10.269 -0.0981 -0.2268 -0.2621
  101OSM    H5F10232   5.637   1.805  10.316 -1.7783  0.4846 -0.7152
  101OSM    H5G10233   5.799   1.879  10.267 -0.0854 -0.0615 -0.7686
  101OSM    C6F10234   5.649   1.895  10.121  0.4962 -0.4467  0.5525
  101OSM    H6F10235   5.692   1.802  10.077  0.9797 -0.3298  0.7671
  101OSM    H6G10236   5.710   1.972  10.070  3.3282 -2.7590  0.1273
  101OSM    C7F10237   5.504   1.905  10.077 -0.0943 -0.5642 -0.3219
  101OSM    H7F10238   5.451   1.994  10.115  1.3626 -0.5057  1.7492
  101OSM    H7G10239   5.452   1.817  10.122 -1.4127 -0.3870 -1.4382
  101OSM    C8F10240   5.483   1.895   9.928  0.0820 -0.3814  0.0813
  101OSM    H8F10241   5.373   1.888   9.915  0.1093  1.6767 -1.7157
  101OSM    H8G10242   5.528   1.799   9.895  0.9413 -0.7618  2.2261
  101OSM    C9F10243   5.523   2.012   9.848 -0.7473  0.0323  0.1462
  101OSM    H9F10244   5.623   2.050   9.873 -0.3617 -1.2588  0.6512
  101OSM   C10F10245   5.450   2.083   9.752  0.0321  0.8428 -0.1609
  101OSM   H10F10246   5.493   2.180   9.724 -0.7980  1.4019  0.4691
  101OSM   C11F10247   5.315   2.042   9.692 -0.5549 -0.1434  0.4871
  101OSM   H11F10248   5.235   2.094   9.748 -0.3555  0.3333  0.3267
  101OSM   H11G10249   5.299   1.933   9.713 -0.8679 -0.4169 -1.0466
  101OSM   C12F10250   5.287   2.069   9.539  0.6778  0.4844 -0.8042
  101OSM   H12F10251   5.191   2.019   9.516  1.3982 -0.7651 -1.2027
  101OSM   H12G10252   5.359   2.010   9.479 -0.2219 -0.6872 -0.7753
  101OSM   C13F10253   5.275   2.220   9.502  0.0315  0.5567 -0.0526
  101OSM   H13F10254   5.361   2.280   9.538  0.6807  0.4014 -1.2841
  101OSM   H13G10255   5.185   2.253   9.558 -0.2839 -2.0500  1.1225
  101OSM   C14F10256   5.253   2.229   9.350 -0.3927  0.0323 -0.3817
  101OSM   H14F10257   5.150   2.190   9.330 -1.7226  1.3886  3.0675
  101OSM   H14G10258   5.324   2.158   9.301 -1.1170 -1.6980  0.9389
  101OSM   C15F10259   5.250   2.360   9.288  0.1551  0.2861 -0.6096
  101OSM   H15F10260   5.352   2.395   9.260  0.4733 -0.1931 -0.0773
  101OSM   H15G10261   5.207   2.441   9.350  0.5544  0.6097 -0.7481
  101OSM   C16F10262   5.162   2.363   9.164 -0.4246  0.2814  0.1128
  101OSM   H16F10263   5.066   2.328   9.207  0.6691 -1.7195  1.0786
  101OSM   H16G10264   5.188   2.276   9.100 -0.4475  0.4885 -0.1817
  101OSM   C17F10265   5.175   2.495   9.083 -0.3438  0.3239  0.6222
  101OSM   H17F10266   5.284   2.519   9.083 -0.3488  0.4826 -1.1712
  101OSM   H17G10267   5.140   2.581   9.145  0.5573  0.6788  0.6585
  101OSM   C18F10268   5.099   2.491   8.945 -0.3106  0.1468  0.2027
  101OSM   H18F10269   5.123   2.391   8.903 -0.0252  0.1610  0.3251
  101OSM   H18G10270   5.162   2.565   8.891  0.3670 -0.1699  0.5447
  101OSM   H18H10271   4.991   2.513   8.936 -0.7355 -1.0930  1.8086
  102OSM      N10272   4.060   3.017  10.920 -1.0632  0.3781 -0.0137
  102OSM    C1510273   3.945   2.947  10.973 -0.3962 -0.9223 -0.0953
  102OSM   H15A10274   3.859   3.000  10.937  0.9775 -0.5725 -3.1569
  102OSM   H15B10275   3.950   2.940  11.081  1.2277 -0.0806 -0.0768
  102OSM   H15C10276   3.948   2.847  10.934 -2.2326 -0.7645 -0.6872
  102OSM    C1410277   4.094   3.140  10.996 -0.0567 -0.2883  0.4046
  102OSM   H14A10278   4.186   3.188  10.966  0.8469 -2.1113  0.0616
  102OSM   H14B10279   4.110   3.118  11.100  0.1656 -2.6631 -0.0701
  102OSM   H14C10280   4.008   3.205  10.990  0.8791  0.8597 -2.1342
  102OSM    C1310281   4.182   2.925  10.917  1.2425 -0.2757  0.1397
  102OSM   H13A10282   4.191   2.882  11.016 -1.3299 -1.2150  0.0380
  102OSM   H13B10283   4.268   2.988  10.903  2.1970 -0.9595  2.4174
  102OSM   H13C10284   4.158   2.846  10.848 -2.4419 -0.3356  1.2735
  102OSM    C1210285   4.038   3.058  10.774  0.2017 -0.4285  0.5914
  102OSM   H12A10286   3.940   3.103  10.778  0.0028 -0.7318 -0.5167
  102OSM   H12B10287   4.029   2.969  10.713 -1.4064  0.6215 -0.8012
  102OSM    C1110288   4.121   3.162  10.699 -0.1601 -0.2345 -0.4865
  102OSM   H11A10289   4.098   3.251  10.761 -1.5189  0.4863 -1.9688
  102OSM   H11B10290   4.066   3.166  10.603 -0.4829 -0.8610 -0.3353
  102OSM      P10291   4.358   3.254  10.689 -0.6330  0.2816  0.3517
  102OSM    O1310292   4.295   3.376  10.748  0.8356 -0.3423  0.6861
  102OSM    O1410293   4.477   3.207  10.766  0.7844 -0.0228 -0.0069
  102OSM    O1110294   4.397   3.290  10.542  0.3516 -0.5368 -0.2285
  102OSM    O1210295   4.259   3.134  10.684  0.3518  0.1606  0.3320
  102OSM    C1S10296   4.365   3.206  10.431  0.1522  0.1435 -0.1045
  102OSM    H1S10297   4.263   3.161  10.434  0.6539 -1.1827 -1.4446
  102OSM    H1T10298   4.441   3.125  10.423 -0.8664 -0.7439 -1.2884
  102OSM     NF10299   4.320   3.231  10.184  0.0623 -0.5944  0.2964
  102OSM    HNF10300   4.398   3.190  10.136 -1.0984 -2.7675  0.1723
  102OSM    C2S10301   4.364   3.298  10.308  0.1862  0.1812  0.0643
  102OSM    H2S10302   4.300   3.386  10.329  1.2055  1.0138 -0.2752
  102OSM    C3S10303   4.502   3.364  10.288  0.1978  0.3342  0.7069
  102OSM    H3S10304   4.577   3.285  10.264  1.3191  1.0897  1.6133
  102OSM     O310305   4.548   3.433  10.404 -0.3365 -0.2150  0.0675
  102OSM    HO310306   4.497   3.390  10.472 -1.4070 -1.2809 -1.3547
  102OSM    C4S10307   4.491   3.465  10.173 -0.1293 -0.2574 -0.1155
  102OSM    H4S10308   4.427   3.550  10.201 -0.3371 -0.6549  0.6364
  102OSM    C5S10309   4.543   3.462  10.051 -0.2891 -0.0965  0.0850
  102OSM    H5S10310   4.607   3.376  10.025 -0.3400 -0.7827  2.1102
  102OSM    C6S10311   4.530   3.568   9.950  0.0836  0.3947  0.3299
  102OSM    H6S10312   4.592   3.541   9.861 -2.0181 -0.8891 -0.8427
  102OSM    H6T10313   4.560   3.669   9.986 -1.5004  1.1804 -0.4245
  102OSM    C7S10314   4.384   3.578   9.887 -0.5184 -0.9549 -0.2910
  102OSM    H7S10315   4.381   3.669   9.824  0.4001 -1.0397 -0.4651
  102OSM    H7T10316   4.317   3.578   9.976  1.3167  0.9544  1.1964
  102OSM    C8S10317   4.356   3.452   9.801 -0.2515 -0.4174 -0.4840
  102OSM    H8S10318   4.404   3.369   9.858 -0.9705 -1.7510 -1.7757
  102OSM    H8T10319   4.394   3.461   9.697 -2.5019  1.6448 -1.2109
  102OSM    C9S10320   4.205   3.422   9.792  0.1421  0.0773  0.1499
  102OSM    H9S10321   4.151   3.516   9.771  0.1448 -0.0558 -0.4862
  102OSM    H9T10322   4.173   3.373   9.887 -0.2979 -1.4209 -0.7227
  102OSM   C10S10323   4.171   3.324   9.675 -0.6803 -0.0557  0.8792
  102OSM   H10S10324   4.203   3.221   9.700  1.3165  0.2596 -0.1917
  102OSM   H10T10325   4.238   3.360   9.594  0.2518  0.1711  1.7304
  102OSM   C11S10326   4.030   3.333   9.627 -0.5212  0.3522  0.1322
  102OSM   H11S10327   4.028   3.274   9.533  2.3156  0.5837 -0.1665
  102OSM   H11T10328   4.008   3.439   9.602 -0.8946  0.6388  1.5830
  102OSM   C12S10329   3.932   3.280   9.722  0.7307 -0.1696 -0.2564
  102OSM   H12S10330   3.941   3.330   9.821 -1.2342  0.9449 -0.5838
  102OSM   H12T10331   3.941   3.171   9.738 -0.8119 -0.3037 -0.1037
  102OSM   C13S10332   3.786   3.312   9.687 -0.1448  0.5854 -0.3930
  102OSM   H13S10333   3.737   3.226   9.636 -1.2456  1.0339 -0.1299
  102OSM   H13T10334   3.782   3.402   9.622 -0.5172 -0.8982 -2.5353
  102OSM   C14S10335   3.705   3.352   9.806 -0.1616 -0.6137 -0.1785
  102OSM   H14S10336   3.599   3.348   9.775 -0.6683  0.2626  1.3043
  102OSM   H14T10337   3.732   3.458   9.826  0.5105 -1.0155  1.2167
  102OSM   C15S10338   3.689   3.271   9.937  0.1457 -0.1503  0.1639
  102OSM   H15S10339   3.784   3.288   9.991 -0.2624 -0.1324  0.8908
  102OSM   H15T10340   3.686   3.163   9.913  1.4511 -0.8129  2.6414
  102OSM   C16S10341   3.569   3.324  10.026 -0.2262  0.3541  0.2485
  102OSM   H16S10342   3.491   3.371   9.962  2.2654 -0.5729 -3.8332
  102OSM   H16T10343   3.618   3.409  10.078  1.2371  0.8148 -1.7602
  102OSM   C17S10344   3.503   3.221  10.110  0.4769  0.1594 -0.2338
  102OSM   H17S10345   3.460   3.146  10.040 -0.6022 -1.0127  1.5958
  102OSM   H17T10346   3.424   3.260  10.178  0.8098  0.8753 -0.2548
  102OSM   C18S10347   3.592   3.129  10.196  0.7545  0.0618  0.1844
  102OSM   H18S10348   3.683   3.102  10.139  0.5030  0.1806 -0.2799
  102OSM   H18T10349   3.532   3.041  10.228 -1.6685  1.5642  0.0135
  102OSM   H18U10350   3.628   3.180  10.287 -1.9490 -0.9273  1.9267
  102OSM    C1F10351   4.198   3.205  10.148  0.1164 -0.0423  0.1633
  102OSM     OF10352   4.107   3.252  10.211 -0.5397 -0.4380  0.1517
  102OSM    C2F10353   4.189   3.113  10.027  0.5488  0.0600  0.6692
  102OSM    H2F10354   4.270   3.037  10.030  0.1330 -0.4592 -0.5986
  102OSM    H2G10355   4.208   3.161   9.929 -0.9969 -1.6969 -0.5607
  102OSM    C3F10356   4.056   3.031  10.010  0.1389  0.3653 -0.8673
  102OSM    H3F10357   3.979   3.107   9.984  0.3820  1.0137  0.2247
  102OSM    H3G10358   4.028   3.001  10.113  1.9338  0.2957 -0.3621
  102OSM    C4F10359   4.055   2.911   9.914  0.5677 -0.0675 -0.6130
  102OSM    H4F10360   4.103   2.834   9.979  0.7721  1.1259  0.6825
  102OSM    H4G10361   4.130   2.942   9.838  1.8003  2.5635  1.5334
  102OSM    C5F10362   3.929   2.873   9.840  0.4457  0.0422 -0.4257
  102OSM    H5F10363   3.881   2.973   9.830  0.6008  0.3251  1.4210
  102OSM    H5G10364   3.855   2.810   9.892 -0.2683  0.5720 -0.7811
  102OSM    C6F10365   3.944   2.821   9.698  0.2794  0.1066 -1.7302
  102OSM    H6F10366   3.844   2.791   9.661  0.8466 -1.4299 -2.0914
  102OSM    H6G10367   4.019   2.738   9.697  0.7420  0.4346  0.2772
  102OSM    C7F10368   3.995   2.933   9.602 -0.1740 -0.0051  0.0557
  102OSM    H7F10369   4.060   2.999   9.664 -0.3936  1.3967 -1.1631
  102OSM    H7G10370   3.911   2.987   9.554  0.8790  1.8646  0.2250
  102OSM    C8F10371   4.081   2.885   9.482 -0.3509 -0.3543 -0.2894
  102OSM    H8F10372   4.044   2.794   9.429 -1.7543  0.8465 -1.4484
  102OSM    H8G10373   4.172   2.844   9.530 -0.0876 -1.9806 -2.0334
  102OSM    C9F10374   4.131   2.976   9.367 -0.3006  0.5353  0.2615
  102OSM    H9F10375   4.100   3.081   9.373  0.3423  0.8921 -1.8152
  102OSM   C10F10376   4.211   2.945   9.267 -0.4259  0.0410  0.3980
  102OSM   H10F10377   4.222   3.016   9.185  0.3787 -1.4968 -0.8808
  102OSM   C11F10378   4.257   2.807   9.238  0.1853 -0.0355 -0.9004
  102OSM   H11F10379   4.243   2.748   9.331 -1.6748  2.0119  0.2103
  102OSM   H11G10380   4.365   2.798   9.211  0.7074  0.9325  0.7144
  102OSM   C12F10381   4.162   2.744   9.131 -0.5166  0.2771 -0.4804
  102OSM   H12F10382   4.055   2.751   9.159 -0.2824  2.1984  0.1144
  102OSM   H12G10383   4.183   2.635   9.135 -1.5208  0.1139  1.4368
  102OSM   C13F10384   4.186   2.790   8.980 -0.5449 -0.7760 -0.2587
  102OSM   H13F10385   4.274   2.735   8.941  1.2529  1.4942  0.3963
  102OSM   H13G10386   4.209   2.899   8.972  0.4870 -0.9648 -0.0061
  102OSM   C14F10387   4.072   2.755   8.883  0.1719 -0.5522  0.0220
  102OSM   H14F10388   4.070   2.644   8.884 -2.1687 -0.5477  0.5992
  102OSM   H14G10389   4.101   2.777   8.778 -2.1172 -1.7629 -0.9480
  102OSM   C15F10390   3.942   2.836   8.903 -0.2559  0.4890 -0.3119
  102OSM   H15F10391   3.959   2.938   8.863  1.7202  0.5610  0.6121
  102OSM   H15G10392   3.938   2.847   9.013  1.6861  0.1435 -0.1767
  102OSM   C16F10393   3.824   2.773   8.841  0.2263  0.1990  0.5114
  102OSM   H16F10394   3.731   2.830   8.864 -1.1077 -0.3657 -2.8613
  102OSM   H16G10395   3.814   2.677   8.896  1.5758 -0.2449  0.0272
  102OSM   C17F10396   3.833   2.753   8.690 -0.4305  0.2733 -0.2396
  102OSM   H17F10397   3.920   2.687   8.670 -0.5399  0.4378 -1.3190
  102OSM   H17G10398   3.858   2.854   8.650  0.6420  0.1402  0.0602
  102OSM   C18F10399   3.702   2.692   8.626 -0.2982  0.0740 -0.4774
  102OSM   H18F10400   3.611   2.737   8.670  0.5220  0.4361  0.8878
  102OSM   H18G10401   3.693   2.581   8.624  1.4235 -0.0891 -1.7939
  102OSM   H18H10402   3.704   2.711   8.516 -1.6971 -2.4839 -1.0190
  103OSM      N10403   5.189   4.323  11.164  0.1510  0.0852 -0.3759
  103OSM    C1510404   5.113   4.299  11.288  0.1379  0.3810  0.2952
  103OSM   H15A10405   5.030   4.231  11.275 -0.3398  0.6946  1.5670
  103OSM   H15B10406   5.094   4.387  11.347  0.8979  1.0202 -0.3949
  103OSM   H15C10407   5.179   4.240  11.350 -1.0183  0.3080  1.4923
  103OSM    C1410408   5.313   4.405  11.180  0.3829 -0.0779  0.5256
  103OSM   H14A10409   5.378   4.352  11.249  0.1393 -1.4631 -0.2688
  103OSM   H14B10410   5.287   4.504  11.213 -0.1386  0.0183 -0.1566
  103OSM   H14C10411   5.358   4.427  11.085  1.5355 -1.3854  0.7436
  103OSM    C1310412   5.243   4.192  11.123  0.0632  0.5028 -0.0034
  103OSM   H13A10413   5.163   4.119  11.111 -0.0137  0.2867  1.6208
  103OSM   H13B10414   5.318   4.157  11.192 -0.9818  1.5470  1.7281
  103OSM   H13C10415   5.295   4.214  11.031  0.8038  0.5935  0.4399
  103OSM    C1210416   5.104   4.392  11.063  0.4811 -0.8895 -0.0570
  103OSM   H12A10417   5.019   4.327  11.045  0.5406 -1.4236  1.4663
  103OSM   H12B10418   5.148   4.395  10.965 -0.3280  0.4129 -0.4126
  103OSM    C1110419   5.052   4.536  11.084 -0.3504 -0.3109  0.2161
  103OSM   H11A10420   5.010   4.539  11.187  0.7706  0.4607  0.6634
  103OSM   H11B10421   4.961   4.559  11.025 -1.5471 -1.1956  1.6593
  103OSM      P10422   5.219   4.654  10.919 -0.2104  0.1244  0.4439
  103OSM    O1310423   5.131   4.756  10.853 -0.1063  0.1603  0.4962
  103OSM    O1410424   5.366   4.678  10.930  0.2505  0.1659  0.4747
  103OSM    O1110425   5.200   4.518  10.839 -0.0987 -0.0191  0.1175
  103OSM    O1210426   5.161   4.627  11.064 -0.5496  0.1750 -0.0889
  103OSM    C1S10427   5.167   4.514  10.703  0.1414 -0.2265 -0.1327
  103OSM    H1S10428   5.138   4.614  10.666 -2.9300 -1.0249 -0.1932
  103OSM    H1T10429   5.086   4.443  10.675  2.6227 -2.8077 -1.3656
  103OSM     NF10430   5.268   4.491  10.482  0.5730  0.1350  0.1948
  103OSM    HNF10431   5.231   4.428  10.414  2.5538  0.7253 -1.5112
  103OSM    C2S10432   5.285   4.459  10.626 -0.1076 -0.2954 -0.2539
  103OSM    H2S10433   5.378   4.513  10.653 -1.3452  2.1785 -0.5821
  103OSM    C3S10434   5.294   4.308  10.658  0.0665  0.1840 -0.2522
  103OSM    H3S10435   5.198   4.267  10.621 -0.3980  0.2050  0.8897
  103OSM     O310436   5.316   4.259  10.792  0.0398 -0.5220  0.1649
  103OSM    HO310437   5.298   4.337  10.845 -1.1662 -0.5247 -0.2033
  103OSM    C4S10438   5.409   4.258  10.577 -0.0603  0.6067 -0.1501
  103OSM    H4S10439   5.496   4.323  10.595 -0.1576  1.3383 -2.1312
  103OSM    C5S10440   5.429   4.156  10.487 -0.9572 -0.1823 -0.7984
  103OSM    H5S10441   5.348   4.082  10.473  0.5869 -1.7601 -1.7701
  103OSM    C6S10442   5.571   4.143  10.433  0.6217 -0.1063  0.0731
  103OSM    H6S10443   5.579   4.039  10.396 -0.1211  0.9135 -3.4083
  103OSM    H6T10444   5.647   4.165  10.511  0.3096  0.9796  0.0986
  103OSM    C7S10445   5.599   4.236  10.313  0.0880  0.2177  0.2521
  103OSM    H7S10446   5.698   4.208  10.269 -0.2284 -0.2904 -0.1525
  103OSM    H7T10447   5.601   4.341  10.349 -2.9816  1.3718 -2.4255
  103OSM    C8S10448   5.485   4.238  10.208 -1.0285  0.0788 -0.0707
  103OSM    H8S10449   5.384   4.260  10.248 -0.4964  1.0518  0.8236
  103OSM    H8T10450   5.487   4.134  10.171 -1.9876 -0.0654  0.2739
  103OSM    C9S10451   5.535   4.320  10.092 -0.1783 -0.7221  0.6672
  103OSM    H9S10452   5.646   4.320  10.091 -0.1682  0.0629 -0.6797
  103OSM    H9T10453   5.495   4.423  10.091  0.1119 -0.5915  1.9046
  103OSM   C10S10454   5.485   4.257   9.962 -0.5023  0.5022  0.1874
  103OSM   H10S10455   5.377   4.281   9.952 -0.3861  1.0236  0.1554
  103OSM   H10T10456   5.491   4.147   9.970  3.5211  0.4950 -0.7740
  103OSM   C11S10457   5.553   4.304   9.836  0.6694  1.2207  0.2811
  103OSM   H11S10458   5.659   4.270   9.840  0.3348 -0.6026 -3.0429
  103OSM   H11T10459   5.544   4.415   9.837 -1.0008  1.1623 -1.6109
  103OSM   C12S10460   5.484   4.252   9.711 -0.1928 -0.6988  0.9939
  103OSM   H12S10461   5.376   4.273   9.721 -0.4477 -2.0105  1.1960
  103OSM   H12T10462   5.497   4.142   9.708 -2.3151 -0.9691 -0.2986
  103OSM   C13S10463   5.527   4.313   9.580 -1.2951 -0.5827  0.4113
  103OSM   H13S10464   5.637   4.297   9.568 -1.0267  0.1337  1.6306
  103OSM   H13T10465   5.512   4.423   9.583  1.2929 -0.1594  2.3403
  103OSM   C14S10466   5.452   4.255   9.463  0.0687 -0.2823 -0.7420
  103OSM   H14S10467   5.343   4.267   9.480 -0.2121 -1.8021 -1.2592
  103OSM   H14T10468   5.469   4.146   9.449 -0.0819 -0.2978 -0.8037
  103OSM   C15S10469   5.497   4.313   9.332 -0.2079  0.1084 -0.6791
  103OSM   H15S10470   5.604   4.288   9.314 -0.2138 -1.2591  0.9193
  103OSM   H15T10471   5.484   4.423   9.324 -0.6346  0.0185 -1.3311
  103OSM   C16S10472   5.413   4.258   9.209 -0.1491  0.0859  0.1136
  103OSM   H16S10473   5.312   4.304   9.213  0.2625  1.2499 -1.7661
  103OSM   H16T10474   5.410   4.150   9.235  2.3721 -0.2739 -0.8059
  103OSM   C17S10475   5.489   4.284   9.079  0.3793  0.7597 -0.0043
  103OSM   H17S10476   5.594   4.249   9.092  0.5758  1.7762  1.3963
  103OSM   H17T10477   5.487   4.393   9.059  2.4314  0.2641 -3.7831
  103OSM   C18S10478   5.422   4.219   8.957  0.0948  0.4243  0.5073
  103OSM   H18S10479   5.486   4.217   8.866 -4.1619  0.2376 -2.8125
  103OSM   H18T10480   5.324   4.269   8.940  0.0208 -0.5533 -2.6657
  103OSM   H18U10481   5.412   4.109   8.966 -1.0465 -0.0903 -4.2882
  103OSM    C1F10482   5.331   4.598  10.433  0.2254  0.3729  0.0118
  103OSM     OF10483   5.361   4.696  10.504  0.0266  0.1635 -1.1461
  103OSM    C2F10484   5.364   4.595  10.287  0.2769  0.1457  0.4396
  103OSM    H2F10485   5.309   4.510  10.243 -0.8248 -0.0001  1.9983
  103OSM    H2G10486   5.473   4.582  10.270  0.1629  2.0038 -2.4010
  103OSM    C3F10487   5.318   4.732  10.215 -0.2543  0.5648 -0.6334
  103OSM    H3F10488   5.388   4.812  10.247 -0.4519  0.0489  1.2278
  103OSM    H3G10489   5.219   4.758  10.260  0.5427  0.3893  1.3058
  103OSM    C4F10490   5.327   4.735  10.060  0.1145 -0.3235  0.0709
  103OSM    H4F10491   5.277   4.640  10.031 -2.5991  1.4299 -1.4663
  103OSM    H4G10492   5.429   4.740  10.016 -0.1105 -2.3202 -0.7743
  103OSM    C5F10493   5.240   4.843   9.995 -0.2328  0.8763 -0.0814
  103OSM    H5F10494   5.294   4.940   9.983  1.1634  0.1715  0.2487
  103OSM    H5G10495   5.162   4.861  10.071 -0.0833 -2.7502  1.1109
  103OSM    C6F10496   5.196   4.787   9.857 -0.9386  0.0837 -0.1613
  103OSM    H6F10497   5.145   4.876   9.813  0.4143  2.4234  2.6129
  103OSM    H6G10498   5.132   4.697   9.870 -0.5231  0.0406  1.9785
  103OSM    C7F10499   5.320   4.763   9.771  0.3948 -0.1247  0.2063
  103OSM    H7F10500   5.356   4.659   9.788 -0.6941 -1.0139 -2.3377
  103OSM    H7G10501   5.396   4.836   9.804 -0.3742  3.1329 -4.2266
  103OSM    C8F10502   5.308   4.762   9.618  0.9899 -0.0093  0.2175
  103OSM    H8F10503   5.276   4.665   9.575  0.4275  0.7403 -1.1181
  103OSM    H8G10504   5.409   4.792   9.581  0.5713  0.0322 -0.9409
  103OSM    C9F10505   5.227   4.863   9.544  0.4414  0.0080 -0.5352
  103OSM    H9F10506   5.214   4.959   9.596  0.2857  0.3588 -1.2107
  103OSM   C10F10507   5.174   4.863   9.419  0.0833 -0.5186 -0.2535
  103OSM   H10F10508   5.108   4.947   9.393  1.1495  0.6820  0.7596
  103OSM   C11F10509   5.182   4.753   9.317  0.2141 -0.4714  0.1764
  103OSM   H11F10510   5.082   4.705   9.307  0.1238 -0.5958  1.4711
  103OSM   H11G10511   5.253   4.677   9.356  1.7164  0.6302 -0.3300
  103OSM   C12F10512   5.225   4.803   9.183  0.1886  0.9157  0.3459
  103OSM   H12F10513   5.315   4.865   9.201  0.9544 -0.4075  1.2717
  103OSM   H12G10514   5.146   4.866   9.138  0.7709  1.6378  0.3224
  103OSM   C13F10515   5.257   4.700   9.074 -0.5956 -0.0249 -0.4006
  103OSM   H13F10516   5.326   4.745   9.000 -0.5327 -1.2356 -1.1016
  103OSM   H13G10517   5.303   4.606   9.112  0.4758 -0.3025 -2.2734
  103OSM   C14F10518   5.135   4.656   9.003  0.0402  0.3511  0.4082
  103OSM   H14F10519   5.070   4.742   8.978 -0.8614 -0.4010  0.1127
  103OSM   H14G10520   5.073   4.596   9.073  0.1480 -0.8524 -0.4941
  103OSM   C15F10521   5.170   4.571   8.881 -0.2420  0.6328  0.0494
  103OSM   H15F10522   5.219   4.479   8.920 -0.6518 -0.3344 -1.6367
  103OSM   H15G10523   5.243   4.633   8.825  1.9824 -1.2839  0.6769
  103OSM   C16F10524   5.043   4.533   8.812  0.3679 -0.4587 -0.0571
  103OSM   H16F10525   4.994   4.625   8.774  0.3356 -1.5865 -2.9821
  103OSM   H16G10526   4.969   4.500   8.888 -0.9734 -1.7054 -1.8107
  103OSM   C17F10527   5.067   4.436   8.688 -0.4318 -0.6205 -0.8289
  103OSM   H17F10528   5.126   4.350   8.726 -0.3384 -0.8023 -1.3659
  103OSM   H17G10529   5.133   4.483   8.612 -0.8346 -0.2792 -0.9781
  103OSM   C18F10530   4.941   4.395   8.613  0.5019  1.1399 -0.2725
  103OSM   H18F10531   4.961   4.341   8.518 -0.2678 -0.0596  0.2168
  103OSM   H18G10532   4.883   4.482   8.575 -0.6218  1.2830  1.6446
  103OSM   H18H10533   4.872   4.327   8.667 -0.3563 -0.0547 -2.7246
  104OSM      N10534   2.589   5.964  11.176 -0.5315  0.8886  0.2449
  104OSM    C1510535   2.453   5.917  11.211 -0.4578  0.1665 -0.2226
  104OSM   H15A10536   2.388   5.930  11.126 -1.1256 -3.3687 -0.3971
  104OSM   H15B10537   2.404   5.968  11.293 -0.0794 -0.9307  0.7192
  104OSM   H15C10538   2.440   5.811  11.229  0.4181 -0.5314 -3.1129
  104OSM    C1410539   2.682   5.918  11.289 -1.2360  0.3330  0.1951
  104OSM   H14A10540   2.779   5.925  11.241 -2.1540 -0.1529 -1.8427
  104OSM   H14B10541   2.665   5.816  11.318 -2.4715  0.8230  1.2431
  104OSM   H14C10542   2.691   5.991  11.368  1.8207  0.6190 -0.2741
  104OSM    C1310543   2.626   5.891  11.049  0.3774 -0.2105 -0.4635
  104OSM   H13A10544   2.715   5.933  11.004  0.0017  0.1498 -0.8834
  104OSM   H13B10545   2.549   5.906  10.973 -2.1558  0.6749  2.0948
  104OSM   H13C10546   2.630   5.785  11.068  0.1467  0.1910  2.1944
  104OSM    C1210547   2.593   6.112  11.171  0.1528 -1.0327 -0.1509
  104OSM   H12A10548   2.686   6.157  11.141 -0.0956  0.2954  0.9869
  104OSM   H12B10549   2.583   6.156  11.269  1.8195 -1.8217  0.4023
  104OSM    C1110550   2.494   6.189  11.079 -0.0919  0.1820  0.4146
  104OSM   H11A10551   2.528   6.295  11.075 -0.8497  0.4074 -2.9314
  104OSM   H11B10552   2.389   6.187  11.116 -0.4118  5.6997  0.6027
  104OSM      P10553   2.621   6.201  10.847 -0.2216 -0.1549 -0.2506
  104OSM    O1310554   2.585   6.337  10.808  0.2987 -0.1516 -0.2912
  104OSM    O1410555   2.753   6.186  10.906 -0.3950  0.5991  0.3986
  104OSM    O1110556   2.607   6.113  10.715 -0.0933 -0.3633 -0.0703
  104OSM    O1210557   2.516   6.142  10.948 -0.1125  0.2816 -0.3502
  104OSM    C1S10558   2.480   6.115  10.644  0.5128 -0.2414  0.4890
  104OSM    H1S10559   2.410   6.189  10.689 -1.1732 -1.8197  0.5514
  104OSM    H1T10560   2.424   6.020  10.656  0.2580  0.1228  2.5976
  104OSM     NF10561   2.380   6.187  10.430  0.4912  0.2794 -0.2646
  104OSM    HNF10562   2.325   6.112  10.394  1.5114 -0.6560  0.0900
  104OSM    C2S10563   2.500   6.144  10.493  0.3975  0.4343  0.0536
  104OSM    H2S10564   2.576   6.226  10.496  0.4462  0.4956 -1.5857
  104OSM    C3S10565   2.565   6.023  10.418  0.8327  0.1138 -0.2978
  104OSM    H3S10566   2.486   5.945  10.419 -0.5870  1.4837 -1.1045
  104OSM     O310567   2.685   5.968  10.482 -0.0867 -0.4881 -0.0439
  104OSM    HO310568   2.704   6.015  10.563  1.3632  0.1793 -0.7429
  104OSM    C4S10569   2.603   6.066  10.279  0.0671 -0.9907  0.4009
  104OSM    H4S10570   2.694   6.128  10.278 -1.1069  0.7966 -0.4276
  104OSM    C5S10571   2.531   6.045  10.161  0.3526  0.5909  0.3315
  104OSM    H5S10572   2.433   5.995  10.156 -0.4013  2.0856 -2.0891
  104OSM    C6S10573   2.568   6.097  10.024  0.1586 -0.7743 -0.6296
  104OSM    H6S10574   2.489   6.067   9.952 -1.0263 -0.8046  0.6419
  104OSM    H6T10575   2.665   6.050   9.997 -0.0426 -0.9730 -1.0162
  104OSM    C7S10576   2.588   6.255  10.026  0.5806 -0.0269  0.5877
  104OSM    H7S10577   2.682   6.290  10.075  1.2315  1.6445 -1.6912
  104OSM    H7T10578   2.500   6.312  10.061  0.8509  0.5713  0.3076
  104OSM    C8S10579   2.601   6.303   9.878 -0.8680 -0.0662 -0.6632
  104OSM    H8S10580   2.689   6.253   9.832 -1.2897 -1.2616 -0.2121
  104OSM    H8T10581   2.619   6.413   9.872 -0.0001 -0.2173 -0.9739
  104OSM    C9S10582   2.477   6.279   9.793 -0.2007 -0.0207  0.3048
  104OSM    H9S10583   2.387   6.311   9.851 -0.3288 -0.4382  0.3366
  104OSM    H9T10584   2.465   6.170   9.780 -1.4915 -0.0530  1.4676
  104OSM   C10S10585   2.492   6.349   9.656  0.2925  0.5728 -0.4522
  104OSM   H10S10586   2.585   6.308   9.611  0.8709  1.3718 -0.0085
  104OSM   H10T10587   2.501   6.459   9.667  3.2890  0.4834 -1.2326
  104OSM   C11S10588   2.381   6.311   9.560  0.3719 -1.3058 -1.1958
  104OSM   H11S10589   2.296   6.374   9.593  0.9256 -1.8252  1.4816
  104OSM   H11T10590   2.360   6.202   9.568 -1.5637 -0.8567  1.9970
  104OSM   C12S10591   2.410   6.355   9.419 -0.2297 -0.0270  0.2920
  104OSM   H12S10592   2.419   6.265   9.354  1.7634 -0.5934  1.2729
  104OSM   H12T10593   2.516   6.389   9.417  0.8267 -3.0724 -0.5200
  104OSM   C13S10594   2.317   6.460   9.355  0.0484 -0.1428 -0.1758
  104OSM   H13S10595   2.317   6.552   9.416  0.2189 -1.5261  2.0063
  104OSM   H13T10596   2.213   6.421   9.355  0.3959 -1.2882 -2.7850
  104OSM   C14S10597   2.369   6.494   9.211  0.6577 -0.1665  0.1164
  104OSM   H14S10598   2.360   6.404   9.148 -0.9017  0.3938 -0.4974
  104OSM   H14T10599   2.473   6.532   9.213  0.2217  1.2460 -1.6955
  104OSM   C15S10600   2.282   6.598   9.147  0.1580 -0.6727 -0.6129
  104OSM   H15S10601   2.266   6.680   9.220 -1.5236 -2.4297  1.1546
  104OSM   H15T10602   2.184   6.550   9.126  0.4924 -0.7334 -2.1132
  104OSM   C16S10603   2.326   6.656   9.011  0.0189 -0.7034 -0.1563
  104OSM   H16S10604   2.354   6.567   8.951  3.4340 -0.5598  1.0263
  104OSM   H16T10605   2.415   6.719   9.033  0.7043 -0.7724 -2.4784
  104OSM   C17S10606   2.223   6.747   8.938  0.2395  1.0971 -0.3161
  104OSM   H17S10607   2.213   6.843   8.992 -0.3597 -0.2998  2.2695
  104OSM   H17T10608   2.127   6.693   8.952  2.0159 -2.1528  0.4202
  104OSM   C18S10609   2.267   6.767   8.799 -0.2498 -0.1473 -0.7331
  104OSM   H18S10610   2.207   6.843   8.745 -0.4432  0.0406 -0.2586
  104OSM   H18T10611   2.258   6.670   8.745  2.7377 -0.9544  0.0398
  104OSM   H18U10612   2.371   6.806   8.796 -0.8033  1.5665  0.5841
  104OSM    C1F10613   2.327   6.306  10.438 -0.1167 -0.5131 -0.2757
  104OSM     OF10614   2.376   6.389  10.512  0.3966 -0.3468 -0.5794
  104OSM    C2F10615   2.200   6.324  10.363 -0.1604 -0.5501 -0.0107
  104OSM    H2F10616   2.113   6.307  10.431  1.1718 -0.8906  1.7005
  104OSM    H2G10617   2.206   6.254  10.278  2.4374  0.9931 -1.1993
  104OSM    C3F10618   2.195   6.459  10.292  0.2785 -0.0295 -0.9980
  104OSM    H3F10619   2.213   6.536  10.370 -0.0405  0.1707 -1.1228
  104OSM    H3G10620   2.095   6.465  10.244 -0.4660 -3.2007 -0.0700
  104OSM    C4F10621   2.294   6.468  10.175  0.3379 -0.2346 -1.0302
  104OSM    H4F10622   2.295   6.379  10.108 -0.0703 -0.2885 -0.9654
  104OSM    H4G10623   2.398   6.478  10.215  0.2823  1.2085 -1.1969
  104OSM    C5F10624   2.262   6.586  10.079  0.4582  0.0279 -0.1462
  104OSM    H5F10625   2.268   6.675  10.145 -3.0077  1.2847 -1.3403
  104OSM    H5G10626   2.158   6.586  10.040  1.4079 -0.4745 -2.8761
  104OSM    C6F10627   2.374   6.607   9.976  0.5639 -0.7111 -0.0813
  104OSM    H6F10628   2.366   6.532   9.894 -2.4164  1.3892 -1.9272
  104OSM    H6G10629   2.471   6.601  10.030 -0.3927  0.2632  1.8859
  104OSM    C7F10630   2.361   6.747   9.909 -0.2356 -0.8761 -0.2440
  104OSM    H7F10631   2.387   6.823   9.986  1.6406 -0.6489 -1.0360
  104OSM    H7G10632   2.254   6.745   9.880  0.4180  0.0532 -3.0689
  104OSM    C8F10633   2.444   6.760   9.782 -0.1913 -0.3473  0.6717
  104OSM    H8F10634   2.417   6.861   9.745  0.7440  0.9235  3.1779
  104OSM    H8G10635   2.410   6.691   9.702 -0.1930  1.0424 -0.5583
  104OSM    C9F10636   2.589   6.739   9.808 -0.0226 -0.4767 -0.2050
  104OSM    H9F10637   2.609   6.711   9.912 -0.5828  0.8726  0.2851
  104OSM   C10F10638   2.686   6.731   9.714  0.2634 -1.0475 -0.7153
  104OSM   H10F10639   2.786   6.696   9.747  0.0043 -0.0414  1.2612
  104OSM   C11F10640   2.667   6.749   9.566 -0.0312  0.0278 -0.1180
  104OSM   H11F10641   2.697   6.854   9.547  1.1616 -0.4437 -1.0115
  104OSM   H11G10642   2.564   6.727   9.530 -0.6899  1.8347  0.5525
  104OSM   C12F10643   2.763   6.646   9.499  0.2307 -0.4863 -0.1419
  104OSM   H12F10644   2.744   6.545   9.542 -1.5575 -0.4255 -0.6775
  104OSM   H12G10645   2.870   6.667   9.516  0.3232 -1.5403  0.7098
  104OSM   C13F10646   2.735   6.632   9.352 -0.7164  0.6567 -0.2613
  104OSM   H13F10647   2.633   6.600   9.321 -0.8232  0.1974  0.5229
  104OSM   H13G10648   2.788   6.539   9.321  0.8406  1.7011 -0.8312
  104OSM   C14F10649   2.787   6.755   9.269  0.3182  0.6381 -0.1234
  104OSM   H14F10650   2.898   6.755   9.269  0.3347  1.0813 -1.1689
  104OSM   H14G10651   2.756   6.849   9.318 -0.8641  0.7052 -0.9561
  104OSM   C15F10652   2.729   6.768   9.128  0.1592  0.3515 -0.4781
  104OSM   H15F10653   2.731   6.877   9.106  1.8962  0.0388 -2.0366
  104OSM   H15G10654   2.623   6.736   9.135 -0.0936  1.4350  1.8182
  104OSM   C16F10655   2.798   6.686   9.022  0.1535 -0.5771  0.6799
  104OSM   H16F10656   2.744   6.684   8.925 -0.3622  0.4640  0.9287
  104OSM   H16G10657   2.812   6.583   9.062  0.9811 -0.7452 -0.0166
  104OSM   C17F10658   2.934   6.750   8.993 -0.1854  0.6216 -0.7699
  104OSM   H17F10659   3.008   6.737   9.074 -2.2877 -1.0836  1.0110
  104OSM   H17G10660   2.929   6.861   8.986  0.1544  0.6238 -1.0134
  104OSM   C18F10661   3.009   6.685   8.880  0.5156  0.1622 -0.1343
  104OSM   H18F10662   2.972   6.704   8.777  3.2253 -0.9033 -1.3814
  104OSM   H18G10663   3.031   6.577   8.894  1.8966  0.5292  0.7655
  104OSM   H18H10664   3.108   6.734   8.867 -1.3645  3.9285 -1.6784
  105OSM      N10665   2.031   3.568  10.763  0.0311 -0.3699  0.1752
  105OSM    C1510666   1.971   3.436  10.802  0.0760 -0.9813  0.1008
  105OSM   H15A10667   1.928   3.449  10.900 -3.5062 -0.0362 -1.4355
  105OSM   H15B10668   2.040   3.353  10.800 -0.3386 -1.3643  0.9802
  105OSM   H15C10669   1.894   3.414  10.730  1.0830  0.9526 -1.6707
  105OSM    C1410670   2.103   3.556  10.631  0.4121 -0.1450 -0.1236
  105OSM   H14A10671   2.039   3.504  10.562  2.5271 -0.9472 -1.5880
  105OSM   H14B10672   2.193   3.499  10.650  0.0842 -0.2252  1.3499
  105OSM   H14C10673   2.119   3.650  10.581  0.7065 -0.1215  0.0149
  105OSM    C1310674   1.911   3.668  10.741 -0.3761 -0.7770  0.3391
  105OSM   H13A10675   1.851   3.673  10.831 -0.4276  0.6641  0.2466
  105OSM   H13B10676   1.853   3.642  10.654 -0.7110 -0.1122  0.3576
  105OSM   H13C10677   1.954   3.765  10.724 -2.2823  0.4129  1.8973
  105OSM    C1210678   2.126   3.614  10.875  0.3343 -0.1007 -0.6769
  105OSM   H12A10679   2.193   3.539  10.915  0.3850 -0.0139 -0.5977
  105OSM   H12B10680   2.063   3.643  10.958  0.5018 -2.6591  0.4472
  105OSM    C1110681   2.201   3.745  10.850 -0.4634 -0.0061 -0.2682
  105OSM   H11A10682   2.226   3.792  10.947 -1.7468  0.9148 -0.3594
  105OSM   H11B10683   2.140   3.824  10.802  0.9280  1.6746  0.6086
  105OSM      P10684   2.443   3.670  10.858 -0.1554 -0.3499  0.1995
  105OSM    O1310685   2.499   3.789  10.927  0.1470  0.4154  0.1115
  105OSM    O1410686   2.410   3.554  10.936 -0.1588  0.1921  0.3351
  105OSM    O1110687   2.562   3.624  10.763 -0.5318  0.6121  0.1742
  105OSM    O1210688   2.320   3.719  10.769  0.1383  0.2660  0.3611
  105OSM    C1S10689   2.532   3.546  10.648  0.3753  0.2939  0.0815
  105OSM    H1S10690   2.427   3.511  10.636  0.5269  0.1751 -1.0160
  105OSM    H1T10691   2.583   3.448  10.659 -0.9873 -0.3079  1.6316
  105OSM     NF10692   2.583   3.509  10.410  0.6281 -0.0856  0.5205
  105OSM    HNF10693   2.672   3.466  10.400  1.0438  0.5365  1.3870
  105OSM    C2S10694   2.577   3.612  10.513  0.2759 -0.3117 -0.1528
  105OSM    H2S10695   2.499   3.686  10.487  0.6118 -0.1232 -0.6233
  105OSM    C3S10696   2.702   3.696  10.530 -0.9064  0.4530 -0.4220
  105OSM    H3S10697   2.788   3.632  10.560 -0.8337 -1.6870 -4.4829
  105OSM     O310698   2.684   3.797  10.629  0.4322 -0.4844  0.3971
  105OSM    HO310699   2.604   3.774  10.677 -0.1028  0.0068 -0.2346
  105OSM    C4S10700   2.736   3.777  10.405  0.2587 -0.4510 -0.0332
  105OSM    H4S10701   2.696   3.879  10.399 -2.5701 -1.1146  3.7045
  105OSM    C5S10702   2.825   3.726  10.317  0.5531  0.4216  0.2293
  105OSM    H5S10703   2.863   3.624  10.329 -2.6605 -0.8445  0.6987
  105OSM    C6S10704   2.875   3.795  10.191 -0.3199  0.1357  0.6410
  105OSM    H6S10705   2.984   3.773  10.192 -0.4889 -0.8582 -0.2723
  105OSM    H6T10706   2.873   3.906  10.189 -0.2616  0.1366 -0.8298
  105OSM    C7S10707   2.795   3.750  10.067 -0.5529 -0.6663 -0.4025
  105OSM    H7S10708   2.815   3.810   9.976 -0.5500 -2.1477 -1.4194
  105OSM    H7T10709   2.688   3.771  10.090 -0.4105  0.9850 -1.1122
  105OSM    C8S10710   2.804   3.601  10.039  0.7835  0.0220  0.2151
  105OSM    H8S10711   2.780   3.539  10.128  1.1287 -0.1261  0.2076
  105OSM    H8T10712   2.913   3.594  10.018  0.8017  2.4621 -0.8926
  105OSM    C9S10713   2.729   3.554   9.916  0.5489 -0.4830  0.1174
  105OSM    H9S10714   2.621   3.580   9.917  0.7365  0.4625 -1.0723
  105OSM    H9T10715   2.730   3.444   9.907 -1.2529 -0.5198 -0.0888
  105OSM   C10S10716   2.789   3.608   9.777 -0.0680 -0.3790 -0.1137
  105OSM   H10S10717   2.893   3.568   9.767  0.0828 -0.2910  0.9281
  105OSM   H10T10718   2.780   3.718   9.767 -1.8411 -0.5413 -0.5297
  105OSM   C11S10719   2.696   3.550   9.670  0.2075  1.0053 -0.0016
  105OSM   H11S10720   2.588   3.573   9.685 -0.4818 -1.0437 -1.3650
  105OSM   H11T10721   2.694   3.439   9.664  0.6708  1.0519 -1.4586
  105OSM   C12S10722   2.731   3.597   9.525  0.7159 -0.1827  0.1460
  105OSM   H12S10723   2.836   3.575   9.495  0.5561  0.6677 -1.1499
  105OSM   H12T10724   2.713   3.706   9.534  0.5034 -0.2056 -0.0036
  105OSM   C13S10725   2.628   3.540   9.421  0.7675 -0.5133 -0.0450
  105OSM   H13S10726   2.527   3.527   9.466  1.6771 -3.2407  1.4371
  105OSM   H13T10727   2.651   3.431   9.409  1.2877 -0.5539  1.2386
  105OSM   C14S10728   2.618   3.607   9.280 -0.5806  0.5020  0.2340
  105OSM   H14S10729   2.626   3.718   9.293  4.1074  0.7396 -2.3429
  105OSM   H14T10730   2.517   3.575   9.248  0.2305 -1.0611 -0.8772
  105OSM   C15S10731   2.729   3.559   9.182  0.3655  0.1253 -0.3190
  105OSM   H15S10732   2.727   3.449   9.167 -1.1567 -0.0844  1.1140
  105OSM   H15T10733   2.826   3.587   9.228  0.6477 -2.7502  1.1022
  105OSM   C16S10734   2.715   3.645   9.057  0.7223 -0.2567  0.4855
  105OSM   H16S10735   2.721   3.753   9.080  1.2375 -0.1800  0.0166
  105OSM   H16T10736   2.617   3.626   9.009  0.3110 -1.9150  1.8854
  105OSM   C17S10737   2.823   3.630   8.939 -0.0737 -0.3153 -0.6631
  105OSM   H17S10738   2.835   3.522   8.914 -1.2423 -0.6603  0.1811
  105OSM   H17T10739   2.917   3.670   8.981 -0.5068 -0.4068  0.4147
  105OSM   C18S10740   2.792   3.711   8.812 -0.6416  0.8610 -0.0473
  105OSM   H18S10741   2.694   3.670   8.780 -0.6766  2.6206 -2.4682
  105OSM   H18T10742   2.873   3.692   8.738  1.1274  0.3992  1.9286
  105OSM   H18U10743   2.777   3.816   8.843  0.4230  0.3415  2.4250
  105OSM    C1F10744   2.472   3.442  10.368 -0.2887  0.4264 -0.0908
  105OSM     OF10745   2.357   3.471  10.399 -0.2727  0.8205  0.1856
  105OSM    C2F10746   2.506   3.327  10.281 -0.7746  0.1996  0.4348
  105OSM    H2F10747   2.487   3.235  10.341 -0.5552  1.0518  1.8529
  105OSM    H2G10748   2.614   3.326  10.256 -0.6508 -0.8919  0.9326
  105OSM    C3F10749   2.436   3.317  10.142 -0.5926 -0.6312 -0.2661
  105OSM    H3F10750   2.478   3.389  10.068  0.5638 -1.1829 -0.1676
  105OSM    H3G10751   2.334   3.352  10.170  1.3125  2.6272  3.7851
  105OSM    C4F10752   2.441   3.175  10.075 -0.3948  0.1446 -0.2490
  105OSM    H4F10753   2.389   3.108  10.147 -3.2108  0.8728 -1.4307
  105OSM    H4G10754   2.550   3.158  10.074 -0.0382  1.9530  1.4058
  105OSM    C5F10755   2.375   3.167   9.938 -0.3912 -0.2709 -0.3390
  105OSM    H5F10756   2.280   3.222   9.951 -1.7950 -2.3009 -1.3458
  105OSM    H5G10757   2.358   3.060   9.911  1.3237 -0.5439 -0.4451
  105OSM    C6F10758   2.462   3.227   9.815 -0.0544  0.4717  0.2660
  105OSM    H6F10759   2.571   3.218   9.833  0.3826  1.4209 -1.6223
  105OSM    H6G10760   2.454   3.338   9.817 -0.5086  0.4421  0.2315
  105OSM    C7F10761   2.415   3.178   9.670  0.1892  0.5078 -0.6181
  105OSM    H7F10762   2.311   3.143   9.685  1.2898 -2.6338  0.4515
  105OSM    H7G10763   2.472   3.088   9.640 -1.0370 -0.1225 -1.1548
  105OSM    C8F10764   2.429   3.276   9.554  0.5707  0.3499  0.1923
  105OSM    H8F10765   2.537   3.272   9.530 -0.0844 -3.1018 -3.1108
  105OSM    H8G10766   2.404   3.380   9.584 -1.4683 -0.2943  0.8626
  105OSM    C9F10767   2.352   3.213   9.432 -0.2614  0.3924 -0.3300
  105OSM    H9F10768   2.246   3.199   9.455  0.1021  0.2409  1.3812
  105OSM   C10F10769   2.402   3.173   9.314 -0.3437  0.9358 -0.0034
  105OSM   H10F10770   2.325   3.150   9.238 -0.3166  1.2002 -0.1142
  105OSM   C11F10771   2.537   3.173   9.253 -0.6610 -0.0492 -0.4579
  105OSM   H11F10772   2.585   3.073   9.254 -0.4320  0.0638  0.3479
  105OSM   H11G10773   2.600   3.238   9.317  0.6797 -0.9573 -0.7937
  105OSM   C12F10774   2.533   3.226   9.112 -1.1237 -0.0761  0.3667
  105OSM   H12F10775   2.527   3.337   9.109 -1.1112 -0.0754  0.3653
  105OSM   H12G10776   2.446   3.185   9.056 -0.0192  0.1486 -1.5889
  105OSM   C13F10777   2.666   3.178   9.043  0.2598  0.0970 -0.3486
  105OSM   H13F10778   2.661   3.072   9.010 -0.5503 -0.0470  0.2057
  105OSM   H13G10779   2.739   3.192   9.126  3.0092  1.1882 -2.7800
  105OSM   C14F10780   2.710   3.262   8.922 -0.6657  0.7815 -0.0305
  105OSM   H14F10781   2.801   3.210   8.886 -0.0476  0.4078  1.9402
  105OSM   H14G10782   2.736   3.363   8.960 -0.0005  1.3325 -1.8787
  105OSM   C15F10783   2.604   3.267   8.808 -0.1547  0.3590 -0.3363
  105OSM   H15F10784   2.507   3.313   8.836 -0.2913  0.9470 -1.6793
  105OSM   H15G10785   2.575   3.163   8.782  0.2374  0.1481  0.0596
  105OSM   C16F10786   2.651   3.359   8.689 -0.8299  0.5984 -0.5408
  105OSM   H16F10787   2.757   3.334   8.665 -0.4494 -0.3543  1.8530
  105OSM   H16G10788   2.648   3.461   8.732 -0.2260 -0.3121  1.8269
  105OSM   C17F10789   2.556   3.350   8.567  0.5180  0.4223  0.2477
  105OSM   H17F10790   2.452   3.365   8.601 -0.6490 -1.9196 -1.9358
  105OSM   H17G10791   2.565   3.252   8.514  0.6539  0.3141  0.4696
  105OSM   C18F10792   2.570   3.458   8.459 -0.4448  0.3333  0.6969
  105OSM   H18F10793   2.677   3.483   8.446 -0.5341  0.2727 -0.2351
  105OSM   H18G10794   2.519   3.552   8.490 -1.1902  0.1559  0.0664
  105OSM   H18H10795   2.520   3.434   8.362  1.3682 -1.4974  0.1609
  106OSM      N10796   4.382   2.382  10.439  0.0900  0.5440  0.0472
  106OSM    C1510797   4.337   2.268  10.353 -0.2128 -0.4609 -0.5081
  106OSM   H15A10798   4.408   2.254  10.273 -0.3382  0.0073 -0.7067
  106OSM   H15B10799   4.246   2.292  10.300 -0.1779 -1.7181 -1.1790
  106OSM   H15C10800   4.318   2.175  10.406  3.5442  0.1659  2.2877
  106OSM    C1410801   4.515   2.325  10.485  0.6470 -0.7767  0.5924
  106OSM   H14A10802   4.576   2.403  10.528 -0.3794  1.3866 -1.6350
  106OSM   H14B10803   4.566   2.299  10.394 -0.8105 -1.4690 -0.0510
  106OSM   H14C10804   4.511   2.242  10.554 -1.4423 -0.1696  1.2903
  106OSM    C1310805   4.397   2.503  10.355 -0.4309 -0.4732  0.3148
  106OSM   H13A10806   4.456   2.479  10.268  0.3493  2.5237 -0.0892
  106OSM   H13B10807   4.458   2.578  10.402  0.1508 -0.6550 -0.1376
  106OSM   H13C10808   4.303   2.543  10.320  0.2040  1.1309  0.3589
  106OSM    C1210809   4.282   2.414  10.554  0.3293  0.4772  0.3578
  106OSM   H12A10810   4.316   2.495  10.618  1.0894 -1.0891  2.0237
  106OSM   H12B10811   4.281   2.327  10.618  0.2368  0.0420 -0.2322
  106OSM    C1110812   4.140   2.447  10.508 -0.3323 -0.1070  0.2164
  106OSM   H11A10813   4.098   2.367  10.444 -0.3877 -0.2752  0.4615
  106OSM   H11B10814   4.137   2.535  10.440 -1.1120  0.2941  0.7452
  106OSM      P10815   4.009   2.377  10.723 -0.0487 -0.2186 -0.2876
  106OSM    O1310816   4.118   2.283  10.759  0.0002 -0.2879 -0.1997
  106OSM    O1410817   3.935   2.447  10.830  0.4105  0.3413 -0.1177
  106OSM    O1110818   3.903   2.294  10.642 -0.7457  0.1024  0.0356
  106OSM    O1210819   4.060   2.488  10.628  0.8815  0.1048 -0.4169
  106OSM    C1S10820   3.814   2.366  10.556  0.0956 -0.6532  0.6086
  106OSM    H1S10821   3.866   2.458  10.522  0.6941 -0.5463  1.7679
  106OSM    H1T10822   3.738   2.402  10.628  1.9034  0.9297  1.8042
  106OSM     NF10823   3.694   2.370  10.345 -0.3895  0.2053  0.1725
  106OSM    HNF10824   3.597   2.386  10.364 -0.1450 -0.4423  2.1365
  106OSM    C2S10825   3.762   2.282  10.435  0.0418  1.1210  0.2888
  106OSM    H2S10826   3.850   2.232  10.390 -0.7701  0.9985 -1.2261
  106OSM    C3S10827   3.680   2.165  10.495 -0.1477 -0.2856  0.1227
  106OSM    H3S10828   3.609   2.209  10.569 -1.1299 -1.0200 -0.3543
  106OSM     O310829   3.749   2.058  10.560  0.1452 -0.0305 -0.0095
  106OSM    HO310830   3.831   2.102  10.583  1.7175 -2.8339  0.1814
  106OSM    C4S10831   3.601   2.089  10.385  0.3243 -0.1068 -0.2650
  106OSM    H4S10832   3.653   2.048  10.297  0.4839  1.1555 -0.7870
  106OSM    C5S10833   3.470   2.058  10.404 -0.0085 -0.6559  0.3234
  106OSM    H5S10834   3.412   2.075  10.496  1.9475 -1.8829  1.8702
  106OSM    C6S10835   3.388   1.978  10.301  0.1732  0.1393 -0.8370
  106OSM    H6S10836   3.282   2.010  10.298 -0.7582 -2.0143  3.0682
  106OSM    H6T10837   3.388   1.870  10.327  1.1200 -0.0332 -1.4762
  106OSM    C7S10838   3.436   2.003  10.158  0.2333 -1.3630 -0.6233
  106OSM    H7S10839   3.543   1.986  10.131  1.1110  1.6346  0.5635
  106OSM    H7T10840   3.432   2.111  10.134  0.2544 -1.2277 -0.0362
  106OSM    C8S10841   3.345   1.933  10.050  0.5098  0.0624 -0.0737
  106OSM    H8S10842   3.241   1.971  10.062  0.0995 -0.2676 -2.1036
  106OSM    H8T10843   3.354   1.825  10.074 -0.3493  0.3902  1.9137
  106OSM    C9S10844   3.383   1.943   9.900  0.1811  0.0462 -0.0819
  106OSM    H9S10845   3.488   1.908   9.887 -0.4173 -1.8311 -0.0816
  106OSM    H9T10846   3.373   2.050   9.871  2.1891  0.8496  1.8413
  106OSM   C10S10847   3.296   1.854   9.809  0.7281 -0.8367 -0.3465
  106OSM   H10S10848   3.190   1.873   9.835  1.2880  0.6400  1.0262
  106OSM   H10T10849   3.321   1.746   9.821  0.4702 -0.7949  0.6836
  106OSM   C11S10850   3.306   1.889   9.660 -0.5131 -0.6335  0.7495
  106OSM   H11S10851   3.414   1.893   9.638 -0.7205  2.1235 -0.1972
  106OSM   H11T10852   3.266   1.992   9.650  1.2030  0.1484  1.6246
  106OSM   C12S10853   3.231   1.804   9.560 -0.5200 -0.3953 -0.0280
  106OSM   H12S10854   3.122   1.820   9.572 -0.1609  1.7561  0.8705
  106OSM   H12T10855   3.255   1.700   9.590 -0.9898 -0.6566 -0.5469
  106OSM   C13S10856   3.266   1.814   9.410 -0.1596  0.1113 -0.0231
  106OSM   H13S10857   3.186   1.755   9.360  0.5598 -0.2988 -0.7232
  106OSM   H13T10858   3.363   1.761   9.402 -0.8294 -1.9339  3.5841
  106OSM   C14S10859   3.284   1.957   9.357  0.0556 -0.0594  0.0351
  106OSM   H14S10860   3.361   2.011   9.416  0.3693  0.8397 -1.1643
  106OSM   H14T10861   3.189   2.012   9.371 -1.1003 -1.3071 -2.2370
  106OSM   C15S10862   3.324   1.966   9.208 -0.1975  0.4731 -0.1688
  106OSM   H15S10863   3.410   1.901   9.182  1.0257  2.2484 -0.7230
  106OSM   H15T10864   3.342   2.070   9.174  0.8477  0.4843  0.3724
  106OSM   C16S10865   3.212   1.900   9.121 -0.2114 -0.2835  0.7081
  106OSM   H16S10866   3.110   1.940   9.134  0.0480  1.0548 -1.0545
  106OSM   H16T10867   3.215   1.791   9.143 -0.8067 -0.5120 -0.2858
  106OSM   C17S10868   3.228   1.913   8.968  0.1334  0.0719  0.8840
  106OSM   H17S10869   3.227   2.022   8.944 -1.4429 -0.1985 -0.3693
  106OSM   H17T10870   3.138   1.871   8.919  1.7446 -1.0325 -1.3032
  106OSM   C18S10871   3.346   1.840   8.913  0.8270 -0.1577  0.2537
  106OSM   H18S10872   3.343   1.849   8.803  1.1943  0.1817  0.2699
  106OSM   H18T10873   3.341   1.731   8.935 -0.4627  0.0754  1.2080
  106OSM   H18U10874   3.441   1.885   8.950  0.7852 -0.4422  0.7215
  106OSM    C1F10875   3.762   2.454  10.272  0.0718  0.4072  0.5721
  106OSM     OF10876   3.887   2.445  10.278  0.5627  0.0291  0.0598
  106OSM    C2F10877   3.697   2.557  10.193 -0.1802 -0.2018  0.1005
  106OSM    H2F10878   3.694   2.649  10.256 -0.8005 -0.1179 -0.0465
  106OSM    H2G10879   3.589   2.535  10.179 -0.2080 -0.6312  0.8916
  106OSM    C3F10880   3.756   2.582  10.054  0.1750  0.0451 -0.2766
  106OSM    H3F10881   3.861   2.614  10.065 -0.3596  1.4210  1.0571
  106OSM    H3G10882   3.694   2.665  10.014 -0.9825 -0.5672  0.1939
  106OSM    C4F10883   3.738   2.461   9.958  0.4965 -0.0246 -0.0502
  106OSM    H4F10884   3.635   2.420   9.964  0.6100 -1.1248 -3.3742
  106OSM    H4G10885   3.810   2.384   9.991 -2.0610 -1.7590  1.9270
  106OSM    C5F10886   3.750   2.496   9.811 -1.0436  0.1072  0.1008
  106OSM    H5F10887   3.837   2.564   9.797 -0.4325 -0.7479 -0.3842
  106OSM    H5G10888   3.662   2.556   9.780 -0.9905  1.3918  2.2314
  106OSM    C6F10889   3.771   2.372   9.725  0.0110  0.7353 -0.3796
  106OSM    H6F10890   3.685   2.301   9.732  0.1796  0.5493 -0.1806
  106OSM    H6G10891   3.861   2.314   9.754 -0.1667 -1.3371 -3.4676
  106OSM    C7F10892   3.780   2.414   9.576  0.9013  0.1311  0.8034
  106OSM    H7F10893   3.865   2.486   9.570  1.7405 -0.9627 -2.9067
  106OSM    H7G10894   3.695   2.475   9.539  1.5612 -0.2746 -1.5220
  106OSM    C8F10895   3.802   2.301   9.468 -0.1936 -0.0902  0.1161
  106OSM    H8F10896   3.713   2.236   9.479  0.9448 -1.4149  2.2038
  106OSM    H8G10897   3.888   2.242   9.506 -1.6761 -0.9282  2.4122
  106OSM    C9F10898   3.816   2.352   9.327 -0.3580  0.5122 -0.5817
  106OSM    H9F10899   3.905   2.413   9.309  0.2844 -0.0904  0.4510
  106OSM   C10F10900   3.738   2.330   9.216 -0.3118 -0.1462  0.2290
  106OSM   H10F10901   3.762   2.381   9.122 -2.9969  1.1948  0.1562
  106OSM   C11F10902   3.611   2.248   9.193  0.8786 -0.2560 -0.2279
  106OSM   H11F10903   3.531   2.325   9.183  2.2974  1.6294  1.8784
  106OSM   H11G10904   3.579   2.199   9.288  0.3295 -1.1212 -0.8466
  106OSM   C12F10905   3.602   2.157   9.067  0.5211  0.3754  0.8343
  106OSM   H12F10906   3.493   2.138   9.060  0.6683 -0.4261  0.5983
  106OSM   H12G10907   3.652   2.059   9.082  0.9948  0.1202 -1.8722
  106OSM   C13F10908   3.644   2.212   8.929  0.6512  0.1846 -0.1857
  106OSM   H13F10909   3.754   2.226   8.934  1.4240 -4.3154 -0.7852
  106OSM   H13G10910   3.598   2.311   8.908 -2.0653 -0.5476  1.7528
  106OSM   C14F10911   3.616   2.111   8.812  0.4289 -0.0762 -0.1102
  106OSM   H14F10912   3.506   2.123   8.802  0.4117  0.6525  0.7594
  106OSM   H14G10913   3.635   2.006   8.842 -0.5529 -0.0131  0.8191
  106OSM   C15F10914   3.673   2.152   8.673  0.0499 -0.6112  0.7102
  106OSM   H15F10915   3.622   2.247   8.647  1.0466 -0.0203  0.8613
  106OSM   H15G10916   3.642   2.075   8.600  0.9902 -0.8204  0.5239
  106OSM   C16F10917   3.825   2.161   8.662  0.3625  0.2064 -0.4154
  106OSM   H16F10918   3.860   2.075   8.601 -0.6482  0.7735 -1.8519
  106OSM   H16G10919   3.872   2.143   8.761 -2.6509  0.8522  1.2635
  106OSM   C17F10920   3.876   2.291   8.596  0.3027 -0.7695 -0.5089
  106OSM   H17F10921   3.855   2.376   8.665  2.7842  0.1686 -0.7822
  106OSM   H17G10922   3.841   2.316   8.494 -1.2560 -1.2400 -0.1072
  106OSM   C18F10923   4.028   2.304   8.584  0.3943  0.0889 -0.0525
  106OSM   H18F10924   4.068   2.403   8.552 -1.6641  0.7682 -0.7036
  106OSM   H18G10925   4.065   2.215   8.528  1.0029 -0.3994  1.1029
  106OSM   H18H10926   4.064   2.290   8.688 -3.4799  0.2000  1.4447
  107OSM      N10927   4.371   0.149  11.003  0.0332 -0.2592  0.3842
  107OSM    C1510928   4.327   0.285  11.000  0.3787 -0.1205 -0.1081
  107OSM   H15A10929   4.245   0.300  11.070  0.6719 -0.4409  0.3104
  107OSM   H15B10930   4.298   0.328  10.906 -0.6188  0.4199  0.4271
  107OSM   H15C10931   4.414   0.345  11.023  0.5641 -0.6847  0.6934
  107OSM    C1410932   4.495   0.127  10.912  0.1174 -0.1962 -0.6005
  107OSM   H14A10933   4.587   0.128  10.967 -0.4569 -1.4795  0.4278
  107OSM   H14B10934   4.493   0.196  10.828  0.9862 -0.8255 -1.1474
  107OSM   H14C10935   4.479   0.031  10.864  0.5151 -0.0306 -1.0738
  107OSM    C1310936   4.410   0.112  11.139 -0.0318  0.3328 -0.6184
  107OSM   H13A10937   4.325   0.095  11.204  0.3457  2.2403  0.4306
  107OSM   H13B10938   4.465   0.191  11.187  0.3359  0.2361 -0.8808
  107OSM   H13C10939   4.475   0.026  11.140  1.6549  1.5409 -1.8137
  107OSM    C1210940   4.256   0.066  10.946 -0.8988  0.1241 -0.3484
  107OSM   H12A10941   4.235   0.088  10.842  2.2450  0.2320 -1.0673
  107OSM   H12B10942   4.169   0.096  11.002 -0.0646  1.1418  0.4477
  107OSM    C1110943   4.271  -0.089  10.942  0.4700  0.2420  0.1025
  107OSM   H11A10944   4.175  -0.137  10.912  0.5850 -0.1583  0.3573
  107OSM   H11B10945   4.294  -0.129  11.044  0.8003 -0.0566 -0.0858
  107OSM      P10946   4.451  -0.253  10.848 -0.0057  0.1979 -0.2973
  107OSM    O1310947   4.598  -0.223  10.854  0.4380  0.6848 -0.0832
  107OSM    O1410948   4.384  -0.358  10.934 -0.1666  0.3767  0.5841
  107OSM    O1110949   4.413  -0.311  10.704  0.2398  0.5181  0.0064
  107OSM    O1210950   4.374  -0.119  10.846  0.3411  0.5111 -0.7741
  107OSM    C1S10951   4.271  -0.357  10.685  0.5164 -0.5359  0.3684
  107OSM    H1S10952   4.200  -0.287  10.732 -1.1212 -2.5426  1.0425
  107OSM    H1T10953   4.269  -0.461  10.724  1.8423 -0.9414 -0.5538
  107OSM     NF10954   4.113  -0.377  10.482 -0.2456 -0.1736  0.1102
  107OSM    HNF10955   4.077  -0.469  10.469 -0.0183 -0.4160  1.1595
  107OSM    C2S10956   4.253  -0.366  10.528  0.4771 -0.1069  0.4251
  107OSM    H2S10957   4.297  -0.274  10.482  0.3731 -0.0342  0.4710
  107OSM    C3S10958   4.330  -0.483  10.467  0.5548 -0.3624  0.1360
  107OSM    H3S10959   4.284  -0.575  10.508  2.4710 -0.6280  1.8498
  107OSM     O310960   4.462  -0.488  10.524 -0.4521 -0.3228 -0.0151
  107OSM    HO310961   4.466  -0.423  10.594  0.9532  1.4549 -1.6309
  107OSM    C4S10962   4.329  -0.496  10.316 -0.5045 -0.0470  0.1209
  107OSM    H4S10963   4.242  -0.559  10.293 -0.8635  1.2248 -2.2553
  107OSM    C5S10964   4.419  -0.454  10.224  0.1479  0.3096 -0.0167
  107OSM    H5S10965   4.510  -0.399  10.252 -0.1473 -0.6859  3.3266
  107OSM    C6S10966   4.398  -0.484  10.075 -0.8347 -0.3340  1.0050
  107OSM    H6S10967   4.497  -0.500  10.029 -0.8538  3.5937 -0.7785
  107OSM    H6T10968   4.363  -0.394  10.021  0.5610 -1.6518 -2.3547
  107OSM    C7S10969   4.323  -0.612  10.013  0.8818  0.2548 -0.5066
  107OSM    H7S10970   4.218  -0.630  10.046  1.6971 -0.9346  1.5958
  107OSM    H7T10971   4.366  -0.704  10.056 -0.9866 -0.3364  0.1790
  107OSM    C8S10972   4.345  -0.614   9.860  0.2068  0.0468 -0.7081
  107OSM    H8S10973   4.375  -0.511   9.831  0.4269 -0.3237 -1.8642
  107OSM    H8T10974   4.245  -0.637   9.817  0.4815 -0.4217 -1.1046
  107OSM    C9S10975   4.450  -0.722   9.819 -0.2061  0.1178  0.1791
  107OSM    H9S10976   4.409  -0.821   9.849  0.3237 -0.3051 -0.4781
  107OSM    H9T10977   4.546  -0.701   9.871  0.5154  0.9364 -1.4226
  107OSM   C10S10978   4.481  -0.711   9.668 -0.8080  0.1313  0.8700
  107OSM   H10S10979   4.545  -0.798   9.641 -0.7707  0.4649 -0.1447
  107OSM   H10T10980   4.537  -0.617   9.652  1.9418 -1.6649 -1.0175
  107OSM   C11S10981   4.362  -0.718   9.580 -0.3076  0.2952  0.0090
  107OSM   H11S10982   4.296  -0.636   9.618  1.2574  0.8431  1.7268
  107OSM   H11T10983   4.294  -0.805   9.596 -0.1133  0.2208  0.4596
  107OSM   C12S10984   4.396  -0.692   9.434 -0.7154  0.2939  0.0040
  107OSM   H12S10985   4.465  -0.605   9.427  0.8216 -0.8761  0.2572
  107OSM   H12T10986   4.298  -0.670   9.387 -0.4699  0.5777 -0.3752
  107OSM   C13S10987   4.455  -0.811   9.366 -0.4441  0.5151 -0.1296
  107OSM   H13S10988   4.380  -0.892   9.348  1.0696 -0.0986 -5.0028
  107OSM   H13T10989   4.529  -0.844   9.443 -0.8647  0.2896  0.1874
  107OSM   C14S10990   4.514  -0.771   9.230 -1.4378  0.5080  1.1825
  107OSM   H14S10991   4.549  -0.861   9.176 -0.0397  1.3361  0.6350
  107OSM   H14T10992   4.614  -0.723   9.233  1.1534 -4.0608 -1.2098
  107OSM   C15S10993   4.418  -0.689   9.142  0.0091  0.3387 -0.3301
  107OSM   H15S10994   4.417  -0.583   9.175  0.4429  0.5298 -0.9030
  107OSM   H15T10995   4.320  -0.740   9.158  1.2809 -2.8197 -1.7067
  107OSM   C16S10996   4.445  -0.696   9.000  0.9452 -0.3374 -0.4457
  107OSM   H16S10997   4.469  -0.791   8.948 -2.3400 -1.5580  0.0234
  107OSM   H16T10998   4.525  -0.620   8.987  0.0280  1.2786  2.4790
  107OSM   C17S10999   4.317  -0.656   8.922  0.2313 -0.1066 -0.2514
  107OSM   H17S11000   4.265  -0.576   8.979 -1.1939  0.0534 -1.7066
  107OSM   H17T11001   4.246  -0.740   8.937  0.5529 -0.4431 -0.5985
  107OSM   C18S11002   4.354  -0.610   8.782  0.3909  0.8924 -0.3956
  107OSM   H18S11003   4.428  -0.527   8.782 -0.1994  1.5122  2.4165
  107OSM   H18T11004   4.264  -0.568   8.732 -0.3949 -0.0374  0.2158
  107OSM   H18U11005   4.396  -0.698   8.728 -1.5546 -0.5081  0.2678
  107OSM    C1F11006   4.022  -0.279  10.506  0.3437  0.1576 -0.2464
  107OSM     OF11007   4.047  -0.183  10.573 -0.0832  0.2807 -0.0084
  107OSM    C2F11008   3.885  -0.299  10.445 -0.0879  0.1763 -0.1651
  107OSM    H2F11009   3.845  -0.196  10.434  2.6704  1.2350 -1.3604
  107OSM    H2G11010   3.824  -0.375  10.499 -1.5160  0.1636 -1.7117
  107OSM    C3F11011   3.902  -0.352  10.300  0.5135  0.3086  0.4817
  107OSM    H3F11012   3.799  -0.361  10.260  0.6955  3.0896 -0.8289
  107OSM    H3G11013   3.938  -0.457  10.301  0.9587  0.4034 -1.5186
  107OSM    C4F11014   3.974  -0.259  10.206 -0.3311 -0.0909 -0.3374
  107OSM    H4F11015   4.076  -0.238  10.244 -0.7277 -0.3310  0.9178
  107OSM    H4G11016   3.924  -0.159  10.211 -1.2773 -0.6072  1.4028
  107OSM    C5F11017   3.982  -0.328  10.071 -0.1084 -0.4847  0.0560
  107OSM    H5F11018   3.878  -0.354  10.041 -0.1641  0.5198 -0.6837
  107OSM    H5G11019   4.037  -0.423  10.087  0.1419 -0.1320  1.3786
  107OSM    C6F11020   4.048  -0.237   9.966 -0.7791  0.5701 -0.0458
  107OSM    H6F11021   4.156  -0.213   9.973  0.1853 -2.9545 -0.8907
  107OSM    H6G11022   3.988  -0.144   9.958  1.2836  1.8370 -1.9903
  107OSM    C7F11023   4.043  -0.315   9.834 -0.4524  0.6621  0.1845
  107OSM    H7F11024   3.940  -0.356   9.839 -1.1360  2.2698  0.0445
  107OSM    H7G11025   4.115  -0.399   9.839 -0.2296  0.8438  0.0234
  107OSM    C8F11026   4.050  -0.236   9.703 -0.2000  0.3905  0.3701
  107OSM    H8F11027   3.977  -0.154   9.720 -0.3460 -0.0778  2.1790
  107OSM    H8G11028   4.040  -0.284   9.603  1.1671  3.3012 -1.2916
  107OSM    C9F11029   4.190  -0.171   9.694  0.9326 -0.1267  0.3608
  107OSM    H9F11030   4.195  -0.068   9.732 -3.0256  0.6727 -0.8116
  107OSM   C10F11031   4.298  -0.228   9.636  0.1422 -0.2355 -0.7218
  107OSM   H10F11032   4.395  -0.176   9.629  0.7406 -1.4032 -1.5759
  107OSM   C11F11033   4.304  -0.359   9.572 -0.4496  0.4363  0.7450
  107OSM   H11F11034   4.211  -0.414   9.600 -0.9134  0.8577  0.0739
  107OSM   H11G11035   4.390  -0.422   9.603  0.2493  1.1026  0.2060
  107OSM   C12F11036   4.322  -0.345   9.420 -0.3333  0.7388 -0.0147
  107OSM   H12F11037   4.326  -0.450   9.383 -0.1692  0.5484  0.5374
  107OSM   H12G11038   4.413  -0.285   9.399 -0.9942  1.4700 -0.8685
  107OSM   C13F11039   4.201  -0.274   9.352 -0.6466 -0.6303 -0.2439
  107OSM   H13F11040   4.206  -0.172   9.396 -2.9409 -1.4193  2.1139
  107OSM   H13G11041   4.097  -0.312   9.366 -1.0506  1.1058  2.0405
  107OSM   C14F11042   4.220  -0.262   9.201  0.1446  0.5755  0.7726
  107OSM   H14F11043   4.251  -0.361   9.162  2.0950  0.2019  2.9944
  107OSM   H14G11044   4.301  -0.187   9.184  1.5673 -0.9686  0.4975
  107OSM   C15F11045   4.099  -0.204   9.122  0.1256  0.2148 -0.3386
  107OSM   H15F11046   4.063  -0.123   9.189  4.2131  0.2289  2.2193
  107OSM   H15G11047   4.013  -0.274   9.113 -1.5840  2.1613  0.2797
  107OSM   C16F11048   4.136  -0.150   8.985 -0.0616  0.4086  0.3208
  107OSM   H16F11049   4.196  -0.057   8.991 -0.1932  0.4304  1.5658
  107OSM   H16G11050   4.043  -0.119   8.931 -0.2245 -1.1835 -0.3811
  107OSM   C17F11051   4.208  -0.260   8.890  0.0925 -1.4328 -0.2365
  107OSM   H17F11052   4.159  -0.358   8.911  1.7728 -2.0028  1.3470
  107OSM   H17G11053   4.312  -0.270   8.929  0.4916 -0.4296 -1.0174
  107OSM   C18F11054   4.217  -0.216   8.747  0.8519 -0.0231  0.2211
  107OSM   H18F11055   4.109  -0.214   8.719  1.3594 -0.3251 -1.9650
  107OSM   H18G11056   4.267  -0.290   8.681  0.6985  2.2213 -2.5923
  107OSM   H18H11057   4.265  -0.117   8.731  2.3649 -0.5141  1.5184
  108OSM      N11058   1.550   1.539  10.981 -0.3703 -0.0496 -0.0476
  108OSM    C1511059   1.660   1.467  10.907 -0.4472 -0.1126 -0.5911
  108OSM   H15A11060   1.760   1.476  10.946 -0.4897 -3.0167  0.4099
  108OSM   H15B11061   1.652   1.503  10.805 -0.1951  2.5099  0.2367
  108OSM   H15C11062   1.630   1.365  10.923  0.7214 -0.4068 -0.1586
  108OSM    C1411063   1.488   1.447  11.087  0.3329 -0.1166  0.5785
  108OSM   H14A11064   1.555   1.405  11.161 -1.6094 -2.5620  1.0931
  108OSM   H14B11065   1.451   1.361  11.032  0.3959 -0.3486  0.8929
  108OSM   H14C11066   1.400   1.484  11.136  1.1559 -0.2342  2.2324
  108OSM    C1311067   1.595   1.664  11.057  0.3214  0.2536 -0.3802
  108OSM   H13A11068   1.544   1.657  11.152 -0.7078 -0.0570 -0.9400
  108OSM   H13B11069   1.563   1.749  10.999 -2.1168 -0.5174 -0.2840
  108OSM   H13C11070   1.701   1.674  11.071  0.0247 -0.0427  2.6029
  108OSM    C1211071   1.443   1.568  10.873 -0.8348  0.0955 -0.2504
  108OSM   H12A11072   1.354   1.613  10.915 -1.5887 -0.6580 -1.0040
  108OSM   H12B11073   1.411   1.471  10.838  0.4904 -0.8246  0.9870
  108OSM    C1111074   1.476   1.671  10.758  0.3467  0.1882  0.1773
  108OSM   H11A11075   1.396   1.658  10.682  0.3836  0.9135  0.0108
  108OSM   H11B11076   1.572   1.637  10.714 -0.0032 -0.4730 -0.0892
  108OSM      P11077   1.392   1.923  10.801 -0.0878 -0.1322 -0.3544
  108OSM    O1311078   1.284   1.917  10.900 -0.3347 -0.2265 -0.3325
  108OSM    O1411079   1.476   2.047  10.806 -0.2014  0.6356  0.5729
  108OSM    O1111080   1.338   1.909  10.662  0.1462  0.9077  0.1687
  108OSM    O1211081   1.493   1.802  10.811  0.2357 -0.0838 -0.0641
  108OSM    C1S11082   1.254   2.017  10.611  0.2605 -0.0612 -0.1363
  108OSM    H1S11083   1.274   2.118  10.651 -0.0724 -0.1734  0.3149
  108OSM    H1T11084   1.146   1.997  10.628  0.5139  0.9985  3.5506
  108OSM     NF11085   1.220   2.158  10.418 -0.1758 -0.1002  0.0319
  108OSM    HNF11086   1.124   2.156  10.391  0.1763 -0.1159 -1.3176
  108OSM    C2S11087   1.270   2.028  10.455 -0.2831  0.0256  0.1731
  108OSM    H2S11088   1.380   2.041  10.445 -0.1958 -0.9326 -0.1849
  108OSM    C3S11089   1.213   1.907  10.382 -0.4939 -0.2723  0.1067
  108OSM    H3S11090   1.106   1.892  10.409 -0.7051 -0.3753 -0.7544
  108OSM     O311091   1.280   1.790  10.412 -0.1993 -0.1297 -0.4590
  108OSM    HO311092   1.345   1.812  10.480  1.3425  0.3247 -2.0213
  108OSM    C4S11093   1.228   1.935  10.231  0.3497  0.1832 -0.7030
  108OSM    H4S11094   1.143   1.980  10.178 -0.8959 -0.8339  0.3618
  108OSM    C5S11095   1.340   1.937  10.155  0.2535 -0.8247  0.2587
  108OSM    H5S11096   1.436   1.918  10.204  0.3149  0.4681  0.6928
  108OSM    C6S11097   1.344   1.986  10.015  0.4930  0.4248 -0.3233
  108OSM    H6S11098   1.342   1.902   9.942  1.9030 -1.8640  2.0815
  108OSM    H6T11099   1.447   2.026  10.001  0.6396  0.0467 -0.3409
  108OSM    C7S11100   1.244   2.095   9.992  0.1558 -0.4674  0.6834
  108OSM    H7S11101   1.246   2.177  10.067 -2.6671 -2.3718  3.0868
  108OSM    H7T11102   1.139   2.059   9.985 -0.4093  1.3650 -1.1373
  108OSM    C8S11103   1.257   2.160   9.853 -0.1165 -0.4269 -0.8043
  108OSM    H8S11104   1.184   2.243   9.841 -1.4916 -1.3738  0.5133
  108OSM    H8T11105   1.227   2.088   9.774  2.0584 -1.7926 -0.4683
  108OSM    C9S11106   1.396   2.214   9.821  0.3448  0.1288  1.0255
  108OSM    H9S11107   1.472   2.137   9.797 -0.5065 -0.0903 -1.1359
  108OSM    H9T11108   1.427   2.287   9.899  1.4837 -0.6897  1.3571
  108OSM   C10S11109   1.406   2.287   9.689  0.5416  0.4586 -0.1612
  108OSM   H10S11110   1.509   2.328   9.685  0.9357 -0.1970  1.8768
  108OSM   H10T11111   1.332   2.370   9.698  0.4012  0.1579  1.8972
  108OSM   C11S11112   1.377   2.207   9.562  0.6374 -0.2443  0.4083
  108OSM   H11S11113   1.274   2.166   9.569  0.4241  0.4262  1.4165
  108OSM   H11T11114   1.442   2.117   9.560 -0.3660 -0.9779 -1.4173
  108OSM   C12S11115   1.392   2.287   9.428  0.0459 -0.1409 -0.4845
  108OSM   H12S11116   1.489   2.338   9.412  0.1618 -0.8306 -2.1864
  108OSM   H12T11117   1.316   2.368   9.429  0.3206  0.1528 -1.9552
  108OSM   C13S11118   1.361   2.195   9.311  0.1596 -0.1868  0.8022
  108OSM   H13S11119   1.250   2.195   9.300  0.4308 -0.5226 -3.4281
  108OSM   H13T11120   1.391   2.090   9.334  0.0051 -0.6730 -1.0548
  108OSM   C14S11121   1.436   2.230   9.182  1.0625  0.7373  0.2462
  108OSM   H14S11122   1.545   2.237   9.206  1.2761 -0.2936 -0.3729
  108OSM   H14T11123   1.411   2.331   9.145  1.7037  0.2266 -1.6612
  108OSM   C15S11124   1.396   2.132   9.065 -0.3410 -0.3694 -0.3066
  108OSM   H15S11125   1.289   2.101   9.066 -0.3054 -0.5310  1.4895
  108OSM   H15T11126   1.453   2.038   9.081  2.0105  1.0266  0.0113
  108OSM   C16S11127   1.435   2.199   8.930 -0.8259  0.5213 -0.4686
  108OSM   H16S11128   1.445   2.116   8.857  0.9049 -1.2039  1.6039
  108OSM   H16T11129   1.533   2.250   8.926  0.7341 -2.1394  1.1177
  108OSM   C17S11130   1.316   2.285   8.885 -0.8386 -0.8184 -0.2971
  108OSM   H17S11131   1.283   2.349   8.970 -0.7710 -0.4842 -0.5184
  108OSM   H17T11132   1.236   2.214   8.859 -0.2085 -1.3532 -0.7899
  108OSM   C18S11133   1.354   2.376   8.768  0.1743  0.1012  0.5775
  108OSM   H18S11134   1.399   2.309   8.691  1.4786  0.5438  0.9302
  108OSM   H18T11135   1.430   2.452   8.796  1.2260 -1.0839  1.0259
  108OSM   H18U11136   1.261   2.423   8.730  1.6673  3.9691  1.3097
  108OSM    C1F11137   1.291   2.268  10.437  0.5331 -0.4009 -0.0166
  108OSM     OF11138   1.401   2.268  10.489 -0.7355  0.4331 -0.3680
  108OSM    C2F11139   1.225   2.393  10.390  0.2428  0.2502  0.9724
  108OSM    H2F11140   1.174   2.434  10.480  0.8391  0.2664  1.3108
  108OSM    H2G11141   1.156   2.366  10.307 -0.6710  1.5308  1.2848
  108OSM    C3F11142   1.314   2.504  10.332 -0.2199  0.6731  0.1165
  108OSM    H3F11143   1.407   2.516  10.392  0.9731  2.2319 -1.8934
  108OSM    H3G11144   1.259   2.600  10.344 -1.2657  0.1757 -0.5562
  108OSM    C4F11145   1.345   2.478  10.180 -0.2268 -0.1986  0.2249
  108OSM    H4F11146   1.245   2.478  10.133 -0.2672 -0.3508  0.3105
  108OSM    H4G11147   1.393   2.378  10.173  0.0401 -0.1748  1.5356
  108OSM    C5F11148   1.423   2.598  10.121 -0.3775  0.4139 -0.1130
  108OSM    H5F11149   1.501   2.634  10.191  0.1258 -0.0765 -0.4191
  108OSM    H5G11150   1.362   2.690  10.110 -1.0433 -0.2406 -2.5292
  108OSM    C6F11151   1.495   2.562   9.988  0.5326 -0.3489  0.4626
  108OSM    H6F11152   1.423   2.530   9.909 -0.0473  1.4287  0.2136
  108OSM    H6G11153   1.562   2.477  10.010  1.2107 -0.0962 -0.5786
  108OSM    C7F11154   1.595   2.666   9.936  0.2411 -0.3752 -0.1630
  108OSM    H7F11155   1.635   2.622   9.842  1.5248 -1.8370  1.0169
  108OSM    H7G11156   1.689   2.672   9.995 -1.0267 -0.6981  2.0058
  108OSM    C8F11157   1.534   2.806   9.920  1.2961 -0.9788  0.3567
  108OSM    H8F11158   1.620   2.868   9.889  0.6631 -0.4176 -0.3181
  108OSM    H8G11159   1.488   2.845  10.014 -0.1749 -1.1566 -0.2620
  108OSM    C9F11160   1.431   2.816   9.810 -0.3879 -0.7645 -0.2044
  108OSM    H9F11161   1.327   2.790   9.836 -0.2723  0.0951  1.2419
  108OSM   C10F11162   1.453   2.860   9.682 -0.3896  0.5015 -0.0245
  108OSM   H10F11163   1.367   2.872   9.614  1.0378  0.4986 -1.9093
  108OSM   C11F11164   1.589   2.886   9.613 -0.0061  0.1413 -0.0088
  108OSM   H11F11165   1.638   2.789   9.592 -0.3835  0.0280 -0.3746
  108OSM   H11G11166   1.654   2.951   9.676 -0.7872  0.0442  0.9243
  108OSM   C12F11167   1.572   2.958   9.481  0.4248  0.0144 -0.0208
  108OSM   H12F11168   1.668   3.003   9.448  0.2235  2.0604  1.9713
  108OSM   H12G11169   1.502   3.044   9.489 -0.2541 -0.5527  0.3163
  108OSM   C13F11170   1.526   2.858   9.377 -0.4081  0.1202 -0.4710
  108OSM   H13F11171   1.494   2.918   9.290 -0.7926  1.1810  0.3818
  108OSM   H13G11172   1.441   2.797   9.415 -1.1875 -0.7913 -3.4036
  108OSM   C14F11173   1.635   2.770   9.319 -0.8776 -0.8528  0.2671
  108OSM   H14F11174   1.671   2.703   9.401 -1.3228  0.8556  1.9312
  108OSM   H14G11175   1.718   2.840   9.294  2.0526 -4.2180 -0.1529
  108OSM   C15F11176   1.588   2.691   9.192 -0.4322 -0.4279 -0.4642
  108OSM   H15F11177   1.588   2.762   9.107 -1.8012 -0.0849 -0.1920
  108OSM   H15G11178   1.482   2.664   9.209 -1.9770  4.0530 -1.6012
  108OSM   C16F11179   1.684   2.574   9.172 -0.0879 -0.2654 -0.6815
  108OSM   H16F11180   1.678   2.486   9.240  1.8240 -0.7115 -1.0277
  108OSM   H16G11181   1.792   2.601   9.177  0.4394 -1.8631 -2.3311
  108OSM   C17F11182   1.659   2.525   9.031 -0.3922 -0.1705  0.1990
  108OSM   H17F11183   1.687   2.607   8.961  0.8345 -1.1328 -0.4819
  108OSM   H17G11184   1.550   2.510   9.016 -0.6360  0.5341  1.1373
  108OSM   C18F11185   1.738   2.406   8.994 -0.1705 -0.1472 -0.0980
  108OSM   H18F11186   1.702   2.319   9.053  1.4475 -0.0055  1.1830
  108OSM   H18G11187   1.845   2.412   9.024 -0.2666  2.3375 -0.0649
  108OSM   H18H11188   1.720   2.373   8.889 -0.3604  1.4301 -0.5841
  109OSM      N11189   1.596   4.010  10.814  0.0252  0.1564 -0.3986
  109OSM    C1511190   1.732   3.963  10.826  0.1130  0.4101 -0.1865
  109OSM   H15A11191   1.804   4.042  10.836  0.2631  0.5022 -1.7533
  109OSM   H15B11192   1.773   3.911  10.741  2.4109  0.8557  0.6004
  109OSM   H15C11193   1.732   3.906  10.917  0.6609 -0.5712 -0.7831
  109OSM    C1411194   1.501   3.895  10.831 -0.0014  1.2209  0.1702
  109OSM   H14A11195   1.501   3.858  10.933 -1.0790 -0.9086 -0.5336
  109OSM   H14B11196   1.541   3.817  10.768  2.7222  0.6284  2.3994
  109OSM   H14C11197   1.398   3.912  10.802 -0.0658 -0.8270 -1.0035
  109OSM    C1311198   1.581   4.109  10.923 -0.4218 -0.2630  0.0122
  109OSM   H13A11199   1.592   4.068  11.022 -0.3565 -1.0342 -0.3114
  109OSM   H13B11200   1.479   4.142  10.932  0.2831  1.8629  1.1491
  109OSM   H13C11201   1.638   4.199  10.902  0.9348 -1.2418 -0.7187
  109OSM    C1211202   1.580   4.076  10.679  0.3553 -0.0138 -0.2667
  109OSM   H12A11203   1.611   4.000  10.609 -1.4233 -0.6521 -0.4016
  109OSM   H12B11204   1.649   4.159  10.670 -1.6819  1.6501 -1.4926
  109OSM    C1111205   1.449   4.127  10.626  0.4901 -0.2687 -0.0172
  109OSM   H11A11206   1.372   4.048  10.631 -1.1392  1.2719  0.2501
  109OSM   H11B11207   1.462   4.154  10.519  0.2026 -2.1831 -0.5642
  109OSM      P11208   1.464   4.389  10.653 -0.1375  0.1951  0.1378
  109OSM    O1311209   1.361   4.488  10.684  0.4120  0.6578  0.1050
  109OSM    O1411210   1.601   4.419  10.704  0.3294 -0.0886  0.4114
  109OSM    O1111211   1.469   4.384  10.491 -0.7537 -0.2503  0.1487
  109OSM    O1211212   1.413   4.244  10.705  0.1402  0.1366  0.1636
  109OSM    C1S11213   1.558   4.478  10.430 -0.5825  0.7133  0.1568
  109OSM    H1S11214   1.659   4.482  10.475 -0.8020  1.5819  0.5763
  109OSM    H1T11215   1.523   4.583  10.438 -1.2972  0.5538 -0.6849
  109OSM     NF11216   1.664   4.575  10.215  0.7002 -0.0965 -0.5070
  109OSM    HNF11217   1.603   4.650  10.190  2.2462  2.8437  3.4870
  109OSM    C2S11218   1.578   4.465  10.271 -0.0919 -0.3757  0.3988
  109OSM    H2S11219   1.630   4.368  10.255 -0.9075 -1.3148  2.9065
  109OSM    C3S11220   1.438   4.460  10.206 -0.1440 -0.6265  0.1361
  109OSM    H3S11221   1.396   4.559  10.234  0.6186  0.8608 -3.3543
  109OSM     O311222   1.356   4.360  10.255 -0.4652 -0.1692  0.2162
  109OSM    HO311223   1.404   4.340  10.335  1.4721  0.6616 -0.6857
  109OSM    C4S11224   1.459   4.444  10.058 -0.1424  0.3856 -0.0914
  109OSM    H4S11225   1.492   4.347  10.016  0.6499  1.2784 -1.6214
  109OSM    C5S11226   1.443   4.546   9.976  0.1941 -0.2240  0.4998
  109OSM    H5S11227   1.429   4.646  10.020 -0.8923  0.6476 -1.6573
  109OSM    C6S11228   1.458   4.539   9.823  0.6386 -0.3828  0.4006
  109OSM    H6S11229   1.444   4.432   9.796 -1.6960 -0.1761  0.6096
  109OSM    H6T11230   1.559   4.574   9.794 -0.2002  3.4392  1.5313
  109OSM    C7S11231   1.345   4.620   9.749  0.6227 -0.0730 -0.1839
  109OSM    H7S11232   1.332   4.723   9.790 -1.6175  1.0726 -3.3920
  109OSM    H7T11233   1.241   4.584   9.763  0.3905 -0.0927 -1.8282
  109OSM    C8S11234   1.372   4.615   9.598 -0.0380  0.5915 -0.0543
  109OSM    H8S11235   1.377   4.509   9.566  0.2903  1.0311 -1.5476
  109OSM    H8T11236   1.469   4.666   9.578 -0.3018  0.3845 -2.0477
  109OSM    C9S11237   1.261   4.685   9.521 -0.2385  0.0608  0.3367
  109OSM    H9S11238   1.248   4.792   9.547  0.4819 -0.0409  1.1445
  109OSM    H9T11239   1.167   4.630   9.545 -1.4334  1.4578 -0.9171
  109OSM   C10S11240   1.285   4.691   9.364 -0.9474 -0.3731 -0.0588
  109OSM   H10S11241   1.313   4.589   9.332  1.8416 -0.2902  1.7871
  109OSM   H10T11242   1.375   4.755   9.350  0.4604 -2.2151  0.2323
  109OSM   C11S11243   1.164   4.741   9.288  0.5490 -0.3776  0.1010
  109OSM   H11S11244   1.155   4.851   9.302  1.7648 -0.3666  0.9282
  109OSM   H11T11245   1.082   4.688   9.341  0.7368  0.3020  1.1082
  109OSM   C12S11246   1.160   4.695   9.143  0.3271  0.4728  0.6200
  109OSM   H12S11247   1.078   4.736   9.081  0.3656 -0.6001 -0.1828
  109OSM   H12T11248   1.145   4.585   9.153  0.7889  0.3592  0.1202
  109OSM   C13S11249   1.284   4.719   9.059 -0.1519  0.0759  0.1113
  109OSM   H13S11250   1.260   4.673   8.961 -2.4992 -1.2252  1.2149
  109OSM   H13T11251   1.372   4.668   9.104  0.2537 -1.9138 -2.6830
  109OSM   C14S11252   1.318   4.871   9.037 -0.1670 -0.1064  0.8229
  109OSM   H14S11253   1.424   4.876   9.002  0.4647 -3.9710  1.7018
  109OSM   H14T11254   1.309   4.915   9.139 -2.0033 -0.8859  1.0295
  109OSM   C15S11255   1.229   4.929   8.926  0.1071 -0.1049 -1.1000
  109OSM   H15S11256   1.131   4.935   8.979 -0.8751 -0.0232 -2.8483
  109OSM   H15T11257   1.228   4.858   8.841 -0.4248  0.6836 -1.7762
  109OSM   C16S11258   1.265   5.064   8.866  0.1653 -0.0935  0.5305
  109OSM   H16S11259   1.312   5.127   8.945  2.2162 -2.0664  0.9908
  109OSM   H16T11260   1.176   5.109   8.818  0.6029 -0.1155 -0.3274
  109OSM   C17S11261   1.374   5.052   8.753 -0.1086 -0.0901 -0.0388
  109OSM   H17S11262   1.342   4.972   8.683 -0.5285  0.0101  0.0346
  109OSM   H17T11263   1.471   5.030   8.803 -0.7750  1.1382  1.9285
  109OSM   C18S11264   1.394   5.176   8.666  0.8971  0.0953 -0.0110
  109OSM   H18S11265   1.293   5.196   8.626  0.8834 -0.0023 -0.0233
  109OSM   H18T11266   1.453   5.153   8.575 -1.5664 -2.5490 -1.0650
  109OSM   H18U11267   1.428   5.265   8.724  0.9714  0.3113 -0.3848
  109OSM    C1F11268   1.798   4.573  10.221 -0.4228 -0.7808  0.7411
  109OSM     OF11269   1.867   4.483  10.271 -0.2338  0.4330 -0.1374
  109OSM    C2F11270   1.867   4.702  10.186 -0.0218 -0.0175 -0.0529
  109OSM    H2F11271   1.939   4.738  10.262 -0.3338  3.3921 -1.2069
  109OSM    H2G11272   1.792   4.784  10.182  1.0479  1.1921  2.3294
  109OSM    C3F11273   1.937   4.693  10.048  0.5479 -0.3174  0.6573
  109OSM    H3F11274   2.006   4.605  10.048  1.9408  0.6602 -2.3483
  109OSM    H3G11275   1.999   4.784  10.038  0.2061 -0.1768 -0.2224
  109OSM    C4F11276   1.847   4.685   9.921 -0.0183 -0.5615 -1.2261
  109OSM    H4F11277   1.799   4.784   9.906  2.2996  0.8511  0.0718
  109OSM    H4G11278   1.763   4.613   9.933 -1.4501  1.2127 -0.2468
  109OSM    C5F11279   1.927   4.643   9.797 -0.9341 -0.5576 -0.4122
  109OSM    H5F11280   1.967   4.540   9.814  0.2917 -0.0549 -0.1460
  109OSM    H5G11281   2.017   4.707   9.805 -0.1579 -1.5218 -1.2049
  109OSM    C6F11282   1.864   4.660   9.671  0.4020 -0.0861  0.2125
  109OSM    H6F11283   1.854   4.767   9.643  0.1430  0.0917  0.9465
  109OSM    H6G11284   1.757   4.628   9.669  0.4339 -0.1690 -0.1582
  109OSM    C7F11285   1.940   4.587   9.557 -0.0866  0.5710 -0.8632
  109OSM    H7F11286   1.918   4.479   9.572  0.6704  0.3743 -1.0837
  109OSM    H7G11287   2.048   4.615   9.555 -0.5922  2.9301  0.9822
  109OSM    C8F11288   1.882   4.634   9.422 -0.5537  0.3711 -0.1313
  109OSM    H8F11289   1.959   4.638   9.343 -0.4374  2.3210  0.0323
  109OSM    H8G11290   1.873   4.745   9.432 -0.3913  0.3611  0.1519
  109OSM    C9F11291   1.739   4.582   9.386  0.1226 -0.4500  0.0996
  109OSM    H9F11292   1.673   4.547   9.467 -2.4583  0.8241 -1.3071
  109OSM   C10F11293   1.679   4.594   9.266 -0.6474  0.3917 -0.2181
  109OSM   H10F11294   1.580   4.548   9.255 -0.5607  0.1083  0.1685
  109OSM   C11F11295   1.747   4.660   9.149 -0.0799  0.5872 -0.1938
  109OSM   H11F11296   1.818   4.585   9.108 -1.8378 -1.1446 -0.2463
  109OSM   H11G11297   1.804   4.748   9.186 -1.6185  0.6203  2.3630
  109OSM   C12F11298   1.670   4.705   9.024  0.3819  0.2687  0.2696
  109OSM   H12F11299   1.617   4.796   9.062 -1.4492 -1.4199  2.0070
  109OSM   H12G11300   1.605   4.624   8.984 -0.2482 -0.0814  1.9400
  109OSM   C13F11301   1.778   4.744   8.921 -0.2005  0.1202 -0.1900
  109OSM   H13F11302   1.823   4.647   8.890 -4.3084 -2.4494  1.1401
  109OSM   H13G11303   1.854   4.805   8.974 -0.8080 -0.0109  0.8769
  109OSM   C14F11304   1.733   4.812   8.796  0.5641 -0.5452  0.2242
  109OSM   H14F11305   1.706   4.919   8.812 -1.1505 -0.9007 -0.1331
  109OSM   H14G11306   1.637   4.765   8.766 -0.4582 -0.2682  2.7677
  109OSM   C15F11307   1.825   4.796   8.683 -0.1531 -0.5161 -0.0917
  109OSM   H15F11308   1.846   4.689   8.663 -0.8608 -0.6563 -0.0904
  109OSM   H15G11309   1.918   4.851   8.710 -0.6069  0.9280 -1.3714
  109OSM   C16F11310   1.772   4.847   8.544  0.1595  0.4316  0.3033
  109OSM   H16F11311   1.678   4.794   8.520  0.7683 -0.3356 -0.4270
  109OSM   H16G11312   1.850   4.814   8.472 -0.6774 -0.2645 -0.3090
  109OSM   C17F11313   1.739   4.992   8.537 -0.2407  0.1819 -0.3957
  109OSM   H17F11314   1.822   5.053   8.578 -0.1782 -0.2518  0.1432
  109OSM   H17G11315   1.646   5.013   8.595  0.0203  1.6954 -0.4848
  109OSM   C18F11316   1.713   5.041   8.398 -1.0052  0.4151 -0.5463
  109OSM   H18F11317   1.672   5.144   8.409 -0.3119  0.6716 -0.3091
  109OSM   H18G11318   1.646   4.982   8.332 -1.0279  0.9657 -1.0326
  109OSM   H18H11319   1.811   5.041   8.346 -0.5261 -2.1748  0.2186
  110OSM      N11320   3.424   6.449  10.821  0.2538 -0.2702  0.7830
  110OSM    C1511321   3.570   6.454  10.853  0.5452 -0.0524  0.5474
  110OSM   H15A11322   3.608   6.542  10.902  2.0289 -1.3771  1.8629
  110OSM   H15B11323   3.636   6.429  10.771 -0.3484  2.6769 -1.1454
  110OSM   H15C11324   3.589   6.388  10.936  0.2239  1.0761  1.5413
  110OSM    C1411325   3.335   6.459  10.944  0.0091 -0.1017  0.3099
  110OSM   H14A11326   3.356   6.543  11.009  0.2652  1.2691 -1.4718
  110OSM   H14B11327   3.328   6.370  11.004  0.2224 -0.4258 -0.1392
  110OSM   H14C11328   3.238   6.488  10.905  0.1173 -2.4503 -1.9411
  110OSM    C1311329   3.401   6.580  10.741  0.3069 -0.0621 -0.5408
  110OSM   H13A11330   3.393   6.666  10.806 -5.2223  0.4885 -1.4515
  110OSM   H13B11331   3.308   6.566  10.687  0.8764 -1.1109 -1.2758
  110OSM   H13C11332   3.474   6.596  10.664 -0.3645  2.4465 -0.7431
  110OSM    C1211333   3.395   6.324  10.736  0.6889  0.2250  0.0714
  110OSM   H12A11334   3.448   6.327  10.642  2.0231 -1.3824  0.7350
  110OSM   H12B11335   3.293   6.325  10.701  1.3410  1.8814 -1.9837
  110OSM    C1111336   3.429   6.188  10.802  0.1867  1.1616 -0.6202
  110OSM   H11A11337   3.538   6.169  10.811 -0.1748 -1.5064 -0.8374
  110OSM   H11B11338   3.391   6.098  10.748  1.1455  0.4765 -0.1845
  110OSM      P11339   3.426   6.085  11.042 -0.2305  0.3225 -0.6979
  110OSM    O1311340   3.566   6.105  11.076 -0.2045  0.6795 -0.2333
  110OSM    O1411341   3.334   6.084  11.157  0.0600 -0.0347  0.0444
  110OSM    O1111342   3.415   5.946  10.963  0.7150  0.0825 -0.4474
  110OSM    O1211343   3.376   6.186  10.935 -0.3637 -0.0103  0.6113
  110OSM    C1S11344   3.299   5.899  10.894  0.4127 -0.4006  0.0908
  110OSM    H1S11345   3.226   5.980  10.873 -1.8536 -2.0761  1.0566
  110OSM    H1T11346   3.250   5.833  10.969  0.1724  0.0559  0.3420
  110OSM     NF11347   3.224   5.797  10.676 -0.2186  0.4576 -0.0406
  110OSM    HNF11348   3.183   5.707  10.689  0.0962  0.5470  1.8520
  110OSM    C2S11349   3.345   5.827  10.759  0.2455 -0.5585 -0.3976
  110OSM    H2S11350   3.410   5.895  10.700 -0.0889 -0.0989 -0.2379
  110OSM    C3S11351   3.443   5.707  10.778  0.7765  0.5681 -0.1349
  110OSM    H3S11352   3.381   5.625  10.819  0.1132  0.6668 -0.9025
  110OSM     O311353   3.547   5.741  10.873 -0.0404  0.3395  0.0591
  110OSM    HO311354   3.513   5.821  10.914  0.5335  0.4717  0.2824
  110OSM    C4S11355   3.494   5.651  10.651  0.1791 -0.2502 -0.2164
  110OSM    H4S11356   3.452   5.552  10.629  0.3806 -0.0012 -1.8707
  110OSM    C5S11357   3.608   5.690  10.587  0.2199 -0.0374  0.7597
  110OSM    H5S11358   3.676   5.760  10.637  0.4500 -0.0724  0.5017
  110OSM    C6S11359   3.672   5.632  10.464  0.1641 -0.0283 -0.5603
  110OSM    H6S11360   3.615   5.542  10.435 -1.7556  0.9356  0.0111
  110OSM    H6T11361   3.776   5.604  10.491 -0.0612  1.3320  2.1433
  110OSM    C7S11362   3.686   5.714  10.329 -0.2002  0.5162  0.1609
  110OSM    H7S11363   3.769   5.785  10.349  0.4954 -0.2496  0.0732
  110OSM    H7T11364   3.592   5.770  10.315  0.0731  0.3013 -3.2305
  110OSM    C8S11365   3.733   5.630  10.203 -0.0838 -0.0694 -0.0336
  110OSM    H8S11366   3.655   5.551  10.199  1.0758 -1.2403 -0.3033
  110OSM    H8T11367   3.827   5.577  10.228 -0.6404 -1.8314 -1.4397
  110OSM    C9S11368   3.750   5.712  10.078 -0.1894 -0.1295  0.1079
  110OSM    H9S11369   3.839   5.776  10.095  0.5089 -1.0655  0.0921
  110OSM    H9T11370   3.665   5.783  10.073  0.5256  0.8051  0.9750
  110OSM   C10S11371   3.782   5.643   9.949  0.2659  0.2440  0.3630
  110OSM   H10S11372   3.707   5.567   9.918  0.6234 -0.4614  1.1755
  110OSM   H10T11373   3.879   5.592   9.968 -0.1079 -0.6776 -0.1121
  110OSM   C11S11374   3.804   5.748   9.842 -0.0468  0.8306  0.0821
  110OSM   H11S11375   3.901   5.799   9.860  1.1231 -0.9525 -0.8692
  110OSM   H11T11376   3.723   5.824   9.843 -0.3344  0.5252  1.6520
  110OSM   C12S11377   3.810   5.688   9.707  0.4084  0.5510 -0.3270
  110OSM   H12S11378   3.713   5.642   9.678 -0.7966  2.1079  1.0449
  110OSM   H12T11379   3.890   5.610   9.705 -1.2431 -1.1938 -0.7059
  110OSM   C13S11380   3.838   5.780   9.590 -0.0167 -0.1611 -0.0567
  110OSM   H13S11381   3.940   5.822   9.605  0.6143 -2.2688  2.4577
  110OSM   H13T11382   3.766   5.864   9.588  0.2235  0.0347 -0.6434
  110OSM   C14S11383   3.834   5.700   9.455 -0.0072  0.0044  0.4718
  110OSM   H14S11384   3.740   5.641   9.447 -0.8369  1.1108  1.6461
  110OSM   H14T11385   3.919   5.628   9.457 -1.0279 -1.2373  0.9180
  110OSM   C15S11386   3.860   5.787   9.339 -0.6700  0.3862 -0.1983
  110OSM   H15S11387   3.949   5.850   9.359  1.0552 -1.6321 -1.0864
  110OSM   H15T11388   3.777   5.857   9.316  1.6275  2.8826 -1.5938
  110OSM   C16S11389   3.887   5.710   9.207  0.8714  0.1264  0.3221
  110OSM   H16S11390   3.800   5.643   9.187  0.3909  1.0611 -0.8498
  110OSM   H16T11391   3.977   5.646   9.218  2.7611  2.5505 -0.3070
  110OSM   C17S11392   3.910   5.793   9.078 -0.7764 -0.4462 -0.2278
  110OSM   H17S11393   3.827   5.866   9.074  0.1737  0.6005 -1.5755
  110OSM   H17T11394   3.900   5.731   8.987  1.0818 -0.3535 -0.5474
  110OSM   C18S11395   4.043   5.871   9.066 -0.2614 -0.1422 -0.4997
  110OSM   H18S11396   4.078   5.882   8.961  0.1776 -1.6323 -0.5324
  110OSM   H18T11397   4.122   5.820   9.125 -0.3745  0.0970 -0.1381
  110OSM   H18U11398   4.036   5.969   9.118  1.2055 -1.3312  2.0885
  110OSM    C1F11399   3.162   5.893  10.619  0.5836 -0.1688 -0.8802
  110OSM     OF11400   3.207   6.005  10.629 -0.4347  0.1968  0.1459
  110OSM    C2F11401   3.029   5.865  10.559 -0.2038  0.3693  0.5865
  110OSM    H2F11402   2.945   5.885  10.628 -0.1765 -0.2016  0.7929
  110OSM    H2G11403   3.017   5.762  10.519  1.9139  1.0238 -1.9962
  110OSM    C3F11404   3.011   5.947  10.428 -0.0733 -0.3545 -0.9363
  110OSM    H3F11405   3.025   6.055  10.451 -1.2400 -0.3070 -0.3765
  110OSM    H3G11406   2.907   5.940  10.390 -0.1228 -2.7221 -0.5078
  110OSM    C4F11407   3.105   5.903  10.307  0.8014  0.0305  0.3551
  110OSM    H4F11408   3.068   5.813  10.253 -0.2972  1.1473 -0.8071
  110OSM    H4G11409   3.189   5.853  10.361  0.0206 -0.1032  1.4973
  110OSM    C5F11410   3.157   6.018  10.215 -0.4008  0.8274 -0.3492
  110OSM    H5F11411   3.186   6.103  10.280 -1.0336  1.6536 -1.1200
  110OSM    H5G11412   3.072   6.053  10.152  0.7951 -0.3676 -2.7920
  110OSM    C6F11413   3.263   5.963  10.113 -0.2100 -0.2066 -0.3229
  110OSM    H6F11414   3.215   5.891  10.044 -1.0293  0.1329 -0.1162
  110OSM    H6G11415   3.346   5.909  10.164 -0.2716  0.2863  0.3161
  110OSM    C7F11416   3.325   6.088  10.038  0.1965  0.4975 -0.4417
  110OSM    H7F11417   3.377   6.159  10.106 -1.3739 -0.4270  1.8586
  110OSM    H7G11418   3.251   6.147   9.980 -2.1582 -2.5864 -0.8549
  110OSM    C8F11419   3.418   6.047   9.921 -0.6055 -0.3132  0.5171
  110OSM    H8F11420   3.496   5.983   9.968  0.2467 -0.8734 -1.5620
  110OSM    H8G11421   3.452   6.151   9.900 -0.8418 -0.1771  0.7918
  110OSM    C9F11422   3.351   5.974   9.803 -0.1154 -0.0481 -0.0307
  110OSM    H9F11423   3.264   5.912   9.828  0.5764 -1.8968 -1.8475
  110OSM   C10F11424   3.375   5.986   9.670 -0.5331  0.6152  0.3660
  110OSM   H10F11425   3.309   5.934   9.599 -0.0684 -0.0497  0.4031
  110OSM   C11F11426   3.478   6.072   9.609  0.1433 -0.3884  0.1407
  110OSM   H11F11427   3.573   6.021   9.636  0.2334  0.2089  1.0003
  110OSM   H11G11428   3.469   6.176   9.647 -0.6210 -0.9112  1.4455
  110OSM   C12F11429   3.473   6.086   9.457 -0.1509 -0.9084  0.3275
  110OSM   H12F11430   3.563   6.148   9.435  0.1708 -0.7834  1.8545
  110OSM   H12G11431   3.380   6.141   9.432  2.0860  1.6070 -3.4681
  110OSM   C13F11432   3.468   5.960   9.370 -0.8328  0.2736  0.7347
  110OSM   H13F11433   3.376   5.903   9.395 -0.5241 -1.2448 -1.3595
  110OSM   H13G11434   3.551   5.895   9.405  0.0782  2.0180  2.0124
  110OSM   C14F11435   3.496   5.987   9.221  0.2829  0.2542 -0.0136
  110OSM   H14F11436   3.505   5.884   9.181 -1.0110  0.5366 -1.0795
  110OSM   H14G11437   3.593   6.038   9.200 -0.1476  0.2551 -2.1802
  110OSM   C15F11438   3.382   6.052   9.155  0.3798  0.5145  0.4411
  110OSM   H15F11439   3.377   6.156   9.195  1.8308  0.0263  2.0169
  110OSM   H15G11440   3.292   5.995   9.186  1.3382 -1.0990  0.3992
  110OSM   C16F11441   3.395   6.038   9.002 -0.2238  0.4179 -0.2656
  110OSM   H16F11442   3.397   5.930   8.980  1.1704  0.3607  0.0337
  110OSM   H16G11443   3.488   6.092   8.971  0.1193 -0.2032 -0.3210
  110OSM   C17F11444   3.276   6.096   8.925  0.2332 -0.0813  0.3416
  110OSM   H17F11445   3.279   6.206   8.912 -2.3350  0.1448  1.0375
  110OSM   H17G11446   3.184   6.072   8.982  0.6858  0.6821  1.4230
  110OSM   C18F11447   3.255   6.022   8.791 -0.3113  0.3335 -0.4703
  110OSM   H18F11448   3.330   6.065   8.721  0.4966  0.3523  0.3884
  110OSM   H18G11449   3.162   6.055   8.741  0.4931  1.6332 -1.1753
  110OSM   H18H11450   3.281   5.915   8.804  1.3518  0.8587  0.9456
  111OSM      N11451   3.457   1.578  10.834 -0.0948  0.2410 -0.2494
  111OSM    C1511452   3.568   1.480  10.849 -0.4066  0.0801 -0.4085
  111OSM   H15A11453   3.584   1.441  10.948  0.0484 -1.8078 -1.1682
  111OSM   H15B11454   3.662   1.518  10.811 -0.8571  0.0763 -1.5681
  111OSM   H15C11455   3.551   1.391  10.790  0.9150  0.3022 -1.1664
  111OSM    C1411456   3.327   1.507  10.862 -0.1939  0.2804  0.3266
  111OSM   H14A11457   3.344   1.462  10.959  0.7873 -0.1591 -0.0287
  111OSM   H14B11458   3.304   1.439  10.782  0.0250  1.6062 -0.8962
  111OSM   H14C11459   3.252   1.579  10.892  0.1761  0.4340  0.8993
  111OSM    C1311460   3.463   1.683  10.942 -0.3536 -0.2841  0.3932
  111OSM   H13A11461   3.395   1.762  10.916  1.7498  1.4714 -0.0646
  111OSM   H13B11462   3.560   1.730  10.953 -0.2758  0.2608 -2.1504
  111OSM   H13C11463   3.444   1.639  11.039 -0.5695 -0.3381  0.3253
  111OSM    C1211464   3.452   1.645  10.695  0.5789  0.1315 -0.2722
  111OSM   H12A11465   3.448   1.566  10.622 -2.6394 -0.5123  0.4358
  111OSM   H12B11466   3.546   1.692  10.674  0.5704  0.5328  0.5361
  111OSM    C1111467   3.340   1.741  10.668 -0.8117  0.7484  0.6198
  111OSM   H11A11468   3.246   1.682  10.679  0.0857 -1.3395 -1.6977
  111OSM   H11B11469   3.340   1.771  10.561 -1.5404 -2.8599 -0.5729
  111OSM      P11470   3.226   1.929  10.820  0.0849 -0.2439 -0.4241
  111OSM    O1311471   3.192   1.856  10.945 -0.3090 -0.1699  0.2966
  111OSM    O1411472   3.258   2.073  10.832 -0.2557 -0.2145 -0.2081
  111OSM    O1111473   3.096   1.905  10.729  0.7500  0.5373 -0.0391
  111OSM    O1211474   3.342   1.850  10.752  0.1360 -0.1020 -0.5239
  111OSM    C1S11475   3.037   2.003  10.643 -0.1085  0.2827 -0.3078
  111OSM    H1S11476   3.083   2.101  10.663 -0.3775 -0.0546  2.3466
  111OSM    H1T11477   2.933   2.018  10.681 -0.5406  0.7196 -1.6038
  111OSM     NF11478   3.004   2.088  10.411 -0.1506  0.0699 -0.3303
  111OSM    HNF11479   2.913   2.088  10.371  0.2310 -0.2974 -1.2267
  111OSM    C2S11480   3.053   1.976  10.493  0.0510 -0.1338  1.1284
  111OSM    H2S11481   3.162   1.976  10.471 -0.2809 -1.4572 -0.7797
  111OSM    C3S11482   2.988   1.844  10.446 -0.3666 -0.6779  0.3706
  111OSM    H3S11483   2.877   1.845  10.452 -0.5089 -0.7182 -1.4958
  111OSM     O311484   3.035   1.727  10.520 -0.1173  0.4721  0.2627
  111OSM    HO311485   3.082   1.761  10.596  1.9625  0.1296 -0.7835
  111OSM    C4S11486   3.023   1.815  10.303  0.2326 -0.1466 -0.8810
  111OSM    H4S11487   3.132   1.817  10.292  0.4784  2.0408  1.0378
  111OSM    C5S11488   2.937   1.803  10.201  0.0430  0.2690 -0.3034
  111OSM    H5S11489   2.831   1.804  10.229 -0.3360  1.2807 -1.6460
  111OSM    C6S11490   2.987   1.774  10.061  0.4188 -0.2162  0.6996
  111OSM    H6S11491   3.098   1.782  10.054  0.2350  3.0169 -0.0304
  111OSM    H6T11492   2.947   1.847   9.987  2.1901 -0.3190 -0.4244
  111OSM    C7S11493   2.936   1.634  10.012 -0.1285 -0.0796  0.1637
  111OSM    H7S11494   2.826   1.623  10.015 -0.3201  1.3401 -1.0153
  111OSM    H7T11495   2.973   1.561  10.088  3.3255  0.6897 -0.5961
  111OSM    C8S11496   2.986   1.598   9.867 -0.0415 -0.6213  0.0983
  111OSM    H8S11497   2.960   1.491   9.852  2.1202 -0.9423 -1.9345
  111OSM    H8T11498   3.096   1.612   9.855 -0.0576 -0.0841  0.5330
  111OSM    C9S11499   2.906   1.677   9.758 -0.4786  0.4413 -0.0106
  111OSM    H9S11500   2.947   1.780   9.762 -0.0201  0.2290  1.7760
  111OSM    H9T11501   2.801   1.669   9.793  0.0802  0.4294  1.7485
  111OSM   C10S11502   2.916   1.617   9.618  0.0084 -1.0909  0.4658
  111OSM   H10S11503   2.864   1.518   9.621 -0.4180 -0.8582  0.7441
  111OSM   H10T11504   3.015   1.584   9.579 -0.5121 -2.4862  0.2418
  111OSM   C11S11505   2.853   1.714   9.515 -0.3458  0.1688  0.3651
  111OSM   H11S11506   2.895   1.816   9.507  1.2654 -0.5069 -0.3565
  111OSM   H11T11507   2.757   1.730   9.568  0.9655  0.2130  2.9061
  111OSM   C12S11508   2.828   1.654   9.375 -0.1766  0.7038 -0.5147
  111OSM   H12S11509   2.800   1.548   9.393 -0.7964  0.9051 -0.2769
  111OSM   H12T11510   2.918   1.665   9.311 -0.5073 -0.3897 -1.1969
  111OSM   C13S11511   2.718   1.717   9.290  0.0224  0.4461  0.1466
  111OSM   H13S11512   2.747   1.823   9.270  0.6893  0.0497 -1.0959
  111OSM   H13T11513   2.625   1.716   9.350 -0.0676  2.7726  0.1527
  111OSM   C14S11514   2.697   1.642   9.148 -0.4719 -0.3579  0.1641
  111OSM   H14S11515   2.637   1.709   9.082 -0.2372 -1.6202 -1.3857
  111OSM   H14T11516   2.646   1.545   9.163 -0.0299 -1.1599 -2.8553
  111OSM   C15S11517   2.831   1.614   9.077  0.3687 -0.2917 -0.4639
  111OSM   H15S11518   2.896   1.548   9.139 -0.7262 -0.2248  0.7977
  111OSM   H15T11519   2.883   1.708   9.050 -1.4987  1.3973  1.4928
  111OSM   C16S11520   2.814   1.539   8.939  0.6559  0.3390  0.1276
  111OSM   H16S11521   2.770   1.438   8.956  0.3003  0.2837 -1.0490
  111OSM   H16T11522   2.919   1.528   8.905  0.5192  0.7416 -0.4253
  111OSM   C17S11523   2.730   1.613   8.835  0.6892  0.0750 -0.4527
  111OSM   H17S11524   2.785   1.703   8.799 -0.8216  1.1015 -0.3041
  111OSM   H17T11525   2.637   1.648   8.886  0.8884 -1.4893  1.0636
  111OSM   C18S11526   2.703   1.541   8.703 -0.2548  0.1498  0.5058
  111OSM   H18S11527   2.792   1.504   8.647 -1.6014 -0.3487 -1.4205
  111OSM   H18T11528   2.657   1.615   8.634  0.7880 -0.9197 -1.4237
  111OSM   H18U11529   2.628   1.465   8.732 -0.4649 -0.1921 -0.8825
  111OSM    C1F11530   3.057   2.210  10.406 -0.3399  0.2500 -1.1223
  111OSM     OF11531   3.169   2.228  10.445 -0.5969 -0.3357  0.2313
  111OSM    C2F11532   2.985   2.328  10.345 -0.2327 -0.0073  0.3102
  111OSM    H2F11533   2.981   2.422  10.405 -0.4514  2.1328 -2.8251
  111OSM    H2G11534   2.880   2.298  10.326 -0.2611  0.8819 -1.0878
  111OSM    C3F11535   3.053   2.355  10.213  0.6672  0.0290  0.0256
  111OSM    H3F11536   3.136   2.428  10.223  0.1085  0.5499  1.0852
  111OSM    H3G11537   2.974   2.416  10.163 -2.3840 -2.0050  2.0018
  111OSM    C4F11538   3.079   2.241  10.123  0.4096  0.0316 -0.0058
  111OSM    H4F11539   2.998   2.164  10.126  0.3252  0.0930 -0.5085
  111OSM    H4G11540   3.174   2.196  10.156 -0.0931 -0.6081  0.6070
  111OSM    C5F11541   3.100   2.281   9.976  0.0731 -0.3101 -0.1273
  111OSM    H5F11542   3.006   2.328   9.940  0.2960  1.5837  1.5492
  111OSM    H5G11543   3.118   2.187   9.921  1.1711  0.0093 -0.3264
  111OSM    C6F11544   3.227   2.370   9.952  0.5265 -0.1915  0.3483
  111OSM    H6F11545   3.318   2.314   9.982  1.0381 -1.4686 -3.0585
  111OSM    H6G11546   3.212   2.465  10.007  1.2906 -0.4401  1.0068
  111OSM    C7F11547   3.259   2.414   9.806  0.2718 -0.8387 -0.2178
  111OSM    H7F11548   3.355   2.470   9.817 -0.3018  0.6635 -2.2489
  111OSM    H7G11549   3.178   2.479   9.768  1.3422  1.0354  0.5372
  111OSM    C8F11550   3.259   2.294   9.719  0.1238  0.2345 -0.4506
  111OSM    H8F11551   3.154   2.276   9.686 -0.6519 -0.2624  2.1056
  111OSM    H8G11552   3.291   2.206   9.779 -1.6432  0.4234  0.8375
  111OSM    C9F11553   3.360   2.309   9.598  0.4170  0.0582  0.9187
  111OSM    H9F11554   3.450   2.246   9.602  0.0093 -0.4785  2.2108
  111OSM   C10F11555   3.340   2.376   9.481 -0.2281 -0.8309  0.4601
  111OSM   H10F11556   3.417   2.364   9.404 -0.1680  0.5788  0.2715
  111OSM   C11F11557   3.215   2.461   9.450  0.2553  0.0108 -0.3027
  111OSM   H11F11558   3.239   2.564   9.416  0.2396 -0.3223 -1.3706
  111OSM   H11G11559   3.143   2.454   9.534  0.5670 -0.9524 -0.1032
  111OSM   C12F11560   3.146   2.402   9.324  0.0316  0.1354 -0.1555
  111OSM   H12F11561   3.115   2.300   9.354 -0.7682  0.1601 -0.8680
  111OSM   H12G11562   3.224   2.398   9.245  1.6378 -3.0971  1.4221
  111OSM   C13F11563   3.023   2.476   9.277  0.5846 -0.5613  0.2788
  111OSM   H13F11564   2.979   2.515   9.371 -1.2960  0.5414 -1.0050
  111OSM   H13G11565   2.946   2.411   9.231  1.2999 -2.1064  1.1645
  111OSM   C14F11566   3.047   2.595   9.181 -0.5489 -0.2410  0.3148
  111OSM   H14F11567   3.130   2.657   9.219 -1.3217  3.0008 -2.7819
  111OSM   H14G11568   2.963   2.666   9.193 -0.1240  0.4042 -0.4632
  111OSM   C15F11569   3.048   2.569   9.027 -0.1986 -0.5706  0.2189
  111OSM   H15F11570   3.133   2.502   9.002  0.6518  0.2185  0.9521
  111OSM   H15G11571   3.074   2.673   8.996  0.7960 -0.4246  1.4919
  111OSM   C16F11572   2.910   2.528   8.972  0.3381 -0.1733  0.3753
  111OSM   H16F11573   2.839   2.610   8.991 -0.8397 -0.8425 -0.9439
  111OSM   H16G11574   2.865   2.448   9.035 -0.1314  1.6453  2.4251
  111OSM   C17F11575   2.909   2.496   8.825 -0.1453  0.1781  0.6791
  111OSM   H17F11576   2.976   2.408   8.821 -1.6811 -1.0329  0.9042
  111OSM   H17G11577   2.951   2.586   8.774 -2.1505  0.7149 -0.1075
  111OSM   C18F11578   2.775   2.482   8.760 -0.3067  0.4815 -0.6793
  111OSM   H18F11579   2.791   2.471   8.650 -1.0108 -1.4633 -0.6354
  111OSM   H18G11580   2.716   2.576   8.766  0.2903  0.9751 -2.1087
  111OSM   H18H11581   2.709   2.396   8.786 -3.4360  2.1770 -2.3894
  112OSM      N11582   4.114   4.552  11.257  0.9468 -0.7980  0.4237
  112OSM    C1511583   4.120   4.699  11.291 -0.2237  0.2754 -0.0205
  112OSM   H15A11584   4.115   4.719  11.397 -0.2930 -1.2084  0.2686
  112OSM   H15B11585   4.041   4.757  11.245  0.6635  3.3032  1.9655
  112OSM   H15C11586   4.206   4.752  11.253 -1.3841  1.0576 -1.6765
  112OSM    C1411587   4.226   4.477  11.322  0.3962  0.0291  0.2444
  112OSM   H14A11588   4.313   4.536  11.299  0.6555 -0.6488 -0.5627
  112OSM   H14B11589   4.233   4.377  11.282 -0.1488  1.1109 -2.8186
  112OSM   H14C11590   4.204   4.480  11.428 -1.1438  0.6031 -0.0712
  112OSM    C1311591   3.973   4.499  11.292 -0.6428 -0.2438  0.0508
  112OSM   H13A11592   3.918   4.523  11.202  0.4150 -0.1074 -0.5886
  112OSM   H13B11593   3.935   4.562  11.371 -0.6916  2.9151 -2.2954
  112OSM   H13C11594   3.974   4.394  11.315 -0.7549 -0.0300  1.0791
  112OSM    C1211595   4.127   4.551  11.100  0.1270 -0.4931  0.1334
  112OSM   H12A11596   4.222   4.597  11.077  0.3241 -1.1929 -0.4788
  112OSM   H12B11597   4.050   4.614  11.056  3.2071  3.3955 -0.1934
  112OSM    C1111598   4.116   4.415  11.029  0.1560 -0.3740 -0.5261
  112OSM   H11A11599   4.110   4.436  10.920  0.3096  3.1688  0.0241
  112OSM   H11B11600   4.023   4.379  11.079  0.6616  0.8887  1.4477
  112OSM      P11601   4.366   4.331  10.992 -0.1660  0.3047 -0.1237
  112OSM    O1311602   4.437   4.451  11.036 -0.1203 -0.7874  0.1449
  112OSM    O1411603   4.424   4.196  11.010  0.5051 -0.3896 -0.4715
  112OSM    O1111604   4.314   4.349  10.842 -0.7140 -0.2185 -0.1772
  112OSM    O1211605   4.222   4.324  11.063 -0.4756 -0.4721 -0.1212
  112OSM    C1S11606   4.241   4.257  10.772 -0.7478 -0.5989 -0.0120
  112OSM    H1S11607   4.136   4.246  10.807 -0.9581  0.4945 -0.2682
  112OSM    H1T11608   4.275   4.152  10.778 -1.0504 -0.6344  1.5703
  112OSM     NF11609   4.157   4.227  10.537 -0.2946  0.2855  0.2808
  112OSM    HNF11610   4.203   4.148  10.498  0.9902  0.9202  0.4280
  112OSM    C2S11611   4.244   4.301  10.622 -0.4086 -0.2787  0.5089
  112OSM    H2S11612   4.217   4.408  10.623  1.0380  0.0995  0.1197
  112OSM    C3S11613   4.397   4.284  10.575 -0.1065  0.5506 -0.1537
  112OSM    H3S11614   4.410   4.174  10.583 -3.3639  0.0294 -0.6164
  112OSM     O311615   4.493   4.357  10.652 -0.0380  0.2427  0.2226
  112OSM    HO311616   4.440   4.378  10.730 -0.7140  1.9349 -0.6306
  112OSM    C4S11617   4.401   4.318  10.429 -0.3071  0.5206 -0.7807
  112OSM    H4S11618   4.351   4.413  10.403 -1.2585  0.5556  1.0192
  112OSM    C5S11619   4.450   4.246  10.330 -0.7945 -0.1885  0.2839
  112OSM    H5S11620   4.498   4.153  10.366  0.2574  0.0014 -0.5671
  112OSM    C6S11621   4.457   4.268  10.185 -0.0859 -0.1056 -0.7632
  112OSM    H6S11622   4.379   4.202  10.141 -0.1197  0.6671 -1.9115
  112OSM    H6T11623   4.547   4.223  10.138 -0.1582  1.7748 -2.8998
  112OSM    C7S11624   4.431   4.414  10.126 -0.6433  0.1659  0.5141
  112OSM    H7S11625   4.478   4.411  10.025  0.4796 -1.6845  1.0439
  112OSM    H7T11626   4.482   4.498  10.179 -1.2550 -0.0204  1.4180
  112OSM    C8S11627   4.281   4.438  10.109  0.0828  0.3874 -0.3514
  112OSM    H8S11628   4.246   4.424  10.214 -1.3071  1.7557 -0.6103
  112OSM    H8T11629   4.240   4.359  10.042 -2.0000  0.6148  0.5725
  112OSM    C9S11630   4.241   4.573  10.062 -0.1291 -0.0501  0.1065
  112OSM    H9S11631   4.315   4.650  10.094  0.0569  0.4025 -1.3698
  112OSM    H9T11632   4.135   4.587  10.092 -0.6433 -1.6163 -0.8383
  112OSM   C10S11633   4.235   4.573   9.916 -0.4961  0.1546  0.2867
  112OSM   H10S11634   4.327   4.534   9.868 -0.4873  0.9516 -0.3675
  112OSM   H10T11635   4.223   4.681   9.890  2.1786  0.3304 -0.4785
  112OSM   C11S11636   4.112   4.508   9.860  0.2836  0.1170  0.0203
  112OSM   H11S11637   4.020   4.547   9.908 -0.3365 -1.2022 -0.0334
  112OSM   H11T11638   4.106   4.401   9.892  1.1003  0.6369  2.0832
  112OSM   C12S11639   4.105   4.513   9.708 -0.2968  0.1184  0.2181
  112OSM   H12S11640   4.182   4.444   9.668 -1.2561 -0.6376 -0.3680
  112OSM   H12T11641   4.125   4.616   9.670  0.9724 -0.0885  0.2683
  112OSM   C13S11642   3.974   4.457   9.647  0.1728  0.5516  0.2693
  112OSM   H13S11643   3.875   4.492   9.682 -0.3506  0.0999 -0.7093
  112OSM   H13T11644   3.980   4.347   9.666 -0.6876  0.2944 -0.8438
  112OSM   C14S11645   3.976   4.470   9.486  0.7743  0.1208 -0.4100
  112OSM   H14S11646   4.027   4.566   9.461 -0.2823  1.1791  1.3119
  112OSM   H14T11647   3.878   4.466   9.433  0.5599  0.2353 -0.0242
  112OSM   C15S11648   4.053   4.348   9.428 -0.5140  0.3108  0.0879
  112OSM   H15S11649   4.000   4.251   9.443  1.2194 -0.6786  0.1000
  112OSM   H15T11650   4.142   4.334   9.492  0.6323 -2.3431 -1.9109
  112OSM   C16S11651   4.095   4.356   9.278 -0.8591  0.0915 -0.4055
  112OSM   H16S11652   4.173   4.278   9.268 -0.3590  0.6251 -0.7855
  112OSM   H16T11653   4.130   4.460   9.260  0.1389  0.1705  1.6958
  112OSM   C17S11654   3.975   4.332   9.184 -0.1227 -0.3750  0.4529
  112OSM   H17S11655   4.013   4.318   9.080 -0.2501  0.6671  0.2565
  112OSM   H17T11656   3.928   4.432   9.176 -0.3379 -0.5544 -0.7726
  112OSM   C18S11657   3.876   4.219   9.212  0.5097  0.1205  0.4182
  112OSM   H18S11658   3.928   4.122   9.225 -1.3577 -1.1731 -1.0406
  112OSM   H18T11659   3.808   4.199   9.126  2.4367  1.0688 -1.4065
  112OSM   H18U11660   3.815   4.254   9.298  0.2620  0.3685  0.1459
  112OSM    C1F11661   4.025   4.252  10.533  0.5712  0.2629  0.5478
  112OSM     OF11662   3.976   4.331  10.611  0.3129  0.2110 -0.6908
  112OSM    C2F11663   3.943   4.176  10.425  0.5026  0.1787 -0.2636
  112OSM    H2F11664   3.946   4.067  10.448 -2.1476 -0.2354 -1.4555
  112OSM    H2G11665   3.993   4.191  10.327  0.5217  2.6452  0.0743
  112OSM    C3F11666   3.797   4.224  10.413  0.4111  0.2056 -0.1846
  112OSM    H3F11667   3.752   4.215  10.514 -1.4027 -2.3516 -1.1189
  112OSM    H3G11668   3.746   4.157  10.340  2.0369 -0.8797 -0.3738
  112OSM    C4F11669   3.773   4.359  10.351  0.3766  0.2595 -0.5458
  112OSM    H4F11670   3.826   4.438  10.407  1.3739  0.0165 -1.1306
  112OSM    H4G11671   3.665   4.386  10.358  0.1289 -1.0088  0.8270
  112OSM    C5F11672   3.795   4.366  10.205  0.1736 -0.6723  0.3622
  112OSM    H5F11673   3.871   4.287  10.185 -1.5836 -1.9460 -1.8248
  112OSM    H5G11674   3.838   4.462  10.169 -2.5627  0.1406 -1.0419
  112OSM    C6F11675   3.672   4.331  10.116  0.5215  0.6388  0.0617
  112OSM    H6F11676   3.594   4.409  10.128 -1.2029 -0.3384 -3.2625
  112OSM    H6G11677   3.639   4.230  10.149 -1.5650  1.5928  1.0880
  112OSM    C7F11678   3.702   4.319   9.967 -0.3185 -0.3653  0.1895
  112OSM    H7F11679   3.773   4.235   9.954  1.8321  1.3664  0.1771
  112OSM    H7G11680   3.742   4.419   9.941 -4.1637  1.3893  0.3563
  112OSM    C8F11681   3.570   4.316   9.888  1.0037 -0.1276 -0.0790
  112OSM    H8F11682   3.506   4.405   9.901 -2.3486 -2.5077  0.8256
  112OSM    H8G11683   3.511   4.233   9.932 -0.3126  1.1005  0.5548
  112OSM    C9F11684   3.602   4.295   9.740  0.0809 -0.6293  0.2427
  112OSM    H9F11685   3.689   4.351   9.704 -0.9382  0.2769 -0.8943
  112OSM   C10F11686   3.545   4.208   9.652  0.2924  0.3464  0.3754
  112OSM   H10F11687   3.580   4.190   9.550 -0.9528  0.4909 -0.1044
  112OSM   C11F11688   3.431   4.111   9.686  0.2489 -0.3671 -0.6896
  112OSM   H11F11689   3.346   4.118   9.615 -1.0381  0.8096  0.9133
  112OSM   H11G11690   3.393   4.151   9.782 -0.0334 -3.2242  0.4782
  112OSM   C12F11691   3.476   3.965   9.694  0.1133  0.2915 -0.2664
  112OSM   H12F11692   3.520   3.930   9.599  3.3498  2.9392  0.0573
  112OSM   H12G11693   3.385   3.906   9.720 -0.7959  1.7650 -0.0322
  112OSM   C13F11694   3.567   3.933   9.808 -1.2076 -0.3299 -0.0044
  112OSM   H13F11695   3.515   3.955   9.903 -3.6307 -1.6426 -0.9368
  112OSM   H13G11696   3.660   3.991   9.794 -0.6426 -0.9218  1.1786
  112OSM   C14F11697   3.610   3.782   9.810  0.0055  0.7455  0.1230
  112OSM   H14F11698   3.520   3.717   9.822 -0.9772  2.0530  0.0662
  112OSM   H14G11699   3.667   3.759   9.903  0.7280  0.3392 -0.4086
  112OSM   C15F11700   3.702   3.743   9.692 -0.4610  0.0500  0.5296
  112OSM   H15F11701   3.668   3.797   9.601  1.4725 -0.1095 -0.3453
  112OSM   H15G11702   3.702   3.634   9.669  0.9471  0.5205 -2.1658
  112OSM   C16F11703   3.851   3.782   9.718 -0.2773  0.3540 -0.4327
  112OSM   H16F11704   3.909   3.696   9.757 -2.2635 -1.2321 -0.8174
  112OSM   H16G11705   3.846   3.859   9.798 -1.8943  1.5022 -1.5817
  112OSM   C17F11706   3.927   3.828   9.595 -0.2294  0.2480 -0.2912
  112OSM   H17F11707   3.956   3.749   9.521  1.5584  0.6720 -0.0776
  112OSM   H17G11708   4.019   3.853   9.651 -1.7187  1.6236  1.7011
  112OSM   C18F11709   3.876   3.955   9.528 -0.2465  0.1912 -0.9657
  112OSM   H18F11710   3.880   4.043   9.596  1.7119 -3.4189  4.2816
  112OSM   H18G11711   3.775   3.934   9.488  0.5141  1.8502 -4.1099
  112OSM   H18H11712   3.941   3.969   9.439 -1.4032  2.3889 -1.5245
  113OSM      N11713   6.783   1.236  11.423 -0.1055 -0.2052  0.2169
  113OSM    C1511714   6.781   1.086  11.429 -0.0175 -0.7488  0.2383
  113OSM   H15A11715   6.858   1.039  11.488  0.8208  0.0471 -0.1885
  113OSM   H15B11716   6.812   1.063  11.328 -0.0691 -0.6901  0.2088
  113OSM   H15C11717   6.682   1.046  11.447 -0.1729 -1.3007 -1.5868
  113OSM    C1411718   6.760   1.288  11.556 -0.0519  0.1930 -0.8993
  113OSM   H14A11719   6.667   1.251  11.597 -0.0167  1.0283 -0.0221
  113OSM   H14B11720   6.753   1.395  11.555 -0.1544  0.1982 -0.3658
  113OSM   H14C11721   6.837   1.257  11.626  0.4938  1.0258 -1.1283
  113OSM    C1311722   6.920   1.283  11.384 -0.6457 -0.0475  0.1693
  113OSM   H13A11723   6.992   1.253  11.459  0.4895  0.3085 -0.7439
  113OSM   H13B11724   6.930   1.388  11.361  1.3886 -0.5922 -1.8747
  113OSM   H13C11725   6.952   1.229  11.296  2.1491  1.5017  0.1275
  113OSM    C1211726   6.684   1.277  11.326  1.1600 -0.3253 -0.3258
  113OSM   H12A11727   6.630   1.366  11.355 -0.8191 -1.3496 -0.7074
  113OSM   H12B11728   6.601   1.209  11.335 -1.7855  2.7387 -2.0815
  113OSM    C1111729   6.725   1.283  11.183 -0.8027 -1.3186 -0.6946
  113OSM   H11A11730   6.813   1.345  11.159  0.5467 -3.2223 -0.9171
  113OSM   H11B11731   6.640   1.332  11.131  0.1257  1.0861 -0.0570
  113OSM      P11732   6.617   1.064  11.092 -0.2542 -0.0417 -0.2164
  113OSM    O1311733   6.667   0.930  11.078  0.0472  0.0351  0.2853
  113OSM    O1411734   6.506   1.095  11.190 -0.4043 -0.3187 -0.8282
  113OSM    O1111735   6.561   1.120  10.954  0.0461  0.1547 -0.1831
  113OSM    O1211736   6.745   1.155  11.118  0.1105  0.3852 -0.3612
  113OSM    C1S11737   6.648   1.145  10.851  0.2931 -0.0125  0.5787
  113OSM    H1S11738   6.700   1.053  10.820 -0.2519 -0.4736  1.0137
  113OSM    H1T11739   6.731   1.217  10.868 -0.4495  0.6082  1.7880
  113OSM     NF11740   6.645   1.228  10.620  0.3842 -0.9834 -0.5564
  113OSM    HNF11741   6.684   1.318  10.599  2.9178 -1.7476  0.5763
  113OSM    C2S11742   6.565   1.209  10.738 -0.1226 -0.0781  0.2168
  113OSM    H2S11743   6.482   1.142  10.708 -1.0697  1.8645 -1.8397
  113OSM    C3S11744   6.502   1.342  10.783 -0.3879 -0.3624 -0.2937
  113OSM    H3S11745   6.587   1.414  10.787  0.0702 -0.7080 -2.4927
  113OSM     O311746   6.429   1.333  10.908 -0.3509  0.1008 -0.0527
  113OSM    HO311747   6.445   1.243  10.937 -2.9321  0.3003  2.4659
  113OSM    C4S11748   6.413   1.396  10.676  0.5217 -0.7920 -0.6926
  113OSM    H4S11749   6.448   1.493  10.638 -0.8523 -0.1132 -0.2959
  113OSM    C5S11750   6.294   1.343  10.640  0.1288 -0.1030 -0.1564
  113OSM    H5S11751   6.252   1.254  10.688  0.6507 -0.3892 -0.2245
  113OSM    C6S11752   6.217   1.407  10.532  0.3682 -0.1336  0.5641
  113OSM    H6S11753   6.277   1.487  10.483  0.5768 -1.3350 -1.2394
  113OSM    H6T11754   6.120   1.448  10.566  0.0515 -0.0176 -0.4348
  113OSM    C7S11755   6.167   1.297  10.428  0.1962  0.3013 -0.5297
  113OSM    H7S11756   6.111   1.342  10.343  2.4231 -0.0248 -2.2655
  113OSM    H7T11757   6.097   1.233  10.487  1.2704 -1.0263 -0.6440
  113OSM    C8S11758   6.286   1.220  10.364 -0.2457 -0.5187 -0.6341
  113OSM    H8S11759   6.346   1.183  10.450  0.0594  3.7243  1.2215
  113OSM    H8T11760   6.352   1.302  10.328 -1.1447  0.0573 -0.9971
  113OSM    C9S11761   6.264   1.124  10.250  0.0928 -0.0399 -0.6157
  113OSM    H9S11762   6.195   1.173  10.179 -1.0483 -0.7843 -0.0500
  113OSM    H9T11763   6.206   1.040  10.294 -1.4062  1.0272 -0.4992
  113OSM   C10S11764   6.390   1.066  10.193 -0.1343 -0.5752  0.2941
  113OSM   H10S11765   6.367   0.961  10.166  0.0788 -0.8216  1.0516
  113OSM   H10T11766   6.465   1.066  10.274  0.1326  0.8262  0.0687
  113OSM   C11S11767   6.444   1.140  10.062  1.2137  0.1878 -0.1613
  113OSM   H11S11768   6.425   1.249  10.071  0.9880  0.0906  0.5956
  113OSM   H11T11769   6.384   1.114   9.972 -2.0777  3.1053  0.9534
  113OSM   C12S11770   6.599   1.121  10.030 -0.2366 -0.0099 -0.5367
  113OSM   H12S11771   6.636   1.017  10.038  0.4350  0.2687  0.0136
  113OSM   H12T11772   6.654   1.184  10.103 -1.9484  0.3480  0.5125
  113OSM   C13S11773   6.630   1.161   9.890 -0.6161  0.3819  0.6072
  113OSM   H13S11774   6.571   1.254   9.875 -2.0275 -0.6579 -0.5515
  113OSM   H13T11775   6.594   1.090   9.813  0.5291 -0.6125  0.9656
  113OSM   C14S11776   6.775   1.200   9.874  0.2031 -0.0922  0.0401
  113OSM   H14S11777   6.834   1.109   9.900  1.0091 -0.4419 -2.6285
  113OSM   H14T11778   6.795   1.281   9.946 -3.5526  3.0696 -2.1072
  113OSM   C15S11779   6.797   1.256   9.732  0.0072  0.9736 -0.8516
  113OSM   H15S11780   6.864   1.344   9.740 -0.6270  1.3478  0.9219
  113OSM   H15T11781   6.701   1.302   9.699 -0.0610  0.4006 -1.4664
  113OSM   C16S11782   6.853   1.159   9.623 -0.1824 -0.4335  0.0107
  113OSM   H16S11783   6.963   1.164   9.637 -0.2685  1.9935  0.3874
  113OSM   H16T11784   6.848   1.212   9.525  0.4039  0.4461  0.4402
  113OSM   C17S11785   6.801   1.012   9.609  0.2325 -0.5670 -0.7481
  113OSM   H17S11786   6.696   1.011   9.572  0.2485  0.0647 -0.8220
  113OSM   H17T11787   6.792   0.977   9.714 -0.0078  0.4330 -0.4308
  113OSM   C18S11788   6.901   0.919   9.527 -0.4155 -0.4153  0.5030
  113OSM   H18S11789   6.911   0.961   9.425  0.1489 -2.9603 -0.5626
  113OSM   H18T11790   6.864   0.815   9.526 -1.9975  0.1219 -0.0859
  113OSM   H18U11791   6.992   0.929   9.590 -0.5942 -2.2013  1.1058
  113OSM    C1F11792   6.683   1.134  10.541 -0.2317  0.4371  0.4037
  113OSM     OF11793   6.639   1.022  10.560  0.1039  0.1837  0.0784
  113OSM    C2F11794   6.790   1.167  10.434 -1.0905  0.2568 -0.1743
  113OSM    H2F11795   6.866   1.236  10.475  1.2354 -2.9537  1.3517
  113OSM    H2G11796   6.726   1.214  10.356  0.1888 -1.8290 -2.6397
  113OSM    C3F11797   6.855   1.034  10.374  0.7258 -0.4570  0.2427
  113OSM    H3F11798   6.774   0.965  10.340 -0.1520 -0.4310  2.1153
  113OSM    H3G11799   6.916   0.980  10.449 -1.9938 -1.5638  1.8174
  113OSM    C4F11800   6.944   1.055  10.244  0.3075  0.3128 -0.3763
  113OSM    H4F11801   7.030   1.124  10.254  1.5108 -1.2472  0.5532
  113OSM    H4G11802   6.884   1.105  10.165  0.5664  1.5848  0.2082
  113OSM    C5F11803   7.017   0.926  10.193 -0.4563 -0.0890  0.4373
  113OSM    H5F11804   6.948   0.840  10.205 -0.6987  0.3114  2.2394
  113OSM    H5G11805   7.102   0.897  10.258 -0.0805 -0.7728 -0.3375
  113OSM    C6F11806   7.046   0.946  10.046 -0.5444 -0.1390 -0.3802
  113OSM    H6F11807   6.950   0.963   9.992 -1.0308  0.8718  0.7639
  113OSM    H6G11808   7.086   0.849  10.010 -0.7078  0.0464 -1.0704
  113OSM    C7F11809   7.154   1.059  10.017  0.2589 -0.1315 -0.6262
  113OSM    H7F11810   7.239   1.018  10.075 -1.1350 -1.5619  0.4936
  113OSM    H7G11811   7.134   1.159  10.064  1.1643 -0.2122 -0.0512
  113OSM    C8F11812   7.183   1.071   9.868  0.1303 -0.2405  0.1902
  113OSM    H8F11813   7.094   1.082   9.802 -0.4064 -2.2279  0.5034
  113OSM    H8G11814   7.209   0.967   9.839  0.1148  0.0503 -0.9205
  113OSM    C9F11815   7.293   1.160   9.835  0.0877 -0.1752 -0.5806
  113OSM    H9F11816   7.315   1.248   9.897  0.7271  0.5740 -1.8347
  113OSM   C10F11817   7.368   1.151   9.723  0.3343  0.3002 -0.0126
  113OSM   H10F11818   7.448   1.225   9.706  0.9701 -0.2270  0.6026
  113OSM   C11F11819   7.337   1.040   9.620  0.0468  0.0371 -0.2673
  113OSM   H11F11820   7.241   1.052   9.565  1.1933  0.7825 -2.2472
  113OSM   H11G11821   7.335   0.938   9.662  1.0591  0.0688 -0.1118
  113OSM   C12F11822   7.445   1.050   9.519 -0.4923  0.1851 -0.1282
  113OSM   H12F11823   7.533   1.035   9.584 -0.1653 -1.2275 -0.8409
  113OSM   H12G11824   7.460   1.151   9.475 -0.3901  0.2127 -0.0289
  113OSM   C13F11825   7.449   0.945   9.406  0.3946 -0.1341 -0.5891
  113OSM   H13F11826   7.346   0.952   9.363  0.8991  1.8237 -1.5986
  113OSM   H13G11827   7.448   0.846   9.454  0.0944  0.4240  0.5847
  113OSM   C14F11828   7.557   0.967   9.316  0.5876  0.1941 -0.1440
  113OSM   H14F11829   7.641   0.972   9.389 -1.3214 -1.4119  2.3529
  113OSM   H14G11830   7.563   1.061   9.258  0.4852 -0.9179 -2.0255
  113OSM   C15F11831   7.598   0.852   9.231  0.1921  0.2937 -0.0428
  113OSM   H15F11832   7.624   0.761   9.288  1.5346  0.7336  0.0860
  113OSM   H15G11833   7.686   0.891   9.176  0.7846  1.3900  1.6078
  113OSM   C16F11834   7.501   0.815   9.115  0.8278  0.2537 -0.2663
  113OSM   H16F11835   7.472   0.906   9.058 -1.6151 -0.6850 -0.6657
  113OSM   H16G11836   7.405   0.791   9.166  1.6008  1.0602  1.6791
  113OSM   C17F11837   7.550   0.707   9.024 -0.1523 -0.2885 -0.2567
  113OSM   H17F11838   7.566   0.615   9.083  1.6492  0.9170  1.2533
  113OSM   H17G11839   7.645   0.742   8.980 -0.9203  1.1271 -0.8615
  113OSM   C18F11840   7.461   0.675   8.904  0.4547 -0.1093  0.7735
  113OSM   H18F11841   7.512   0.606   8.834 -1.3665  1.7052 -2.5881
  113OSM   H18G11842   7.438   0.767   8.847  1.1080 -0.3284  0.1388
  113OSM   H18H11843   7.361   0.632   8.929  1.0604 -0.6845  2.3227
  114OSM      N11844   5.071   5.118  10.959 -0.3230 -0.2249 -0.6299
  114OSM    C1511845   5.007   5.001  11.017  0.4361  0.0928 -0.2732
  114OSM   H15A11846   4.908   4.997  10.976  1.2469 -0.3973 -2.2724
  114OSM   H15B11847   4.985   4.988  11.122 -1.4142 -0.3344 -0.6914
  114OSM   H15C11848   5.062   4.912  10.991  0.3989  0.8026 -3.0098
  114OSM    C1411849   5.015   5.240  11.031  0.3584 -0.0366  0.0780
  114OSM   H14A11850   5.051   5.322  10.970 -0.3621  0.1857 -0.0620
  114OSM   H14B11851   5.056   5.241  11.131  0.2474  3.0255  0.1974
  114OSM   H14C11852   4.908   5.228  11.038  0.3843 -0.5304 -0.3155
  114OSM    C1311853   5.216   5.117  10.993 -0.4277 -0.1461  0.9848
  114OSM   H13A11854   5.235   5.098  11.098 -0.8575  0.4768  1.1780
  114OSM   H13B11855   5.271   5.207  10.973  0.0775 -0.9161 -1.3695
  114OSM   H13C11856   5.265   5.042  10.933 -1.4374  0.9016 -1.2328
  114OSM    C1211857   5.046   5.114  10.814  0.5023 -0.6878  0.4066
  114OSM   H12A11858   5.054   5.014  10.774 -2.2301 -2.5073  3.7863
  114OSM   H12B11859   5.127   5.162  10.761  1.1007 -1.9288  0.1697
  114OSM    C1111860   4.911   5.173  10.764  0.5415  0.3068  0.2043
  114OSM   H11A11861   4.893   5.163  10.655 -0.3475  0.0503  0.3662
  114OSM   H11B11862   4.903   5.280  10.795 -2.0080  0.3811 -0.5392
  114OSM      P11863   4.670   5.171  10.863  0.2608  0.0474 -0.0708
  114OSM    O1311864   4.566   5.069  10.882  0.1894  0.6486 -0.3313
  114OSM    O1411865   4.691   5.253  10.987 -0.2256 -0.2545  0.1777
  114OSM    O1111866   4.633   5.268  10.750  0.0130  0.1008 -0.3618
  114OSM    O1211867   4.802   5.099  10.816 -0.3234 -0.4649 -0.2960
  114OSM    C1S11868   4.581   5.226  10.624  0.0977 -0.0276  0.4300
  114OSM    H1S11869   4.493   5.159  10.634 -0.3993  0.1290 -2.0748
  114OSM    H1T11870   4.642   5.146  10.578 -1.9770 -1.2701 -0.2700
  114OSM     NF11871   4.486   5.302  10.406  0.2069 -0.5179 -0.6978
  114OSM    HNF11872   4.536   5.283  10.322  0.3755 -0.2826 -0.6503
  114OSM    C2S11873   4.561   5.350  10.523  0.2294  0.0513  0.0335
  114OSM    H2S11874   4.499   5.428  10.572 -0.4194  0.0670 -0.7800
  114OSM    C3S11875   4.697   5.414  10.499 -0.6108  0.3993 -0.3489
  114OSM    H3S11876   4.764   5.341  10.449 -0.4801  1.3391 -1.5819
  114OSM     O311877   4.777   5.429  10.619  0.2238  0.3336  0.4939
  114OSM    HO311878   4.732   5.372  10.682  0.5370  0.7767  1.1228
  114OSM    C4S11879   4.701   5.540  10.424  0.0392 -0.3587 -0.0087
  114OSM    H4S11880   4.626   5.615  10.456  0.0914  0.0807 -0.8912
  114OSM    C5S11881   4.768   5.563  10.307  0.6936  0.3518  0.4033
  114OSM    H5S11882   4.820   5.482  10.254  1.1311  0.0791  1.2313
  114OSM    C6S11883   4.762   5.688  10.222 -0.0130  0.6299  0.2272
  114OSM    H6S11884   4.858   5.741  10.207 -0.1280  0.8008  0.0950
  114OSM    H6T11885   4.699   5.755  10.285 -0.4815  1.4792 -1.1130
  114OSM    C7S11886   4.700   5.676  10.074  0.8194  0.2369 -0.7815
  114OSM    H7S11887   4.704   5.781  10.038  1.8851 -0.2946 -2.3173
  114OSM    H7T11888   4.592   5.653  10.076  0.7133  0.7174  0.7628
  114OSM    C8S11889   4.791   5.593   9.979  0.1731  0.0610 -0.1383
  114OSM    H8S11890   4.795   5.490  10.019  0.9255  0.1820  0.1227
  114OSM    H8T11891   4.889   5.645   9.983 -0.3066  0.9767  0.0349
  114OSM    C9S11892   4.736   5.589   9.834 -0.0498  0.0366  0.6221
  114OSM    H9S11893   4.659   5.510   9.822  1.7063 -2.2789  3.2687
  114OSM    H9T11894   4.814   5.563   9.760 -1.2151  1.6262 -1.2539
  114OSM   C10S11895   4.662   5.722   9.792 -0.2290 -0.3958  0.7431
  114OSM   H10S11896   4.711   5.816   9.826  0.8760 -0.4974 -0.5070
  114OSM   H10T11897   4.559   5.720   9.833  0.0411  0.3710  1.4954
  114OSM   C11S11898   4.652   5.728   9.635 -0.1009 -0.0600 -0.0799
  114OSM   H11S11899   4.571   5.800   9.612 -2.9900 -2.5231  1.6636
  114OSM   H11T11900   4.616   5.630   9.597  2.6620 -0.0390 -3.2160
  114OSM   C12S11901   4.784   5.764   9.566 -0.1151 -0.2725 -0.0073
  114OSM   H12S11902   4.866   5.694   9.596 -0.5640  0.0162  2.0441
  114OSM   H12T11903   4.815   5.862   9.608  1.9764 -0.3852 -1.1511
  114OSM   C13S11904   4.769   5.800   9.423  0.4792  0.4898  0.3580
  114OSM   H13S11905   4.857   5.861   9.395  1.3834 -0.7504  0.4190
  114OSM   H13T11906   4.677   5.857   9.397 -0.9342 -0.7739  2.2859
  114OSM   C14S11907   4.771   5.673   9.332 -0.2466 -0.8171  0.2844
  114OSM   H14S11908   4.699   5.592   9.356 -0.2556 -1.5901 -2.0835
  114OSM   H14T11909   4.872   5.629   9.336 -0.1269 -0.5299  0.4649
  114OSM   C15S11910   4.757   5.708   9.185 -0.7435  0.1327  0.1060
  114OSM   H15S11911   4.819   5.798   9.165 -0.5337 -0.0103  0.1091
  114OSM   H15T11912   4.649   5.730   9.171 -0.8155  0.2350  0.7864
  114OSM   C16S11913   4.808   5.601   9.081 -0.2227  0.8523  0.2780
  114OSM   H16S11914   4.793   5.500   9.124 -0.7325  1.1533  0.8177
  114OSM   H16T11915   4.919   5.608   9.068 -0.2877 -0.2168 -1.0155
  114OSM   C17S11916   4.737   5.606   8.944  0.4309 -0.1457  0.4156
  114OSM   H17S11917   4.794   5.548   8.869  0.8665 -1.6019  1.8219
  114OSM   H17T11918   4.733   5.712   8.910 -2.8475 -0.3731 -0.2155
  114OSM   C18S11919   4.593   5.556   8.934 -0.9281 -0.1828 -0.5321
  114OSM   H18S11920   4.600   5.446   8.947  1.1464  0.0410  0.6204
  114OSM   H18T11921   4.546   5.583   8.837 -0.3213 -0.0989 -0.8051
  114OSM   H18U11922   4.536   5.602   9.018  0.7194  2.7037 -0.8608
  114OSM    C1F11923   4.357   5.276  10.407  0.1595 -0.1572 -0.2800
  114OSM     OF11924   4.296   5.280  10.511  0.0020 -0.8044  0.8138
  114OSM    C2F11925   4.297   5.238  10.274 -0.2069  0.1646 -0.2267
  114OSM    H2F11926   4.368   5.161  10.237  1.2552  1.2866  0.1556
  114OSM    H2G11927   4.297   5.321  10.200 -2.0538 -0.7276 -1.3218
  114OSM    C3F11928   4.168   5.152  10.283  0.7363 -0.5266 -0.2116
  114OSM    H3F11929   4.084   5.195  10.342  0.5446  0.1678 -0.9798
  114OSM    H3G11930   4.190   5.051  10.324 -0.3059 -0.1211  1.4410
  114OSM    C4F11931   4.105   5.139  10.147  0.4014  0.5576 -0.4085
  114OSM    H4F11932   4.056   5.232  10.111  0.7469  1.3582  1.1057
  114OSM    H4G11933   4.026   5.061  10.142 -0.1909  1.1238  0.0107
  114OSM    C5F11934   4.208   5.101  10.042  0.1438  0.1314 -0.6007
  114OSM    H5F11935   4.277   5.024  10.081 -0.6368 -0.0658  0.4497
  114OSM    H5G11936   4.264   5.191  10.010 -1.3939  0.6265 -2.0476
  114OSM    C6F11937   4.139   5.038   9.916  0.3111 -0.1793  0.0533
  114OSM    H6F11938   4.076   5.115   9.868  1.5345  0.1167 -1.1190
  114OSM    H6G11939   4.086   4.949   9.957  1.1270  0.7078  3.3127
  114OSM    C7F11940   4.246   4.987   9.819  0.6629 -0.2823 -0.0739
  114OSM    H7F11941   4.315   4.924   9.880  0.5048 -0.4062 -0.0238
  114OSM    H7G11942   4.312   5.068   9.780 -0.1012  0.8434  0.8982
  114OSM    C8F11943   4.202   4.894   9.706  0.1615 -0.2709 -0.5289
  114OSM    H8F11944   4.147   4.812   9.757 -1.2887  1.4473  0.8146
  114OSM    H8G11945   4.294   4.848   9.665  1.5129  0.4387  1.5842
  114OSM    C9F11946   4.114   4.959   9.603  0.4242  0.1098 -1.0255
  114OSM    H9F11947   4.052   5.043   9.637 -0.8876 -1.0834 -0.4045
  114OSM   C10F11948   4.108   4.931   9.473 -0.3691 -0.7189  0.0424
  114OSM   H10F11949   4.050   4.997   9.406 -0.6146 -0.8221  0.1532
  114OSM   C11F11950   4.192   4.828   9.407  0.0054  0.2211 -0.6980
  114OSM   H11F11951   4.145   4.728   9.424  1.0778 -0.3651 -1.1167
  114OSM   H11G11952   4.294   4.831   9.449  0.1324  0.3127 -1.0108
  114OSM   C12F11953   4.193   4.846   9.252 -0.1545 -0.0956 -0.2833
  114OSM   H12F11954   4.287   4.802   9.213  0.6252 -0.8537  2.2551
  114OSM   H12G11955   4.209   4.949   9.213 -0.3884  0.0188 -0.0764
  114OSM   C13F11956   4.070   4.778   9.181 -0.3648  0.5996 -0.9320
  114OSM   H13F11957   3.970   4.815   9.215 -0.6762 -2.6466  2.1741
  114OSM   H13G11958   4.077   4.669   9.201  2.7397  0.0756 -4.0505
  114OSM   C14F11959   4.089   4.813   9.034  0.0590  0.6823  0.2407
  114OSM   H14F11960   4.193   4.789   9.002 -0.4695  0.2928 -1.2632
  114OSM   H14G11961   4.079   4.923   9.021  2.9098  1.0310  0.4428
  114OSM   C15F11962   3.985   4.750   8.947  0.6104 -0.3848  0.4251
  114OSM   H15F11963   3.886   4.799   8.961  0.5013  0.3853 -2.4130
  114OSM   H15G11964   3.975   4.645   8.983 -0.5789 -0.1073  0.9539
  114OSM   C16F11965   4.023   4.759   8.803  0.2037  0.0694  0.3553
  114OSM   H16F11966   4.061   4.862   8.785  0.5475  0.0143  0.7532
  114OSM   H16G11967   3.929   4.746   8.746 -0.0600 -1.3631  1.0541
  114OSM   C17F11968   4.127   4.647   8.763 -0.6354  0.1343  0.3607
  114OSM   H17F11969   4.094   4.549   8.803  1.5927 -0.0600  1.8893
  114OSM   H17G11970   4.221   4.676   8.814 -0.4992  0.4080 -0.0365
  114OSM   C18F11971   4.138   4.647   8.607  0.2906 -0.0497  0.1581
  114OSM   H18F11972   4.035   4.645   8.565 -0.7001 -0.1049  2.4678
  114OSM   H18G11973   4.204   4.568   8.564 -2.6730 -1.7337 -1.6099
  114OSM   H18H11974   4.190   4.742   8.582  3.2339 -1.3795  0.7366
  115OSM      N11975   6.087   2.211  11.679  0.0413  0.4175  0.4971
  115OSM    C1511976   6.167   2.183  11.789 -0.2666  0.4916 -0.4419
  115OSM   H15A11977   6.270   2.193  11.759  0.1600 -0.9288  0.4082
  115OSM   H15B11978   6.151   2.083  11.829 -1.1912  0.7621 -0.1189
  115OSM   H15C11979   6.159   2.257  11.867  1.4837 -0.9194  1.1990
  115OSM    C1411980   5.945   2.193  11.718  0.5047 -0.1298 -0.1483
  115OSM   H14A11981   5.901   2.273  11.775 -0.2908 -1.2246  0.8213
  115OSM   H14B11982   5.921   2.108  11.780 -0.9671  0.5517  0.2500
  115OSM   H14C11983   5.874   2.202  11.637 -0.6366  3.3176  1.0324
  115OSM    C1311984   6.102   2.352  11.633 -0.2432 -0.5612 -0.4940
  115OSM   H13A11985   6.199   2.387  11.602 -0.1936 -1.5089 -1.4642
  115OSM   H13B11986   6.072   2.409  11.719 -1.4288 -0.9175 -0.6560
  115OSM   H13C11987   6.040   2.377  11.548 -3.4651 -2.2794  1.1738
  115OSM    C1211988   6.104   2.105  11.571  0.2913 -0.1456  0.1581
  115OSM   H12A11989   6.028   2.124  11.497 -0.0521 -1.5220  0.1221
  115OSM   H12B11990   6.069   2.012  11.612 -0.0669  0.2423  0.7434
  115OSM    C1111991   6.249   2.084  11.510  0.1338 -0.1460  0.3155
  115OSM   H11A11992   6.238   1.998  11.441 -0.5753  1.6272 -1.8906
  115OSM   H11B11993   6.316   2.051  11.592  1.8417  0.9171 -0.5882
  115OSM      P11994   6.270   2.237  11.298  0.1560 -0.1135  0.4052
  115OSM    O1311995   6.268   2.387  11.299 -0.3634  0.3903 -0.1241
  115OSM    O1411996   6.369   2.159  11.221  0.0950  0.6024 -0.3975
  115OSM    O1111997   6.127   2.178  11.273 -0.0545 -0.7162 -0.6292
  115OSM    O1211998   6.307   2.200  11.448  0.0475  0.0346 -0.0219
  115OSM    C1S11999   6.032   2.225  11.176 -0.9762 -0.9968 -0.4393
  115OSM    H1S12000   6.052   2.331  11.149 -0.4231 -0.6332  1.2834
  115OSM    H1T12001   5.932   2.218  11.224 -1.1172 -0.5907 -0.6669
  115OSM     NF12002   5.986   2.207  10.931  0.1659 -0.2835  0.0294
  115OSM    HNF12003   5.890   2.178  10.926 -0.5482  1.3585  2.2902
  115OSM    C2S12004   6.042   2.141  11.044  0.5005  0.2471 -0.3059
  115OSM    H2S12005   6.149   2.128  11.015  0.6773 -0.5060  0.6377
  115OSM    C3S12006   5.983   1.999  11.074 -0.1313  0.2555 -0.4409
  115OSM    H3S12007   5.873   2.012  11.084 -0.2865  0.5513 -2.2533
  115OSM     O312008   6.047   1.937  11.191  0.3805 -0.3485  0.2325
  115OSM    HO312009   6.122   1.992  11.214 -0.7473  0.6631  1.7281
  115OSM    C4S12010   6.011   1.922  10.946  0.0999  0.0204 -0.1716
  115OSM    H4S12011   6.114   1.919  10.909  0.2425  2.4489 -0.1203
  115OSM    C5S12012   5.914   1.866  10.879  0.5407 -0.3083  0.3535
  115OSM    H5S12013   5.810   1.859  10.917 -0.0779 -3.6659 -1.5368
  115OSM    C6S12014   5.934   1.788  10.752  0.8743  0.7645  0.2201
  115OSM    H6S12015   6.039   1.757  10.738 -0.3353 -3.2294 -1.3665
  115OSM    H6T12016   5.905   1.851  10.664  0.4687 -0.6530 -0.6929
  115OSM    C7S12017   5.837   1.680  10.750  1.3426  0.7824  0.2071
  115OSM    H7S12018   5.733   1.716  10.740  1.5349  0.7435 -2.7111
  115OSM    H7T12019   5.834   1.609  10.836 -2.2937  1.5603  0.8728
  115OSM    C8S12020   5.862   1.592  10.618  0.6904 -0.1079 -0.2237
  115OSM    H8S12021   5.926   1.507  10.648 -1.3087 -1.0713  1.6384
  115OSM    H8T12022   5.913   1.652  10.540  0.9907  1.8871  1.3968
  115OSM    C9S12023   5.732   1.546  10.552  0.1595 -0.7578 -0.1336
  115OSM    H9S12024   5.675   1.637  10.523 -1.8454 -2.0708 -0.4749
  115OSM    H9T12025   5.689   1.473  10.623  2.7566 -3.1756 -0.8383
  115OSM   C10S12026   5.744   1.463  10.424 -0.4782  0.5938  1.0876
  115OSM   H10S12027   5.647   1.410  10.413 -0.6891  1.3063 -0.8765
  115OSM   H10T12028   5.822   1.385  10.434 -0.2153  0.0548 -3.1849
  115OSM   C11S12029   5.763   1.537  10.292  0.4351  0.0673 -0.2670
  115OSM   H11S12030   5.858   1.592  10.306  0.2232  0.2665  0.4496
  115OSM   H11T12031   5.682   1.612  10.284 -0.1886 -0.7778 -2.7778
  115OSM   C12S12032   5.758   1.448  10.172 -0.4212  0.0511 -0.2732
  115OSM   H12S12033   5.671   1.380  10.182 -0.5088  0.3256  0.9342
  115OSM   H12T12034   5.850   1.390  10.149 -0.3425  0.4029 -0.8804
  115OSM   C13S12035   5.733   1.520  10.039 -0.4153 -0.1635 -0.2465
  115OSM   H13S12036   5.777   1.619  10.017  0.0903 -0.5305 -0.9471
  115OSM   H13T12037   5.624   1.543  10.045 -0.2472  0.7572 -0.6641
  115OSM   C14S12038   5.753   1.432   9.918 -0.1397 -0.5477  0.4677
  115OSM   H14S12039   5.685   1.347   9.942 -4.1390  2.3560  0.4471
  115OSM   H14T12040   5.855   1.391   9.905 -1.0523 -2.2903 -2.1390
  115OSM   C15S12041   5.716   1.501   9.790 -0.3715 -0.6093 -0.2311
  115OSM   H15S12042   5.777   1.590   9.764 -1.3221  1.8447  4.7583
  115OSM   H15T12043   5.611   1.537   9.785 -0.1109  0.0873 -0.9356
  115OSM   C16S12044   5.708   1.399   9.676  0.6124 -0.2924 -0.1565
  115OSM   H16S12045   5.648   1.438   9.591  2.4667 -0.7534 -1.7393
  115OSM   H16T12046   5.664   1.306   9.719 -0.1494 -0.3403 -0.9917
  115OSM   C17S12047   5.847   1.363   9.627  0.4128  0.3048 -0.2604
  115OSM   H17S12048   5.887   1.296   9.706  1.3628  0.8191 -0.2867
  115OSM   H17T12049   5.909   1.456   9.634  3.3914 -1.6702  2.4441
  115OSM   C18S12050   5.867   1.285   9.493  0.3540  0.5460 -0.1802
  115OSM   H18S12051   5.976   1.294   9.474  0.0747  1.4954 -1.4119
  115OSM   H18T12052   5.804   1.340   9.421 -1.2733  2.6781  2.6453
  115OSM   H18U12053   5.824   1.183   9.511 -2.6357  1.6551 -0.4340
  115OSM    C1F12054   6.027   2.316  10.864  0.0707  0.4791  0.0992
  115OSM     OF12055   6.118   2.378  10.913  0.5523  0.4775 -0.1743
  115OSM    C2F12056   5.956   2.367  10.740  0.8713 -0.5239  0.5560
  115OSM    H2F12057   5.975   2.476  10.737 -1.3686 -0.0966  0.7878
  115OSM    H2G12058   5.846   2.359  10.735  0.7209  1.4210 -0.0603
  115OSM    C3F12059   6.010   2.299  10.607 -0.4315 -0.5698 -0.6164
  115OSM    H3F12060   5.969   2.196  10.607 -0.1653 -0.6883 -2.3013
  115OSM    H3G12061   6.121   2.304  10.610 -0.4995  1.1891  0.9767
  115OSM    C4F12062   5.952   2.365  10.483 -0.8553 -0.3046  0.2732
  115OSM    H4F12063   5.994   2.467  10.474 -1.1377 -0.2586 -0.6194
  115OSM    H4G12064   5.841   2.367  10.473 -0.7574 -0.0334 -1.0317
  115OSM    C5F12065   6.012   2.290  10.355 -0.0250  0.1790 -0.5942
  115OSM    H5F12066   5.995   2.183  10.380 -0.1539  0.8105  2.4529
  115OSM    H5G12067   6.121   2.313  10.357 -0.5654  2.9947 -0.8979
  115OSM    C6F12068   5.935   2.336  10.227 -0.6451 -0.2071 -0.7686
  115OSM    H6F12069   5.967   2.441  10.213  1.2189 -0.4640  1.0068
  115OSM    H6G12070   5.827   2.331  10.251 -0.1144  0.3189  2.1279
  115OSM    C7F12071   5.987   2.255  10.107 -0.8078  0.5311 -0.5065
  115OSM    H7F12072   6.005   2.152  10.145  0.2450  1.0155  0.3756
  115OSM    H7G12073   6.082   2.289  10.061  0.4041 -3.9800 -1.8362
  115OSM    C8F12074   5.880   2.239  10.000  0.2105  0.4872 -0.0114
  115OSM    H8F12075   5.794   2.189  10.051  1.6670 -1.0553  1.0682
  115OSM    H8G12076   5.913   2.169   9.920 -0.4500 -0.3292  0.4094
  115OSM    C9F12077   5.828   2.367   9.941 -1.1583  0.0482 -0.0798
  115OSM    H9F12078   5.773   2.424  10.017 -1.3384 -2.5235  1.8685
  115OSM   C10F12079   5.828   2.404   9.810  0.8320  0.4627 -0.0540
  115OSM   H10F12080   5.774   2.494   9.778 -2.0170 -0.4975  1.7425
  115OSM   C11F12081   5.899   2.330   9.699  0.0728 -0.2011 -0.1524
  115OSM   H11F12082   5.976   2.259   9.737 -0.9727 -0.2245  2.0454
  115OSM   H11G12083   5.951   2.402   9.632 -1.9033  2.2438  0.7657
  115OSM   C12F12084   5.815   2.254   9.599  0.4644  0.0314  0.7032
  115OSM   H12F12085   5.756   2.315   9.527 -1.3756  0.7632  2.7322
  115OSM   H12G12086   5.737   2.201   9.658  0.9084 -0.4125  0.8936
  115OSM   C13F12087   5.892   2.151   9.502 -0.4924 -0.1648  0.3562
  115OSM   H13F12088   5.930   2.075   9.574 -0.3907  0.2926  0.7886
  115OSM   H13G12089   5.980   2.206   9.463 -1.2775 -0.7819 -2.5126
  115OSM   C14F12090   5.811   2.095   9.387 -0.4840  0.4472  0.6093
  115OSM   H14F12091   5.750   2.176   9.341  0.1282  0.4642 -0.2040
  115OSM   H14G12092   5.735   2.023   9.424 -1.1629 -0.1001 -1.6943
  115OSM   C15F12093   5.899   2.038   9.270 -0.4850  0.7324  0.6029
  115OSM   H15F12094   5.956   1.951   9.309  0.4599  1.3818  0.7139
  115OSM   H15G12095   5.971   2.108   9.222 -0.1952 -0.0889 -0.1968
  115OSM   C16F12096   5.819   1.990   9.140 -0.1293  0.1430  0.1443
  115OSM   H16F12097   5.760   2.079   9.111 -0.8785  0.0048  1.2032
  115OSM   H16G12098   5.749   1.907   9.164  1.3387 -1.1744  0.0404
  115OSM   C17F12099   5.903   1.930   9.031 -0.0820 -0.3013 -0.0067
  115OSM   H17F12100   5.972   2.005   8.985  0.8208 -1.8584 -1.3029
  115OSM   H17G12101   5.850   1.897   8.939  3.0221 -2.1957 -1.2773
  115OSM   C18F12102   5.997   1.817   9.082  0.0917  0.5734 -0.4649
  115OSM   H18F12103   6.048   1.767   8.997  0.5456  1.3399 -0.6573
  115OSM   H18G12104   5.942   1.753   9.154  0.5031 -1.0542 -1.5569
  115OSM   H18H12105   6.081   1.869   9.134  0.2580 -2.1546  2.2940
  116OSM      N12106   1.855   0.711  11.124  0.1890  0.4040  0.1894
  116OSM    C1512107   1.975   0.635  11.140  0.0771  0.0665  0.3212
  116OSM   H15A12108   1.956   0.536  11.102 -2.8447  1.3395 -1.9694
  116OSM   H15B12109   2.018   0.642  11.239 -1.8960  0.8575  1.1838
  116OSM   H15C12110   2.047   0.672  11.068 -1.6997  1.5318 -0.7916
  116OSM    C1412111   1.760   0.639  11.219 -0.3562  0.1067 -1.0085
  116OSM   H14A12112   1.760   0.533  11.202 -0.4382  0.2233 -1.7864
  116OSM   H14B12113   1.660   0.678  11.223 -0.1507  0.5339  1.6946
  116OSM   H14C12114   1.795   0.658  11.320  1.0034  0.4225 -1.5110
  116OSM    C1312115   1.887   0.845  11.169  0.0772  0.4208  0.2626
  116OSM   H13A12116   1.795   0.896  11.192  0.3247  1.2158 -0.4628
  116OSM   H13B12117   1.932   0.906  11.092 -0.5197  1.8349  1.0195
  116OSM   H13C12118   1.953   0.851  11.254  0.5938  0.5982 -0.1432
  116OSM    C1212119   1.797   0.708  10.985 -0.0131  1.2741  0.1623
  116OSM   H12A12120   1.711   0.772  10.974 -0.5221  0.5799  0.0307
  116OSM   H12B12121   1.768   0.605  10.969  1.7829  1.1384 -3.1508
  116OSM    C1112122   1.887   0.741  10.872 -0.7743 -0.0737  0.3442
  116OSM   H11A12123   1.817   0.708  10.792 -0.9223 -1.5519  1.0528
  116OSM   H11B12124   1.980   0.683  10.856  0.2858  1.5937  0.2757
  116OSM      P12125   2.048   0.945  10.857  0.2828 -0.2864  0.3582
  116OSM    O1312126   2.036   1.091  10.853  0.2835 -0.3798  0.2618
  116OSM    O1412127   2.130   0.889  10.970 -0.3330  0.2525 -0.1254
  116OSM    O1112128   2.092   0.899  10.714 -0.0038 -0.4889 -0.0868
  116OSM    O1212129   1.908   0.879  10.871  0.3524  0.3130 -0.2536
  116OSM    C1S12130   2.054   0.980  10.602  0.3896 -0.2715  0.6391
  116OSM    H1S12131   2.107   1.078  10.602 -2.4673  1.3924 -0.3965
  116OSM    H1T12132   1.947   1.008  10.607 -0.5416 -2.7011 -2.5398
  116OSM     NF12133   2.023   1.000  10.366  0.2417  0.2656  0.3568
  116OSM    HNF12134   1.935   0.985  10.322  0.3222  1.5945 -0.3016
  116OSM    C2S12135   2.081   0.910  10.469  0.7844  0.2648  0.2600
  116OSM    H2S12136   2.188   0.907  10.440  1.4332 -0.1627  2.5365
  116OSM    C3S12137   2.021   0.768  10.469  0.3212 -0.4286 -0.8430
  116OSM    H3S12138   1.910   0.777  10.468  0.2994 -0.7318 -1.0048
  116OSM     O312139   2.052   0.671  10.576 -0.0774 -0.3107 -0.5284
  116OSM    HO312140   2.087   0.736  10.637  0.3356 -0.1587 -0.9220
  116OSM    C4S12141   2.055   0.696  10.342 -0.6075 -0.0223  0.1737
  116OSM    H4S12142   2.161   0.673  10.324 -1.2459 -1.0947 -2.6246
  116OSM    C5S12143   1.964   0.650  10.255  0.2820 -0.7365  0.3603
  116OSM    H5S12144   1.856   0.667  10.271  0.2720 -0.6643  0.2257
  116OSM    C6S12145   1.996   0.590  10.121  0.5465  0.1406  0.6117
  116OSM    H6S12146   1.953   0.488  10.111  1.0616  0.0027 -0.3109
  116OSM    H6T12147   2.104   0.585  10.096  0.1437  0.1783 -1.2683
  116OSM    C7S12148   1.938   0.669  10.001 -0.0286  0.1047 -0.1123
  116OSM    H7S12149   1.966   0.777   9.997  0.6150  0.0133  1.4596
  116OSM    H7T12150   1.827   0.670  10.004 -0.0637 -1.9214  0.9948
  116OSM    C8S12151   1.982   0.601   9.874  0.3232  0.1946 -0.2162
  116OSM    H8S12152   1.946   0.497   9.860 -1.8176  0.9462 -0.7378
  116OSM    H8T12153   2.092   0.599   9.862  0.1185 -0.0105 -2.6635
  116OSM    C9S12154   1.923   0.667   9.744  0.3227  0.2985 -0.2806
  116OSM    H9S12155   1.965   0.769   9.731  0.2307 -0.0323 -4.5178
  116OSM    H9T12156   1.815   0.687   9.763 -0.7415 -3.5753 -1.3018
  116OSM   C10S12157   1.924   0.577   9.626  0.2241 -0.0260 -0.3810
  116OSM   H10S12158   1.882   0.478   9.655 -1.5745  1.3873  2.2938
  116OSM   H10T12159   2.024   0.551   9.586 -0.6400 -0.9073 -2.0613
  116OSM   C11S12160   1.825   0.627   9.511 -0.6274  0.1483  0.1320
  116OSM   H11S12161   1.851   0.730   9.481  2.4993 -0.7661 -0.7052
  116OSM   H11T12162   1.730   0.632   9.568 -0.4612  0.3438  0.3956
  116OSM   C12S12163   1.817   0.529   9.395 -0.2412 -0.0033  0.5830
  116OSM   H12S12164   1.774   0.434   9.434  0.9760 -1.7982 -2.1646
  116OSM   H12T12165   1.908   0.513   9.334  0.8542  4.1441  0.8387
  116OSM   C13S12166   1.721   0.589   9.291  0.1742  0.5443  0.1934
  116OSM   H13S12167   1.741   0.696   9.269 -3.8888  0.8969 -3.1789
  116OSM   H13T12168   1.616   0.572   9.322  0.3514 -1.4080 -0.1680
  116OSM   C14S12169   1.723   0.506   9.162  0.6052  0.3236 -0.3898
  116OSM   H14S12170   1.731   0.398   9.186  1.4992 -0.0859 -2.3080
  116OSM   H14T12171   1.815   0.542   9.109  1.5487 -0.1918  0.8507
  116OSM   C15S12172   1.593   0.537   9.079  0.5917  0.1242 -0.1250
  116OSM   H15S12173   1.595   0.646   9.056  3.0794  0.1290 -0.1452
  116OSM   H15T12174   1.503   0.522   9.143  0.9985  1.5034  0.8259
  116OSM   C16S12175   1.592   0.460   8.939  0.6657  0.0376  0.2532
  116OSM   H16S12176   1.594   0.350   8.952 -1.4219  0.0801  1.3389
  116OSM   H16T12177   1.687   0.478   8.883  1.2231 -0.3085  1.0729
  116OSM   C17S12178   1.474   0.488   8.838  0.3237 -0.5332 -0.3646
  116OSM   H17S12179   1.382   0.461   8.895 -1.4286  0.0108 -2.7889
  116OSM   H17T12180   1.488   0.434   8.742 -0.0625  1.9892 -1.9339
  116OSM   C18S12181   1.478   0.636   8.812 -0.4157  0.1855 -0.3029
  116OSM   H18S12182   1.580   0.670   8.784  0.2267 -1.3346  0.0512
  116OSM   H18T12183   1.443   0.689   8.903 -0.4108 -0.7353  0.2539
  116OSM   H18U12184   1.405   0.675   8.738 -1.9357 -0.1761  0.9485
  116OSM    C1F12185   2.094   1.103  10.324  0.0748  0.3690 -0.1096
  116OSM     OF12186   2.182   1.156  10.395  0.0714  0.3259  0.1411
  116OSM    C2F12187   2.045   1.176  10.195  0.2257 -0.0286 -0.8036
  116OSM    H2F12188   1.954   1.235  10.220  1.3673  1.2555  0.5223
  116OSM    H2G12189   2.026   1.105  10.112  1.8212 -1.0851 -0.2928
  116OSM    C3F12190   2.149   1.278  10.150 -0.2705 -0.1334  0.2447
  116OSM    H3F12191   2.244   1.226  10.171 -1.4747 -3.0135 -0.9277
  116OSM    H3G12192   2.147   1.372  10.209  0.0079  0.2068 -0.2862
  116OSM    C4F12193   2.134   1.316  10.005  0.0958 -0.3193  0.1022
  116OSM    H4F12194   2.136   1.231   9.934  0.9117  2.1618 -3.0735
  116OSM    H4G12195   2.219   1.382   9.979 -0.0857 -0.0938  0.0799
  116OSM    C5F12196   2.009   1.399   9.969  0.5201  0.0091  0.4167
  116OSM    H5F12197   2.008   1.490  10.032  0.2659  0.7702 -0.6599
  116OSM    H5G12198   1.920   1.335   9.991  0.0845  0.4344 -0.0644
  116OSM    C6F12199   2.019   1.439   9.823  0.4876 -0.6232 -0.0428
  116OSM    H6F12200   2.101   1.513   9.806  1.5973 -1.7694  0.1461
  116OSM    H6G12201   1.919   1.481   9.800  0.9013 -1.1499 -3.1798
  116OSM    C7F12202   2.036   1.333   9.716  0.3721  0.3177  0.1870
  116OSM    H7F12203   1.939   1.278   9.715 -0.6252  2.0090 -1.5059
  116OSM    H7G12204   2.119   1.264   9.743 -0.7810 -1.5159 -0.7348
  116OSM    C8F12205   2.065   1.376   9.570  0.1342  0.4742 -0.5478
  116OSM    H8F12206   2.078   1.291   9.499 -1.1992  1.6093 -2.2589
  116OSM    H8G12207   2.157   1.434   9.592  0.6702 -0.8036  0.6683
  116OSM    C9F12208   1.960   1.470   9.515 -0.0329  0.6988 -0.0493
  116OSM    H9F12209   1.934   1.557   9.578  0.7746  0.6386  0.3926
  116OSM   C10F12210   1.907   1.468   9.397 -0.1763  0.0844  1.0550
  116OSM   H10F12211   1.819   1.532   9.385  0.6773  1.0012 -0.7601
  116OSM   C11F12212   1.939   1.371   9.282  0.8710 -0.1930 -0.0517
  116OSM   H11F12213   1.861   1.293   9.269  0.7362 -0.0679 -0.0058
  116OSM   H11G12214   2.036   1.317   9.287 -0.0550 -2.1498 -1.8757
  116OSM   C12F12215   1.943   1.437   9.139 -0.2290 -0.5920  1.3376
  116OSM   H12F12216   2.022   1.514   9.129 -1.3390  0.3041 -1.2032
  116OSM   H12G12217   1.852   1.492   9.109  2.4228  2.2334 -2.6790
  116OSM   C13F12218   1.976   1.337   9.024 -0.7844 -0.2958 -0.4545
  116OSM   H13F12219   1.894   1.262   9.014 -1.3261 -0.0348  1.6290
  116OSM   H13G12220   2.067   1.276   9.042 -1.2343 -1.2154 -1.1835
  116OSM   C14F12221   1.976   1.418   8.892  0.2349 -0.1394  0.2029
  116OSM   H14F12222   2.060   1.491   8.902 -1.4233  1.8737  0.1939
  116OSM   H14G12223   1.888   1.486   8.892  0.8875  0.7341  0.7719
  116OSM   C15F12224   1.990   1.330   8.762  0.1749 -0.4713 -0.1303
  116OSM   H15F12225   1.960   1.405   8.686 -0.4633  2.8934  3.1693
  116OSM   H15G12226   1.913   1.250   8.769  1.0210 -1.4698 -1.6190
  116OSM   C16F12227   2.131   1.272   8.733  0.5148  0.6854 -0.3142
  116OSM   H16F12228   2.148   1.194   8.810 -1.9240  1.9451  1.6639
  116OSM   H16G12229   2.212   1.348   8.744  2.4000 -1.3781  0.9852
  116OSM   C17F12230   2.131   1.216   8.589 -0.1645  0.1341  0.7966
  116OSM   H17F12231   2.082   1.290   8.522  1.7666  1.2488  0.5138
  116OSM   H17G12232   2.076   1.120   8.584  1.1461 -0.7400  2.2396
  116OSM   C18F12233   2.272   1.185   8.536 -0.3814 -0.3153  0.0019
  116OSM   H18F12234   2.282   1.181   8.426 -0.7206  0.6344 -0.0753
  116OSM   H18G12235   2.314   1.093   8.583  0.3449  0.1844  0.3631
  116OSM   H18H12236   2.344   1.267   8.560 -1.2758  0.2676  0.7721
  117OSM      N12237   1.374   6.451  11.126  0.0832  0.6408 -0.3401
  117OSM    C1512238   1.249   6.359  11.142 -0.2437 -0.0397 -0.4240
  117OSM   H15A12239   1.246   6.320  11.243  0.9083  1.8531  0.3982
  117OSM   H15B12240   1.254   6.282  11.067 -0.2608 -0.3209 -0.1417
  117OSM   H15C12241   1.168   6.426  11.118 -0.3645  0.1326  0.4059
  117OSM    C1412242   1.348   6.575  11.209  0.0199 -0.3881  0.1766
  117OSM   H14A12243   1.432   6.641  11.219 -0.6469  0.3185  1.4992
  117OSM   H14B12244   1.318   6.540  11.307 -2.0248 -3.1426 -1.2713
  117OSM   H14C12245   1.270   6.638  11.167  0.4918 -0.8492 -1.4565
  117OSM    C1312246   1.498   6.378  11.193  0.4715 -0.2612 -0.0083
  117OSM   H13A12247   1.505   6.287  11.136  0.3117 -0.7044  0.6750
  117OSM   H13B12248   1.487   6.344  11.294  2.7922 -0.3763  0.2585
  117OSM   H13C12249   1.592   6.431  11.178 -0.8703  2.4986  0.6860
  117OSM    C1212250   1.406   6.490  10.987  0.3470  0.0773  0.0420
  117OSM   H12A12251   1.498   6.545  10.981  0.5338 -0.2538 -0.1507
  117OSM   H12B12252   1.329   6.557  10.950 -0.1816 -0.2858  0.4828
  117OSM    C1112253   1.418   6.371  10.880  0.0169 -0.5120  0.0335
  117OSM   H11A12254   1.423   6.421  10.781  0.0644  0.4948  0.5305
  117OSM   H11B12255   1.319   6.320  10.876 -0.1147 -0.2599  0.0350
  117OSM      P12256   1.523   6.146  10.904  0.0762 -0.2823 -0.4713
  117OSM    O1312257   1.659   6.096  10.912 -0.2881  0.4570 -0.4387
  117OSM    O1412258   1.435   6.103  11.012 -0.1375 -0.7095 -0.2101
  117OSM    O1112259   1.460   6.107  10.764 -0.5030 -0.3850 -0.0900
  117OSM    O1212260   1.534   6.295  10.903 -0.3390  0.0707  0.5195
  117OSM    C1S12261   1.335   6.042  10.751  0.1487  0.3630  0.0356
  117OSM    H1S12262   1.257   6.096  10.809  0.6081  2.3470 -1.1058
  117OSM    H1T12263   1.345   5.936  10.784  0.7721  0.8960  1.6592
  117OSM     NF12264   1.155   6.010  10.588  0.5741 -0.7648  0.3020
  117OSM    HNF12265   1.141   5.929  10.532  1.6208 -2.1189  1.8787
  117OSM    C2S12266   1.294   6.031  10.601 -0.7326 -0.0552  0.1641
  117OSM    H2S12267   1.304   6.127  10.546 -1.9505 -0.5366 -0.9421
  117OSM    C3S12268   1.381   5.920  10.537  0.2789  0.1741  0.3342
  117OSM    H3S12269   1.339   5.825  10.576  1.5232  0.6270  3.0091
  117OSM     O312270   1.523   5.909  10.578  0.5202 -0.1682 -0.1517
  117OSM    HO312271   1.536   5.982  10.639  0.1948  1.3005 -1.7625
  117OSM    C4S12272   1.357   5.929  10.388 -0.1875 -0.2628  0.0163
  117OSM    H4S12273   1.274   5.871  10.344  0.0153 -1.8384  1.5868
  117OSM    C5S12274   1.427   6.010  10.306  0.0173  0.0913 -0.2393
  117OSM    H5S12275   1.514   6.068  10.340 -1.3109  1.6766  0.5789
  117OSM    C6S12276   1.402   6.005  10.160  0.1943  0.4546  0.0110
  117OSM    H6S12277   1.428   6.102  10.111 -1.9457  1.6763  1.1392
  117OSM    H6T12278   1.293   6.003  10.139  0.3130  0.6215 -0.6661
  117OSM    C7S12279   1.467   5.889  10.084  0.1435  0.1140  0.1824
  117OSM    H7S12280   1.437   5.789  10.122  0.2816 -0.1598 -0.4175
  117OSM    H7T12281   1.574   5.887  10.114 -0.7078 -1.4983  3.5872
  117OSM    C8S12282   1.445   5.893   9.930  0.0079  0.0198  0.0241
  117OSM    H8S12283   1.335   5.898   9.916  0.2564  2.2472 -1.7101
  117OSM    H8T12284   1.471   5.799   9.875  0.6362  0.1684  0.0556
  117OSM    C9S12285   1.517   6.009   9.859 -0.0678  0.7026 -0.0756
  117OSM    H9S12286   1.624   5.980   9.860  0.0742  1.1921  1.4087
  117OSM    H9T12287   1.511   6.096   9.927  2.9869 -1.1281  2.8038
  117OSM   C10S12288   1.470   6.029   9.717  0.1147 -0.0482 -0.0195
  117OSM   H10S12289   1.525   6.116   9.674 -1.7579  1.0324 -0.3220
  117OSM   H10T12290   1.367   6.068   9.726 -0.0030  1.4216 -4.8387
  117OSM   C11S12291   1.467   5.906   9.629  0.2421 -0.0835  1.2692
  117OSM   H11S12292   1.381   5.836   9.645 -1.1544  0.3728 -3.0796
  117OSM   H11T12293   1.570   5.867   9.641  1.9533  3.6038 -0.2462
  117OSM   C12S12294   1.444   5.936   9.475 -0.1656  0.7251 -0.3711
  117OSM   H12S12295   1.366   6.015   9.467  2.8513  4.1128  0.4458
  117OSM   H12T12296   1.405   5.846   9.425  0.9029 -0.4330  0.8114
  117OSM   C13S12297   1.570   5.993   9.406 -0.0474 -0.7326 -0.4476
  117OSM   H13S12298   1.653   5.921   9.421  0.1068 -0.5978 -0.6448
  117OSM   H13T12299   1.585   6.079   9.475  0.8267 -1.5440  0.3940
  117OSM   C14S12300   1.540   6.045   9.259  0.5531  0.1006  0.6182
  117OSM   H14S12301   1.616   6.119   9.226  0.2002 -0.2791 -1.1667
  117OSM   H14T12302   1.436   6.084   9.256 -0.7776 -3.1178 -1.5078
  117OSM   C15S12303   1.556   5.917   9.167  0.0830 -0.4365 -0.1256
  117OSM   H15S12304   1.491   5.834   9.201 -1.1134  1.6151  2.9852
  117OSM   H15T12305   1.665   5.894   9.166  0.1163 -0.2947  0.1584
  117OSM   C16S12306   1.509   5.945   9.017  0.3135  0.3327 -0.0685
  117OSM   H16S12307   1.528   5.851   8.960 -0.4571  2.1385 -3.6052
  117OSM   H16T12308   1.568   6.030   8.976  3.3521 -2.1199 -1.1374
  117OSM   C17S12309   1.363   5.990   9.008  0.2460  0.1306  0.6496
  117OSM   H17S12310   1.345   6.075   9.076  0.5797 -0.0212  0.9295
  117OSM   H17T12311   1.297   5.906   9.039  0.7650 -0.3090  0.5895
  117OSM   C18S12312   1.323   6.035   8.866 -1.0470 -0.6405  0.1559
  117OSM   H18S12313   1.300   5.947   8.802 -1.0366 -0.8171  0.3975
  117OSM   H18T12314   1.396   6.105   8.819 -0.4799  0.4497  2.5504
  117OSM   H18U12315   1.234   6.099   8.886 -0.9657 -1.5920  4.2857
  117OSM    C1F12316   1.065   6.097  10.616 -0.4653  0.0859  0.0606
  117OSM     OF12317   1.094   6.209  10.658 -0.1110  0.2164  0.1017
  117OSM    C2F12318   0.925   6.062  10.587  0.0904 -0.3070  0.3051
  117OSM    H2F12319   0.867   6.062  10.682 -0.1630  1.8057  0.2053
  117OSM    H2G12320   0.924   5.963  10.537  0.5083  0.6765 -1.7765
  117OSM    C3F12321   0.864   6.161  10.481  0.5299 -0.3580 -0.3757
  117OSM    H3F12322   0.876   6.266  10.515  1.1497 -0.7191  0.5590
  117OSM    H3G12323   0.756   6.135  10.476  0.7309 -0.9943 -2.2610
  117OSM    C4F12324   0.903   6.142  10.340 -0.2209 -0.8914 -0.0179
  117OSM    H4F12325   0.830   6.197  10.277 -1.5712 -1.7140  0.7886
  117OSM    H4G12326   0.906   6.038  10.302  1.8720 -0.6851 -0.5687
  117OSM    C5F12327   1.043   6.213  10.304  0.6528  0.0708 -0.1192
  117OSM    H5F12328   1.122   6.141  10.333 -0.1225 -0.4147  0.8289
  117OSM    H5G12329   1.057   6.299  10.372  1.8249 -0.5186  0.4217
  117OSM    C6F12330   1.061   6.271  10.166 -0.0693 -1.0538 -0.1826
  117OSM    H6F12331   1.037   6.197  10.087 -0.2097 -1.6706  0.4329
  117OSM    H6G12332   1.165   6.311  10.157 -0.7388  0.4160 -2.6985
  117OSM    C7F12333   0.957   6.390  10.153 -0.0638  0.3042  0.1428
  117OSM    H7F12334   0.989   6.473  10.220  1.6675  1.2940 -1.7802
  117OSM    H7G12335   0.850   6.361  10.167 -1.2131  2.0528 -3.7180
  117OSM    C8F12336   0.967   6.447  10.016 -0.0733 -0.3843  0.3442
  117OSM    H8F12337   1.071   6.473   9.987 -0.5778  0.6693 -0.5710
  117OSM    H8G12338   0.911   6.543  10.017 -0.1749 -0.4148 -0.9272
  117OSM    C9F12339   0.908   6.362   9.903 -0.1058 -0.3413  0.1342
  117OSM    H9F12340   0.821   6.301   9.930 -0.8065  0.1244 -1.0155
  117OSM   C10F12341   0.952   6.342   9.778 -0.1721 -0.2650  0.2343
  117OSM   H10F12342   0.894   6.276   9.712  3.0989 -0.6998 -2.4565
  117OSM   C11F12343   1.066   6.411   9.710 -0.2844 -0.4745  0.4905
  117OSM   H11F12344   1.140   6.331   9.687 -0.1717 -0.0007 -0.8567
  117OSM   H11G12345   1.117   6.486   9.774  1.6669  0.7653 -2.3089
  117OSM   C12F12346   1.027   6.483   9.578 -0.3723  0.4295  0.0645
  117OSM   H12F12347   1.115   6.544   9.551  0.5584 -0.8822  0.0210
  117OSM   H12G12348   0.936   6.547   9.582 -1.9493 -1.5772 -1.0197
  117OSM   C13F12349   0.995   6.396   9.456  0.1365  0.4594 -0.1328
  117OSM   H13F12350   0.915   6.327   9.492  0.3652  0.1575 -0.2035
  117OSM   H13G12351   1.087   6.336   9.440  0.0487  0.4149 -0.4701
  117OSM   C14F12352   0.969   6.476   9.326  0.2006 -0.4609  0.1118
  117OSM   H14F12353   1.061   6.525   9.285 -0.7094  0.1141 -1.3310
  117OSM   H14G12354   0.908   6.565   9.353 -0.0920 -0.7426  0.3707
  117OSM   C15F12355   0.901   6.397   9.211  0.6533  0.0556  0.5594
  117OSM   H15F12356   0.807   6.363   9.259  1.3803 -1.3599  1.0336
  117OSM   H15G12357   0.967   6.310   9.192  0.5153  0.3005 -1.2689
  117OSM   C16F12358   0.888   6.479   9.082 -0.0635  0.6259  0.8008
  117OSM   H16F12359   0.982   6.533   9.060  0.0042  0.1917 -0.0349
  117OSM   H16G12360   0.804   6.548   9.104  1.0895  1.9785  1.0707
  117OSM   C17F12361   0.834   6.391   8.957 -0.2043 -0.3232 -0.1647
  117OSM   H17F12362   0.921   6.326   8.932 -0.4095 -1.4149  1.7567
  117OSM   H17G12363   0.831   6.458   8.868  0.4893  0.0465  0.0836
  117OSM   C18F12364   0.717   6.292   8.978 -0.0686 -0.1526  0.9948
  117OSM   H18F12365   0.627   6.352   9.006 -1.0121 -0.9450 -0.2201
  117OSM   H18G12366   0.741   6.213   9.052  2.7035  0.3754  0.7481
  117OSM   H18H12367   0.701   6.246   8.878  0.5752  1.3261  0.1850
  118OSM      N12368   6.794   2.123  11.314 -0.3158  0.0780 -0.1866
  118OSM    C1512369   6.864   2.014  11.380 -0.5248  0.2540 -0.6174
  118OSM   H15A12370   6.971   2.019  11.377 -0.3637 -2.0165 -0.0495
  118OSM   H15B12371   6.836   1.918  11.338 -0.3454  0.3396 -0.9390
  118OSM   H15C12372   6.831   2.013  11.483 -0.9313 -0.7724 -0.7474
  118OSM    C1412373   6.655   2.123  11.375  0.6008 -0.5383 -0.3864
  118OSM   H14A12374   6.600   2.201  11.324 -1.0160 -2.2297 -1.3435
  118OSM   H14B12375   6.656   2.153  11.479 -0.7638 -0.6334 -0.3264
  118OSM   H14C12376   6.619   2.022  11.376 -2.2527  0.3713  0.6915
  118OSM    C1312377   6.867   2.244  11.359  0.6481  0.9081 -0.3536
  118OSM   H13A12378   6.956   2.264  11.301  0.1902 -0.2941 -1.5342
  118OSM   H13B12379   6.914   2.233  11.456  0.2320  1.5439 -0.0747
  118OSM   H13C12380   6.806   2.332  11.353 -0.4450  0.0758 -2.4364
  118OSM    C1212381   6.797   2.104  11.165 -0.6786 -0.3722 -0.2532
  118OSM   H12A12382   6.892   2.123  11.117 -0.3681  1.1595  0.8834
  118OSM   H12B12383   6.746   2.190  11.124 -0.0006 -0.3931 -1.1657
  118OSM    C1112384   6.729   1.970  11.118 -0.1035 -0.1328  0.2750
  118OSM   H11A12385   6.701   1.993  11.014  0.7132 -1.2052 -0.2062
  118OSM   H11B12386   6.636   1.948  11.175  0.1402 -0.9983  0.3478
  118OSM      P12387   6.877   1.773  11.004  0.2468  0.2835 -0.1804
  118OSM    O1312388   7.015   1.816  10.962  0.5392  0.3169 -0.5526
  118OSM    O1412389   6.871   1.626  11.038 -0.3070  0.1553 -0.3194
  118OSM    O1112390   6.764   1.798  10.897 -0.5048 -0.5568  0.5500
  118OSM    O1212391   6.825   1.861  11.120  0.2484  0.2170  0.0751
  118OSM    C1S12392   6.762   1.784  10.752 -0.4625 -0.1847  0.9524
  118OSM    H1S12393   6.839   1.710  10.724 -1.0262 -1.2170  2.0509
  118OSM    H1T12394   6.799   1.884  10.720 -1.5540  0.7565  2.4741
  118OSM     NF12395   6.628   1.726  10.559  0.0059  0.5962  0.5362
  118OSM    HNF12396   6.610   1.805  10.502 -3.5496 -0.0885  0.4890
  118OSM    C2S12397   6.620   1.751  10.705  0.4956 -0.5190  0.7970
  118OSM    H2S12398   6.592   1.659  10.760  0.7912  0.4082  2.5655
  118OSM    C3S12399   6.524   1.866  10.752 -0.1510 -0.5350  0.0837
  118OSM    H3S12400   6.570   1.959  10.713  0.2696 -0.9104 -0.3143
  118OSM     O312401   6.510   1.876  10.893  0.5105  0.5475 -0.8242
  118OSM    HO312402   6.591   1.837  10.926  0.6012  1.7803  0.4648
  118OSM    C4S12403   6.387   1.853  10.699 -0.3175 -0.5602  0.7740
  118OSM    H4S12404   6.328   1.776  10.751 -0.1134 -0.1571  1.6152
  118OSM    C5S12405   6.340   1.955  10.625  0.1492 -0.2390 -0.3143
  118OSM    H5S12406   6.412   2.035  10.599  0.5837 -0.5984 -0.2166
  118OSM    C6S12407   6.191   1.975  10.581 -0.1333  0.4120  0.7756
  118OSM    H6S12408   6.147   2.072  10.611 -3.2179 -0.5954 -0.0751
  118OSM    H6T12409   6.137   1.897  10.640  0.5273 -0.9065 -0.3003
  118OSM    C7S12410   6.167   1.941  10.429  0.3710 -0.8328 -0.7576
  118OSM    H7S12411   6.242   2.001  10.372  0.2468  0.7595  0.6832
  118OSM    H7T12412   6.066   1.969  10.394  0.0793 -1.0322 -0.0886
  118OSM    C8S12413   6.173   1.788  10.398  0.3525  0.7181  0.0752
  118OSM    H8S12414   6.079   1.732  10.418 -0.3234  0.9736 -2.1229
  118OSM    H8T12415   6.259   1.754  10.461  0.6619  1.7440  0.2210
  118OSM    C9S12416   6.207   1.757  10.256  0.4447  0.8869 -0.1282
  118OSM    H9S12417   6.314   1.786  10.243  1.1181 -1.2229  0.2891
  118OSM    H9T12418   6.136   1.817  10.196 -1.3439 -2.2015 -1.3648
  118OSM   C10S12419   6.192   1.610  10.215 -0.1715  0.2799  0.2754
  118OSM   H10S12420   6.086   1.584  10.233 -0.0599  0.3151  1.0437
  118OSM   H10T12421   6.268   1.556  10.276 -0.6171  0.0231  0.6050
  118OSM   C11S12422   6.231   1.577  10.072  0.5637  0.7027  0.0252
  118OSM   H11S12423   6.342   1.581  10.071  0.6171  0.9061  2.1707
  118OSM   H11T12424   6.186   1.657  10.009 -0.3865  0.6248  0.5837
  118OSM   C12S12425   6.175   1.439  10.021 -0.7418 -0.9459 -0.8592
  118OSM   H12S12426   6.066   1.431  10.041 -1.0207  1.4477 -1.0942
  118OSM   H12T12427   6.226   1.367  10.089 -1.9267 -0.6321  0.3999
  118OSM   C13S12428   6.215   1.401   9.879  0.8888 -0.8662 -0.7236
  118OSM   H13S12429   6.325   1.392   9.880  0.8423 -1.4503  0.8980
  118OSM   H13T12430   6.188   1.484   9.809  0.6396  0.0492  0.4329
  118OSM   C14S12431   6.158   1.265   9.840 -0.0935  0.0503  0.0502
  118OSM   H14S12432   6.048   1.273   9.849  0.0819  2.6059  0.9115
  118OSM   H14T12433   6.183   1.195   9.922  0.3914  0.3622  0.1803
  118OSM   C15S12434   6.214   1.212   9.703 -0.0744  0.4508 -0.5309
  118OSM   H15S12435   6.324   1.210   9.719 -0.2422 -0.2415  0.7520
  118OSM   H15T12436   6.191   1.280   9.619 -2.7082 -1.7860 -1.7555
  118OSM   C16S12437   6.165   1.069   9.662  0.5126  0.1557  0.3782
  118OSM   H16S12438   6.054   1.069   9.656  0.3929 -0.5969  2.1541
  118OSM   H16T12439   6.193   0.991   9.736  1.4217  2.5137  2.6455
  118OSM   C17S12440   6.227   1.029   9.526 -0.3690  0.0510  0.2660
  118OSM   H17S12441   6.337   1.031   9.540 -0.4883  1.5649  1.1504
  118OSM   H17T12442   6.197   1.092   9.439  0.6997 -0.4522 -0.4890
  118OSM   C18S12443   6.199   0.883   9.487 -0.7620 -0.1055  0.5581
  118OSM   H18S12444   6.228   0.791   9.542  0.9974 -0.0806 -0.2501
  118OSM   H18T12445   6.229   0.869   9.381  2.0408  2.3977  0.8758
  118OSM   H18U12446   6.089   0.877   9.492 -0.7366 -0.3234  0.9206
  118OSM    C1F12447   6.691   1.619  10.502  0.3250  0.5184  0.3758
  118OSM     OF12448   6.706   1.520  10.576  0.9112  0.3116  0.2148
  118OSM    C2F12449   6.739   1.642  10.367 -0.2047 -0.4504  0.1713
  118OSM    H2F12450   6.850   1.646  10.368 -0.2129  0.1535  1.4423
  118OSM    H2G12451   6.702   1.742  10.337  1.8176 -0.0043 -1.0525
  118OSM    C3F12452   6.681   1.541  10.258 -0.3541 -0.7550  0.4286
  118OSM    H3F12453   6.576   1.575  10.253 -0.0455  0.0235 -2.4328
  118OSM    H3G12454   6.694   1.442  10.307 -0.1290 -0.3466  1.2102
  118OSM    C4F12455   6.734   1.537  10.113  0.5694 -0.2960  0.0945
  118OSM    H4F12456   6.683   1.461  10.049 -2.8921  0.8061  1.2865
  118OSM    H4G12457   6.840   1.505  10.111  0.8655  0.6458  0.2870
  118OSM    C5F12458   6.725   1.670  10.037 -0.3470  0.4739 -0.3481
  118OSM    H5F12459   6.800   1.735  10.087 -0.2156  0.4241 -0.4790
  118OSM    H5G12460   6.622   1.711  10.036 -0.7588 -0.5153 -1.3890
  118OSM    C6F12461   6.744   1.657   9.889  0.4131  0.2451  0.1224
  118OSM    H6F12462   6.653   1.602   9.857 -0.2722  0.9500  0.8092
  118OSM    H6G12463   6.829   1.587   9.880  0.1642 -0.0169 -0.1940
  118OSM    C7F12464   6.747   1.793   9.811 -0.2125  0.1446  0.3195
  118OSM    H7F12465   6.845   1.844   9.826 -0.1768 -0.4947  2.6125
  118OSM    H7G12466   6.677   1.861   9.863  1.2985  3.1318 -1.2948
  118OSM    C8F12467   6.715   1.764   9.656  0.2274 -0.9634  0.3693
  118OSM    H8F12468   6.793   1.695   9.618  0.8364  0.7695 -1.7340
  118OSM    H8G12469   6.729   1.861   9.602  0.5114 -1.1874  0.0347
  118OSM    C9F12470   6.572   1.732   9.630 -0.4243 -0.3892 -0.0311
  118OSM    H9F12471   6.499   1.802   9.672 -0.8933 -1.5461  1.1499
  118OSM   C10F12472   6.522   1.615   9.579 -0.7913 -0.1509  0.9811
  118OSM   H10F12473   6.413   1.604   9.581 -1.0303  1.8540  0.5867
  118OSM   C11F12474   6.608   1.494   9.534 -0.6148  0.2809 -0.4763
  118OSM   H11F12475   6.563   1.394   9.551  1.7579 -0.9642 -0.9873
  118OSM   H11G12476   6.701   1.481   9.593  0.7026  2.3886 -1.9390
  118OSM   C12F12477   6.642   1.503   9.379  0.6401  0.9074  0.3339
  118OSM   H12F12478   6.706   1.591   9.358  3.8994 -0.9379  1.8138
  118OSM   H12G12479   6.543   1.509   9.330 -0.0319 -2.1428  1.1254
  118OSM   C13F12480   6.716   1.390   9.320 -0.3004  0.6855 -0.7822
  118OSM   H13F12481   6.669   1.301   9.366  0.5192  0.3347 -0.5900
  118OSM   H13G12482   6.816   1.401   9.367 -1.7226  1.3849  2.3456
  118OSM   C14F12483   6.717   1.392   9.165  0.2768  0.0953  0.0199
  118OSM   H14F12484   6.769   1.489   9.146 -1.6343  1.4453  1.2781
  118OSM   H14G12485   6.618   1.400   9.115  1.8391 -1.4033 -3.6588
  118OSM   C15F12486   6.785   1.272   9.098  0.4051  0.2191  0.5867
  118OSM   H15F12487   6.883   1.251   9.144  1.9449  2.6971 -1.2761
  118OSM   H15G12488   6.802   1.313   8.996 -1.8376  0.9565  0.4472
  118OSM   C16F12489   6.709   1.144   9.072  0.1058 -0.3269 -0.2835
  118OSM   H16F12490   6.772   1.074   9.012  1.9921  1.0683 -0.0380
  118OSM   H16G12491   6.622   1.172   9.009  1.3799  2.2314 -1.0552
  118OSM   C17F12492   6.671   1.068   9.193  0.3223  0.5023 -0.1555
  118OSM   H17F12493   6.589   1.125   9.241 -0.6117  0.9773 -2.2265
  118OSM   H17G12494   6.761   1.062   9.257  1.1150  0.5269 -1.2456
  118OSM   C18F12495   6.614   0.924   9.159 -0.1446 -0.2231 -0.1821
  118OSM   H18F12496   6.520   0.928   9.101  0.6483 -1.6819 -1.6544
  118OSM   H18G12497   6.597   0.864   9.251 -2.7279  0.0025 -0.4380
  118OSM   H18H12498   6.687   0.868   9.096 -0.6170  0.2497 -1.1650
  119OSM      N12499   0.683   6.214  11.025 -0.0540 -0.1097 -0.0603
  119OSM    C1512500   0.774   6.323  11.074  0.2400 -0.6321 -0.2580
  119OSM   H15A12501   0.874   6.284  11.093  0.3349  0.4385  1.6420
  119OSM   H15B12502   0.737   6.379  11.159 -0.8947 -0.6966 -0.7001
  119OSM   H15C12503   0.776   6.388  10.989  0.5830 -3.6389 -2.7409
  119OSM    C1412504   0.747   6.146  10.909 -0.0879  0.4065 -0.3920
  119OSM   H14A12505   0.844   6.116  10.943 -0.5047 -0.4647  0.0706
  119OSM   H14B12506   0.750   6.208  10.820 -0.7333  0.7005 -0.2216
  119OSM   H14C12507   0.696   6.056  10.878  0.1081  0.3168 -0.4529
  119OSM    C1312508   0.673   6.127  11.143 -0.1189  0.8402  0.0239
  119OSM   H13A12509   0.598   6.049  11.136  0.8184 -0.2009  1.0689
  119OSM   H13B12510   0.655   6.187  11.230  2.3019  0.5159  0.8182
  119OSM   H13C12511   0.756   6.061  11.162 -0.1122  1.2924  1.6992
  119OSM    C1212512   0.545   6.275  10.986  0.2144  0.0611  0.4861
  119OSM   H12A12513   0.515   6.333  11.072 -0.5758 -1.3891  1.2272
  119OSM   H12B12514   0.476   6.192  10.981 -2.6439  2.0836  2.9279
  119OSM    C1112515   0.543   6.375  10.866 -0.0436  0.1092 -0.0785
  119OSM   H11A12516   0.434   6.395  10.857  0.3987  1.7751 -2.3649
  119OSM   H11B12517   0.580   6.308  10.786 -0.9768 -1.0682  0.4357
  119OSM      P12518   0.579   6.627  10.933 -0.6171  0.4654  0.0118
  119OSM    O1312519   0.533   6.600  11.073 -0.3425 -0.4598 -0.3122
  119OSM    O1412520   0.680   6.735  10.917 -0.7272  0.3785  0.2876
  119OSM    O1112521   0.455   6.654  10.840  0.3316 -0.4271  0.4772
  119OSM    O1212522   0.638   6.482  10.878 -0.1308 -0.7293 -0.3884
  119OSM    C1S12523   0.472   6.677  10.703 -0.2464 -0.1298  0.6616
  119OSM    H1S12524   0.529   6.594  10.656 -0.3898 -0.1325  0.4898
  119OSM    H1T12525   0.544   6.761  10.692  0.6151 -0.8910  0.3225
  119OSM     NF12526   0.355   6.714  10.487  0.9883 -0.8272  0.4350
  119OSM    HNF12527   0.329   6.802  10.448  0.0537 -0.3980  1.9407
  119OSM    C2S12528   0.331   6.703  10.633 -0.2953  0.0388  0.4894
  119OSM    H2S12529   0.277   6.609  10.654 -1.4140  0.8557  1.4182
  119OSM    C3S12530   0.268   6.827  10.702 -0.2284 -0.2022  0.1517
  119OSM    H3S12531   0.337   6.910  10.674  0.1860 -0.3299  0.7676
  119OSM     O312532   0.265   6.827  10.845 -0.6994 -0.2469 -0.7168
  119OSM    HO312533   0.343   6.772  10.855 -1.6288 -1.5064 -0.2804
  119OSM    C4S12534   0.137   6.858  10.641  0.3418 -0.4973  0.3054
  119OSM    H4S12535   0.143   6.908  10.544  0.4278 -2.6727 -0.8717
  119OSM    C5S12536   0.012   6.818  10.671  0.2308  0.6143 -0.2061
  119OSM    H5S12537  -0.013   6.757  10.759  0.1729 -0.3597 -0.8757
  119OSM    C6S12538  -0.106   6.865  10.591 -0.3416 -0.0318 -0.7947
  119OSM    H6S12539  -0.137   6.963  10.633 -1.6669 -0.1328 -1.4535
  119OSM    H6T12540  -0.180   6.786  10.618  0.9858 -0.8463  0.5914
  119OSM    C7S12541  -0.090   6.890  10.435  0.7427  0.0639 -0.3014
  119OSM    H7S12542  -0.014   6.968  10.415  1.9560 -0.9882  0.0353
  119OSM    H7T12543  -0.185   6.933  10.397 -1.0333 -1.7993  1.7251
  119OSM    C8S12544  -0.067   6.752  10.362 -0.1896 -0.1046  0.8778
  119OSM    H8S12545  -0.158   6.688  10.355 -0.1286 -0.0506 -0.9879
  119OSM    H8T12546   0.001   6.685  10.418 -0.2990 -0.9215  0.0623
  119OSM    C9S12547  -0.005   6.771  10.224 -0.3379  0.1433 -0.5446
  119OSM    H9S12548   0.020   6.671  10.183 -1.6861 -0.0891 -0.8235
  119OSM    H9T12549   0.093   6.822  10.239 -0.6202  0.0433  2.1017
  119OSM   C10S12550  -0.098   6.846  10.138 -0.1648 -0.6139 -0.3003
  119OSM   H10S12551  -0.038   6.919  10.079 -0.5343  0.0065  0.0823
  119OSM   H10T12552  -0.177   6.902  10.192 -1.1498 -2.8769  0.7384
  119OSM   C11S12553  -0.179   6.746  10.050 -0.8506  0.1385  0.5389
  119OSM   H11S12554  -0.278   6.781  10.015 -1.0249 -0.5985  0.2664
  119OSM   H11T12555  -0.202   6.658  10.114 -0.1157  1.3205  2.4969
  119OSM   C12S12556  -0.107   6.704   9.920  0.3857 -0.0930 -0.2279
  119OSM   H12S12557  -0.007   6.662   9.945  0.0270  0.5495  2.6652
  119OSM   H12T12558  -0.096   6.796   9.859 -0.5980  1.9622  2.4811
  119OSM   C13S12559  -0.199   6.610   9.835  0.0855  0.1681  0.6173
  119OSM   H13S12560  -0.298   6.657   9.818 -0.5380 -1.3331 -0.0100
  119OSM   H13T12561  -0.216   6.513   9.886  0.7426  0.3821  1.2624
  119OSM   C14S12562  -0.140   6.600   9.690  0.1187  0.4478  0.9073
  119OSM   H14S12563  -0.134   6.702   9.646 -0.2372 -0.9307 -2.7541
  119OSM   H14T12564  -0.213   6.547   9.625  2.0611  0.8375 -1.7515
  119OSM   C15S12565  -0.006   6.533   9.680 -0.7617  0.4465 -0.9056
  119OSM   H15S12566  -0.010   6.448   9.751 -1.3549  1.2437  0.0449
  119OSM   H15T12567   0.076   6.600   9.715 -0.3246 -0.0173 -1.0294
  119OSM   C16S12568   0.013   6.480   9.537  0.2448  0.6526 -0.3494
  119OSM   H16S12569   0.014   6.567   9.468  1.9381  1.0704  0.1552
  119OSM   H16T12570  -0.074   6.416   9.511 -0.0949  1.4918 -1.3418
  119OSM   C17S12571   0.156   6.411   9.522  0.4603 -0.1582  0.2011
  119OSM   H17S12572   0.172   6.372   9.420 -1.2567  1.6679 -0.8571
  119OSM   H17T12573   0.147   6.324   9.591 -1.7641 -0.6494 -0.6168
  119OSM   C18S12574   0.279   6.498   9.556  0.5910 -0.4568 -0.4297
  119OSM   H18S12575   0.371   6.437   9.567  0.1715 -1.3333 -1.5703
  119OSM   H18T12576   0.264   6.557   9.648  2.0873 -0.5433 -0.0921
  119OSM   H18U12577   0.299   6.569   9.473 -1.9729  1.8721  0.8025
  119OSM    C1F12578   0.405   6.619  10.409  0.1667  0.3482 -0.0422
  119OSM     OF12579   0.443   6.509  10.456 -0.2217  0.5269 -0.0269
  119OSM    C2F12580   0.407   6.647  10.256 -0.1222  0.3321 -0.2152
  119OSM    H2F12581   0.452   6.749  10.254 -1.8585  1.2049  1.4099
  119OSM    H2G12582   0.304   6.639  10.214  0.6791 -1.3474 -1.9816
  119OSM    C3F12583   0.510   6.554  10.184  0.1128 -0.3918  0.2207
  119OSM    H3F12584   0.461   6.456  10.201 -2.8280  1.3399  2.6784
  119OSM    H3G12585   0.612   6.552  10.229 -0.0754  1.3030  0.7568
  119OSM    C4F12586   0.523   6.587  10.034 -0.2163  0.0320 -0.1211
  119OSM    H4F12587   0.423   6.610   9.991  0.3858  1.3291 -0.8693
  119OSM    H4G12588   0.572   6.501   9.983 -1.4347 -0.5728 -0.3105
  119OSM    C5F12589   0.621   6.705  10.009  0.7242 -0.0899 -0.0964
  119OSM    H5F12590   0.729   6.677  10.015  1.2540  1.7339 -0.2795
  119OSM    H5G12591   0.606   6.788  10.081  1.0374 -1.7490  1.9633
  119OSM    C6F12592   0.603   6.753   9.862 -0.1977 -0.1999 -0.2484
  119OSM    H6F12593   0.653   6.851   9.843 -0.7130 -0.1390 -1.3913
  119OSM    H6G12594   0.497   6.786   9.857  0.0168  0.4946 -0.3679
  119OSM    C7F12595   0.635   6.644   9.757  0.6284 -0.6256 -1.3768
  119OSM    H7F12596   0.571   6.554   9.776  1.5753 -0.9411  0.5632
  119OSM    H7G12597   0.738   6.604   9.764  0.4042 -0.9216  0.8052
  119OSM    C8F12598   0.606   6.696   9.622  0.5193 -0.6172  0.8595
  119OSM    H8F12599   0.669   6.784   9.597 -0.0650 -0.8403 -1.6152
  119OSM    H8G12600   0.498   6.722   9.617  1.0808  2.2074  1.4021
  119OSM    C9F12601   0.627   6.593   9.510 -0.8733 -0.5501  0.3302
  119OSM    H9F12602   0.682   6.502   9.539  1.1466  1.1380  2.0258
  119OSM   C10F12603   0.583   6.602   9.382 -0.1030 -0.0800 -0.6718
  119OSM   H10F12604   0.591   6.508   9.326  1.1272 -1.0871  1.1055
  119OSM   C11F12605   0.511   6.716   9.314  0.0708 -0.2775 -0.2877
  119OSM   H11F12606   0.563   6.806   9.354 -0.4542 -0.9952  2.1717
  119OSM   H11G12607   0.410   6.717   9.360  0.5334  0.9864  0.7744
  119OSM   C12F12608   0.499   6.713   9.159  0.0261 -0.4271  0.9672
  119OSM   H12F12609   0.599   6.718   9.111 -0.7113 -1.2864 -0.7657
  119OSM   H12G12610   0.443   6.803   9.127  0.0110 -0.1940  1.6453
  119OSM   C13F12611   0.418   6.598   9.099 -0.0660 -0.1277 -0.2500
  119OSM   H13F12612   0.325   6.588   9.160 -1.1992 -1.4074 -2.0867
  119OSM   H13G12613   0.483   6.508   9.094  1.0419  0.5275  1.4511
  119OSM   C14F12614   0.381   6.624   8.949  0.1854 -0.9050 -0.1707
  119OSM   H14F12615   0.468   6.618   8.880 -2.1103  1.1333 -3.5257
  119OSM   H14G12616   0.337   6.726   8.942  3.8652  0.8682 -0.0825
  119OSM   C15F12617   0.281   6.516   8.904  0.5192  0.4363  0.2766
  119OSM   H15F12618   0.192   6.526   8.969 -1.7678  1.6571 -2.8122
  119OSM   H15G12619   0.322   6.413   8.899 -1.0505 -0.3658  2.3773
  119OSM   C16F12620   0.233   6.537   8.760 -0.6958  0.3116 -0.3373
  119OSM   H16F12621   0.322   6.521   8.694 -1.4041  0.9773 -1.4968
  119OSM   H16G12622   0.205   6.644   8.747 -1.3219  0.1195 -0.5889
  119OSM   C17F12623   0.136   6.434   8.709 -0.7278  0.3480  0.3484
  119OSM   H17F12624   0.044   6.449   8.770 -2.1890  0.0747 -1.6665
  119OSM   H17G12625   0.178   6.332   8.724  0.5768  0.5074 -1.8289
  119OSM   C18F12626   0.110   6.444   8.561  0.4520 -0.4532  0.5795
  119OSM   H18F12627   0.045   6.367   8.514 -0.6980  0.8484 -0.0463
  119OSM   H18G12628   0.204   6.437   8.502  0.4163 -0.9678  0.5741
  119OSM   H18H12629   0.066   6.544   8.540  2.5966  1.3025  3.7384
  120OSM      N12630   1.669   5.236  10.725  0.6879 -0.6807  0.3322
  120OSM    C1512631   1.582   5.276  10.835  0.7762  0.4708  0.2000
  120OSM   H15A12632   1.625   5.325  10.921 -0.5041  1.0862  0.5043
  120OSM   H15B12633   1.542   5.182  10.871  0.2977  0.2127 -0.9493
  120OSM   H15C12634   1.497   5.337  10.809 -0.3744 -0.2858  1.9877
  120OSM    C1412635   1.748   5.356  10.688  0.3926  0.3466 -1.0370
  120OSM   H14A12636   1.829   5.333  10.621  1.0470  0.4325 -0.2924
  120OSM   H14B12637   1.790   5.394  10.780 -2.2396  0.6403  0.1241
  120OSM   H14C12638   1.687   5.435  10.647 -0.6629 -0.3362 -0.8423
  120OSM    C1312639   1.756   5.126  10.778  0.2043 -0.8485 -0.5962
  120OSM   H13A12640   1.788   5.158  10.877 -3.0941  1.2299 -0.0377
  120OSM   H13B12641   1.829   5.103  10.702 -1.7196 -1.8146 -2.2509
  120OSM   H13C12642   1.693   5.041  10.800 -1.5929  0.7429  0.8825
  120OSM    C1212643   1.588   5.186  10.606  0.9117  0.1732  0.7299
  120OSM   H12A12644   1.653   5.192  10.520 -0.4840 -1.4483 -0.5050
  120OSM   H12B12645   1.499   5.246  10.590  0.3395 -0.8874 -0.1708
  120OSM    C1112646   1.528   5.044  10.614 -0.2855 -0.5384 -0.2086
  120OSM   H11A12647   1.448   5.022  10.540 -1.5577 -2.2094  1.5757
  120OSM   H11B12648   1.473   5.028  10.708 -0.2600  0.5324  0.0016
  120OSM      P12649   1.687   4.890  10.474 -0.4543 -0.2006 -0.0180
  120OSM    O1312650   1.762   5.005  10.414  0.0373  0.6099  0.0730
  120OSM    O1412651   1.773   4.777  10.509 -0.5183 -0.1371  0.0636
  120OSM    O1112652   1.570   4.843  10.378  0.3000  0.3219 -0.0149
  120OSM    O1212653   1.625   4.940  10.605  0.7238 -0.1085  0.3979
  120OSM    C1S12654   1.514   4.934  10.285 -0.0037 -0.3784 -0.2817
  120OSM    H1S12655   1.588   4.958  10.206  0.4816  0.3557  0.3796
  120OSM    H1T12656   1.486   5.033  10.328  1.4347  0.7130 -1.7444
  120OSM     NF12657   1.348   4.938  10.103  0.6622  0.6700 -0.3415
  120OSM    HNF12658   1.263   4.991  10.107 -0.3800 -0.9493 -0.1544
  120OSM    C2S12659   1.392   4.859  10.222  0.1119  0.6031 -0.4808
  120OSM    H2S12660   1.411   4.757  10.184  0.0106  1.4082 -2.8209
  120OSM    C3S12661   1.282   4.845  10.328  0.0286  0.5950 -0.2709
  120OSM    H3S12662   1.253   4.947  10.360  1.0928  0.6163  0.6744
  120OSM     O312663   1.322   4.781  10.450 -0.0287  0.5862 -0.2696
  120OSM    HO312664   1.410   4.745  10.439 -0.1973 -0.4563  1.5059
  120OSM    C4S12665   1.162   4.779  10.267 -0.2895 -0.0504  1.7190
  120OSM    H4S12666   1.100   4.846  10.206 -0.2492 -0.4704  1.2086
  120OSM    C5S12667   1.125   4.655  10.271 -0.0810  0.8775 -0.4601
  120OSM    H5S12668   1.197   4.585  10.316  3.3606  2.6090 -2.7911
  120OSM    C6S12669   1.012   4.601  10.188 -0.3485  0.1314  0.4043
  120OSM    H6S12670   0.950   4.534  10.251 -0.6755 -2.7979 -2.7285
  120OSM    H6T12671   1.068   4.538  10.115 -2.6145  0.7447 -2.0384
  120OSM    C7S12672   0.931   4.689  10.089  0.0051  0.2055  0.6573
  120OSM    H7S12673   0.890   4.779  10.138 -1.0502  0.6813 -1.0214
  120OSM    H7T12674   0.845   4.628  10.055  0.9383 -0.5453 -0.4640
  120OSM    C8S12675   1.002   4.737   9.968 -0.4125 -0.2921  0.8631
  120OSM    H8S12676   1.018   4.653   9.897 -1.8972  0.5695 -0.5518
  120OSM    H8T12677   1.099   4.788   9.983  0.3372 -0.5614 -2.3480
  120OSM    C9S12678   0.916   4.848   9.895 -0.3618 -0.2995  0.1365
  120OSM    H9S12679   0.934   4.948   9.941 -0.8991  0.3508 -1.0294
  120OSM    H9T12680   0.808   4.824   9.898 -0.1157 -1.4428  3.5528
  120OSM   C10S12681   0.960   4.863   9.750 -0.0778 -0.2528  0.6612
  120OSM   H10S12682   0.956   4.762   9.704  0.5397  0.1956 -0.4189
  120OSM   H10T12683   1.065   4.900   9.743 -0.6747  1.6178  0.9302
  120OSM   C11S12684   0.870   4.949   9.662 -0.2179 -0.1333 -0.8380
  120OSM   H11S12685   0.875   5.047   9.714 -2.8070 -0.8658  1.0405
  120OSM   H11T12686   0.762   4.925   9.655  0.2650 -2.5930 -0.5669
  120OSM   C12S12687   0.933   4.974   9.525  0.3230 -0.1450 -0.0472
  120OSM   H12S12688   0.928   4.885   9.458 -0.5628 -2.0332  2.3944
  120OSM   H12T12689   1.041   4.998   9.540  0.6661 -2.7389  2.5604
  120OSM   C13S12690   0.849   5.081   9.458  0.2615  0.3750 -0.1882
  120OSM   H13S12691   0.830   5.166   9.528 -0.8063 -0.2884  0.3464
  120OSM   H13T12692   0.756   5.031   9.424  0.3744 -1.0127  1.4171
  120OSM   C14S12693   0.926   5.140   9.336 -0.2283  0.4743 -0.2240
  120OSM   H14S12694   1.035   5.127   9.351 -0.0727  1.6831 -0.2145
  120OSM   H14T12695   0.911   5.249   9.317 -0.4689  0.6231  0.7668
  120OSM   C15S12696   0.887   5.081   9.200  0.1425  0.3178  0.2962
  120OSM   H15S12697   0.889   4.970   9.195 -2.2754  0.1469  1.2690
  120OSM   H15T12698   0.945   5.122   9.115 -1.6424 -0.1809 -1.2434
  120OSM   C16S12699   0.734   5.099   9.166  0.0566 -0.5216  0.0735
  120OSM   H16S12700   0.711   5.203   9.197  1.6758 -0.1922  0.2351
  120OSM   H16T12701   0.675   5.042   9.240 -0.4561  1.1844  1.0285
  120OSM   C17S12702   0.696   5.081   9.022 -0.2018  0.3913  0.1984
  120OSM   H17S12703   0.587   5.087   9.000 -0.4389 -2.5215  0.1689
  120OSM   H17T12704   0.724   4.982   8.981  0.0627  1.0021 -1.1849
  120OSM   C18S12705   0.767   5.185   8.923  0.3035 -0.1049  0.0936
  120OSM   H18S12706   0.701   5.176   8.833 -1.5987  1.3480  1.2691
  120OSM   H18T12707   0.875   5.169   8.903  0.5956  1.9212 -0.2082
  120OSM   H18U12708   0.747   5.280   8.976  2.2284 -0.5830  1.7665
  120OSM    C1F12709   1.418   4.933   9.989  0.4125  0.7402 -0.5828
  120OSM     OF12710   1.518   4.864   9.991  0.1958  0.1037  0.0699
  120OSM    C2F12711   1.362   5.012   9.874 -0.1720 -0.7752  0.6156
  120OSM    H2F12712   1.351   5.120   9.898  1.4302 -0.2484 -0.8103
  120OSM    H2G12713   1.269   4.972   9.828  0.0994 -0.5576 -0.1435
  120OSM    C3F12714   1.470   5.039   9.760  0.1841 -0.1705 -0.0177
  120OSM    H3F12715   1.518   4.940   9.743 -1.3513 -1.1604  1.1138
  120OSM    H3G12716   1.550   5.109   9.791  0.1753  0.2270 -0.8434
  120OSM    C4F12717   1.411   5.092   9.619 -0.4106 -0.5209  0.4389
  120OSM    H4F12718   1.377   5.197   9.616  0.2113 -0.2649  1.6401
  120OSM    H4G12719   1.325   5.028   9.589  0.2888 -0.6737 -1.4377
  120OSM    C5F12720   1.517   5.064   9.507  0.6694 -0.3886 -0.1853
  120OSM    H5F12721   1.529   4.954   9.507 -0.3945 -0.5234  0.7273
  120OSM    H5G12722   1.618   5.109   9.520  0.3635  0.2476  0.0215
  120OSM    C6F12723   1.460   5.112   9.373 -0.8451 -0.2648  0.2573
  120OSM    H6F12724   1.443   5.221   9.381  1.0143  0.0007  1.0930
  120OSM    H6G12725   1.370   5.060   9.333  0.0553 -0.3165 -1.8257
  120OSM    C7F12726   1.572   5.099   9.271 -0.4844  0.0405 -0.2331
  120OSM    H7F12727   1.516   5.068   9.180  0.4365 -0.7254 -0.5454
  120OSM    H7G12728   1.651   5.025   9.295 -0.9660  0.0860  1.6385
  120OSM    C8F12729   1.622   5.239   9.225  0.4768  0.3368 -0.4439
  120OSM    H8F12730   1.684   5.269   9.314  1.8445  0.6628 -1.4672
  120OSM    H8G12731   1.540   5.314   9.220  2.0412  2.3563  1.5394
  120OSM    C9F12732   1.722   5.223   9.117  0.2128  0.2572 -0.4381
  120OSM    H9F12733   1.801   5.148   9.132  0.9697  1.4459  1.8195
  120OSM   C10F12734   1.725   5.298   9.004  0.0207 -0.7535  0.4374
  120OSM   H10F12735   1.800   5.281   8.926 -0.2723  0.3140 -0.0876
  120OSM   C11F12736   1.635   5.408   8.962  0.5028 -0.4561 -0.8890
  120OSM   H11F12737   1.589   5.454   9.052  0.6339  0.7198 -1.4078
  120OSM   H11G12738   1.547   5.371   8.904 -0.2912  0.6894 -0.4662
  120OSM   C12F12739   1.699   5.523   8.874  0.2971  0.2519 -0.3391
  120OSM   H12F12740   1.620   5.599   8.854 -0.4665 -0.4525 -0.0371
  120OSM   H12G12741   1.736   5.476   8.780  0.1371  0.6390 -0.5980
  120OSM   C13F12742   1.822   5.607   8.934  0.2670  0.8410 -0.8336
  120OSM   H13F12743   1.900   5.533   8.962  0.2624  1.2028  0.1387
  120OSM   H13G12744   1.787   5.655   9.027  1.1100  1.2443 -0.7212
  120OSM   C14F12745   1.877   5.706   8.836 -0.1021 -0.9391 -0.4634
  120OSM   H14F12746   1.797   5.777   8.805 -1.4176 -2.1564 -0.0017
  120OSM   H14G12747   1.910   5.644   8.750  4.2804  0.6604 -0.1772
  120OSM   C15F12748   2.004   5.778   8.870 -0.3032  0.1118  0.4271
  120OSM   H15F12749   2.080   5.698   8.860 -0.5255  0.0424 -0.8580
  120OSM   H15G12750   2.005   5.817   8.974 -2.6092  0.8253  0.2313
  120OSM   C16F12751   2.050   5.896   8.783 -0.1998 -0.1722  0.1633
  120OSM   H16F12752   2.007   5.988   8.828 -2.3923 -0.6965 -0.7101
  120OSM   H16G12753   2.003   5.890   8.683  0.9659  0.0916 -0.4138
  120OSM   C17F12754   2.196   5.903   8.769  0.8303 -0.4556 -0.2423
  120OSM   H17F12755   2.219   5.808   8.716  0.5447 -0.6871  0.0456
  120OSM   H17G12756   2.258   5.902   8.861  2.4126  1.1436 -1.2264
  120OSM   C18F12757   2.249   6.014   8.669 -0.1220  0.1573 -0.2604
  120OSM   H18F12758   2.356   5.990   8.653 -0.4004 -1.1277 -0.3007
  120OSM   H18G12759   2.243   6.116   8.712 -0.9094 -0.6325  1.6497
  120OSM   H18H12760   2.198   6.020   8.570 -0.7593 -0.8246 -0.0113
  121OSM      N12761   6.694   0.447  10.969  0.0559 -0.3470 -0.0996
  121OSM    C1512762   6.724   0.310  10.927  0.4041 -0.3748  0.4796
  121OSM   H15A12763   6.829   0.286  10.923  0.1789 -1.4329  0.5251
  121OSM   H15B12764   6.670   0.284  10.836  2.5549  1.5675 -1.4965
  121OSM   H15C12765   6.694   0.234  10.997  1.4038  0.1573  1.4993
  121OSM    C1412766   6.772   0.482  11.093 -0.2124 -0.4687  0.0834
  121OSM   H14A12767   6.877   0.459  11.092  0.1576  0.9559  1.7280
  121OSM   H14B12768   6.731   0.417  11.169 -1.4901  0.0395 -0.1367
  121OSM   H14C12769   6.762   0.583  11.128  2.1864 -0.8752  2.2221
  121OSM    C1312770   6.742   0.549  10.873 -0.1560 -0.0522 -0.1838
  121OSM   H13A12771   6.698   0.535  10.776  1.8731 -0.2329 -1.1422
  121OSM   H13B12772   6.850   0.548  10.871 -0.1488 -1.8400 -1.0777
  121OSM   H13C12773   6.713   0.648  10.904 -0.7700  0.0637 -1.1029
  121OSM    C1212774   6.547   0.469  11.003  0.1382 -0.1694 -0.3204
  121OSM   H12A12775   6.523   0.559  11.057 -1.6503 -0.6231 -0.3022
  121OSM   H12B12776   6.527   0.397  11.081 -0.9725  0.3077 -0.1525
  121OSM    C1112777   6.441   0.450  10.889  0.4917 -0.0162  0.4412
  121OSM   H11A12778   6.451   0.533  10.815 -0.2747 -0.0554  0.2859
  121OSM   H11B12779   6.338   0.460  10.928  0.4848  0.2448  0.3602
  121OSM      P12780   6.404   0.189  10.903 -0.1298  0.1424 -0.4014
  121OSM    O1312781   6.513   0.100  10.941 -0.0040 -0.4176  0.1140
  121OSM    O1412782   6.321   0.228  11.015 -0.0807 -0.1959 -0.9019
  121OSM    O1112783   6.312   0.118  10.805  0.1198  0.5332 -0.6113
  121OSM    O1212784   6.460   0.321  10.825 -0.1110 -0.4066  0.4249
  121OSM    C1S12785   6.187   0.165  10.753 -0.4372  0.1277  0.1793
  121OSM    H1S12786   6.133   0.248  10.804 -0.4484  0.2373 -0.0131
  121OSM    H1T12787   6.109   0.087  10.769  0.0777 -0.4163  0.0452
  121OSM     NF12788   6.062   0.257  10.562  0.1154  0.1051  0.1655
  121OSM    HNF12789   5.991   0.200  10.522  1.3623 -2.4785  1.4039
  121OSM    C2S12790   6.184   0.196  10.605 -0.6325  0.2521 -0.2811
  121OSM    H2S12791   6.264   0.273  10.592  1.1794 -1.5105 -0.0554
  121OSM    C3S12792   6.237   0.070  10.526  0.4139  0.5562 -0.4130
  121OSM    H3S12793   6.170  -0.014  10.553 -1.4841  1.7783 -1.0394
  121OSM     O312794   6.370   0.033  10.563  0.2574  0.1170 -0.4966
  121OSM    HO312795   6.403   0.107  10.616 -2.4139  2.8171 -2.2663
  121OSM    C4S12796   6.232   0.093  10.375  0.8041 -0.4078 -0.5267
  121OSM    H4S12797   6.125   0.082  10.348  0.3519  1.4867  0.3327
  121OSM    C5S12798   6.321   0.123  10.279 -0.0335  0.6520 -0.4758
  121OSM    H5S12799   6.429   0.115  10.299 -0.2896 -1.3680  0.3365
  121OSM    C6S12800   6.300   0.146  10.132  0.4566 -0.8348 -0.6109
  121OSM    H6S12801   6.375   0.119  10.055 -1.0745 -1.1537 -2.0668
  121OSM    H6T12802   6.305   0.257  10.124 -0.0074 -0.7971 -0.4222
  121OSM    C7S12803   6.169   0.108  10.064  0.4460  0.4071 -0.1420
  121OSM    H7S12804   6.085   0.163  10.112 -0.1818  1.8486 -2.7115
  121OSM    H7T12805   6.155  -0.002  10.073  2.6716  0.1758  1.5673
  121OSM    C8S12806   6.167   0.148   9.916 -0.0687 -0.1039  0.0740
  121OSM    H8S12807   6.205   0.252   9.903 -0.3850 -0.0988 -0.9260
  121OSM    H8T12808   6.060   0.151   9.886 -0.1403 -2.4094 -0.0435
  121OSM    C9S12809   6.242   0.064   9.817 -0.0646  0.0288 -0.1355
  121OSM    H9S12810   6.214  -0.040   9.841 -0.4341 -0.5616 -2.7890
  121OSM    H9T12811   6.352   0.068   9.827 -0.1290  0.8477  0.3533
  121OSM   C10S12812   6.196   0.103   9.676 -0.0813  0.1744  0.0549
  121OSM   H10S12813   6.252   0.193   9.642  1.5818 -1.5146 -1.9801
  121OSM   H10T12814   6.087   0.123   9.683  0.3283  2.3767  0.6943
  121OSM   C11S12815   6.222  -0.010   9.569 -0.0745 -0.0086 -0.4516
  121OSM   H11S12816   6.167   0.018   9.477 -0.5430 -0.7249 -0.3949
  121OSM   H11T12817   6.163  -0.093   9.614 -0.5423  0.5635  0.0113
  121OSM   C12S12818   6.371  -0.044   9.551  0.0586  0.8740  0.5431
  121OSM   H12S12819   6.403  -0.110   9.634  0.9607 -1.0525 -1.2371
  121OSM   H12T12820   6.427   0.051   9.559  1.3907  0.2309 -0.5532
  121OSM   C13S12821   6.411  -0.108   9.414  0.3889  0.1494 -0.7426
  121OSM   H13S12822   6.367  -0.211   9.413 -1.3669  0.8620 -2.2936
  121OSM   H13T12823   6.521  -0.115   9.401  0.4863  1.2157 -0.5356
  121OSM   C14S12824   6.362  -0.028   9.293 -0.5184  0.8218  0.0580
  121OSM   H14S12825   6.384   0.081   9.299  3.1668  0.3319 -1.6320
  121OSM   H14T12826   6.253  -0.042   9.281 -0.2754  1.1912 -3.4325
  121OSM   C15S12827   6.432  -0.074   9.158 -0.4579  0.0423 -0.2791
  121OSM   H15S12828   6.423  -0.184   9.146  3.0503 -0.4521  0.7024
  121OSM   H15T12829   6.539  -0.047   9.149 -0.3642 -0.1375  0.2450
  121OSM   C16S12830   6.351  -0.000   9.052  0.2317  0.7153  1.0042
  121OSM   H16S12831   6.246   0.003   9.088 -0.2260  0.4313 -0.2444
  121OSM   H16T12832   6.350  -0.063   8.960 -2.5668  1.8229  0.1837
  121OSM   C17S12833   6.413   0.130   8.995 -0.5519 -0.3938 -0.3283
  121OSM   H17S12834   6.524   0.129   9.001 -0.5673 -1.0776  0.0514
  121OSM   H17T12835   6.387   0.207   9.070 -0.7123 -0.7459 -0.0177
  121OSM   C18S12836   6.361   0.161   8.859  0.0677  0.2416  0.1924
  121OSM   H18S12837   6.366   0.081   8.782 -1.3717  0.6071 -0.3114
  121OSM   H18T12838   6.404   0.254   8.816 -3.1498  1.7610 -0.0276
  121OSM   H18U12839   6.252   0.183   8.862 -0.6282 -2.3950 -2.1446
  121OSM    C1F12840   6.029   0.387  10.593  0.1013 -0.0734  0.8811
  121OSM     OF12841   6.101   0.453  10.664 -0.1894 -0.0548 -0.2649
  121OSM    C2F12842   5.900   0.428  10.528  0.4898  0.0615  0.5311
  121OSM    H2F12843   5.819   0.359  10.561 -2.3123  2.7543 -0.2709
  121OSM    H2G12844   5.911   0.425  10.418 -2.1286 -2.2927  0.2234
  121OSM    C3F12845   5.861   0.574  10.541 -0.7125 -0.7646  0.0427
  121OSM    H3F12846   5.952   0.637  10.541 -0.9475 -0.4083  0.9427
  121OSM    H3G12847   5.814   0.579  10.641 -1.2483  1.1223 -0.2682
  121OSM    C4F12848   5.744   0.614  10.450 -0.0337  0.5730  0.3988
  121OSM    H4F12849   5.698   0.708  10.487  2.1387  1.9037 -0.1030
  121OSM    H4G12850   5.667   0.535  10.458  1.1237 -0.9775 -2.3644
  121OSM    C5F12851   5.776   0.630  10.301 -0.1196  0.5347  1.0150
  121OSM    H5F12852   5.835   0.543  10.265 -0.2161  0.1239  1.8277
  121OSM    H5G12853   5.842   0.717  10.278  1.5890 -1.5971 -3.3013
  121OSM    C6F12854   5.641   0.648  10.226  0.0192 -0.3477  0.8150
  121OSM    H6F12855   5.578   0.723  10.278 -1.8497  0.0298 -1.8064
  121OSM    H6G12856   5.586   0.551  10.219 -1.6781  0.4222  2.4134
  121OSM    C7F12857   5.664   0.701  10.084  0.0322 -0.5683 -0.4063
  121OSM    H7F12858   5.763   0.665  10.050  0.0154 -2.4243  1.3603
  121OSM    H7G12859   5.683   0.811  10.079 -1.6295 -0.2892 -2.1785
  121OSM    C8F12860   5.565   0.654   9.980 -0.1911  0.0373 -0.1436
  121OSM    H8F12861   5.576   0.723   9.893  2.3376 -2.5685 -2.0600
  121OSM    H8G12862   5.464   0.653  10.026 -1.4542  0.1210 -2.7365
  121OSM    C9F12863   5.590   0.506   9.946 -0.5533 -0.2769  0.5501
  121OSM    H9F12864   5.628   0.448  10.031  2.0080 -0.3538 -0.5480
  121OSM   C10F12865   5.536   0.433   9.840 -0.3354 -0.0018 -0.3995
  121OSM   H10F12866   5.563   0.326   9.839  0.3906  0.1822 -0.9531
  121OSM   C11F12867   5.459   0.487   9.720  0.2177  0.3716  0.3335
  121OSM   H11F12868   5.422   0.591   9.731  1.9800  1.5456 -3.4379
  121OSM   H11G12869   5.363   0.430   9.723  1.4785 -2.0600 -1.8260
  121OSM   C12F12870   5.530   0.461   9.588 -0.3315 -0.2718 -0.1404
  121OSM   H12F12871   5.565   0.356   9.584  1.2759  0.0157  3.0528
  121OSM   H12G12872   5.621   0.525   9.580 -0.9911  0.4886 -2.0951
  121OSM   C13F12873   5.448   0.478   9.459 -0.2214 -0.5974  0.2328
  121OSM   H13F12874   5.388   0.572   9.467 -1.0702 -1.1875  0.9725
  121OSM   H13G12875   5.375   0.396   9.474 -0.9638  0.0817  0.3900
  121OSM   C14F12876   5.536   0.460   9.334  0.8700  0.0783  0.4784
  121OSM   H14F12877   5.467   0.440   9.250 -0.5806  1.5340  1.2801
  121OSM   H14G12878   5.615   0.382   9.343  1.9594  1.1864  0.7045
  121OSM   C15F12879   5.622   0.588   9.318 -0.2194  0.3191 -0.5628
  121OSM   H15F12880   5.676   0.613   9.412  0.6797 -0.2312 -0.9131
  121OSM   H15G12881   5.550   0.671   9.302 -1.0658 -0.5051 -1.1231
  121OSM   C16F12882   5.723   0.567   9.195 -0.3274  0.0611 -0.4712
  121OSM   H16F12883   5.656   0.556   9.107 -0.0949 -2.0409 -0.4496
  121OSM   H16G12884   5.762   0.467   9.225 -1.1740 -0.1457 -0.0386
  121OSM   C17F12885   5.831   0.672   9.176  0.6033 -0.8279  0.4496
  121OSM   H17F12886   5.899   0.633   9.098 -0.8050 -0.7696 -0.8534
  121OSM   H17G12887   5.886   0.700   9.269  0.6970  0.8637 -0.0826
  121OSM   C18F12888   5.775   0.804   9.127  0.0468  1.1465  0.6983
  121OSM   H18F12889   5.721   0.860   9.206 -0.5752  0.6417  0.6385
  121OSM   H18G12890   5.710   0.800   9.037  1.3205 -0.2904 -0.2134
  121OSM   H18H12891   5.866   0.860   9.096  1.2933 -0.8529  0.5685
  122OSM      N12892   0.982   5.436  11.274  0.3871 -0.4275 -0.1984
  122OSM    C1512893   0.897   5.523  11.361 -0.1993 -0.6442 -0.3103
  122OSM   H15A12894   0.931   5.539  11.462  2.7679  1.9959 -1.5652
  122OSM   H15B12895   0.800   5.478  11.375 -0.8178  0.9072  0.6460
  122OSM   H15C12896   0.879   5.619  11.313  1.7925  0.9246  1.8531
  122OSM    C1412897   1.117   5.491  11.275 -0.1971 -0.3349  1.0249
  122OSM   H14A12898   1.123   5.555  11.189 -6.7036 -0.3219  0.0837
  122OSM   H14B12899   1.192   5.414  11.269 -0.6211 -0.7443  0.8994
  122OSM   H14C12900   1.135   5.558  11.358 -0.1397 -0.8340  1.4206
  122OSM    C1312901   0.974   5.296  11.335  0.1315 -0.3492  0.3734
  122OSM   H13A12902   0.902   5.234  11.284  0.4162 -0.2089 -0.2105
  122OSM   H13B12903   0.956   5.292  11.441 -2.2449 -1.4280  0.0011
  122OSM   H13C12904   1.058   5.234  11.309 -0.4712 -2.1904  2.5417
  122OSM    C1212905   0.930   5.427  11.128  0.0134 -0.3928 -0.7308
  122OSM   H12A12906   0.823   5.410  11.133  0.2664 -2.4636 -1.4239
  122OSM   H12B12907   0.977   5.342  11.081 -1.6919 -1.4877 -0.5283
  122OSM    C1112908   0.956   5.553  11.040 -0.2445  0.5354 -0.7361
  122OSM   H11A12909   0.952   5.638  11.111 -1.4929  0.1738 -0.3636
  122OSM   H11B12910   0.871   5.573  10.972 -0.5402 -0.2445 -0.6095
  122OSM      P12911   1.168   5.667  10.922 -0.2752  0.3553  0.4438
  122OSM    O1312912   1.081   5.782  10.910 -0.1251 -0.3385  0.1920
  122OSM    O1412913   1.289   5.678  11.009 -0.1572 -0.2822  0.4742
  122OSM    O1112914   1.212   5.611  10.778  0.1535 -0.4388  0.4004
  122OSM    O1212915   1.087   5.542  10.974  0.2132  0.6025  0.3217
  122OSM    C1S12916   1.106   5.597  10.676 -0.4467  0.1028 -0.1642
  122OSM    H1S12917   1.059   5.694  10.654  2.6056  1.4171 -1.4702
  122OSM    H1T12918   1.029   5.520  10.699 -0.3646  0.3566  1.0483
  122OSM     NF12919   1.069   5.568  10.435 -0.1847  0.2792  0.3935
  122OSM    HNF12920   1.013   5.491  10.405 -1.9046  2.2564 -1.8478
  122OSM    C2S12921   1.165   5.546  10.539 -0.1391 -0.4732 -0.4573
  122OSM    H2S12922   1.260   5.601  10.518 -0.8567  0.0340 -2.6629
  122OSM    C3S12923   1.214   5.402  10.556 -0.0215 -0.1947 -0.0872
  122OSM    H3S12924   1.135   5.331  10.589 -0.3479 -0.5768 -1.6540
  122OSM     O312925   1.323   5.394  10.654  0.0053 -0.1775  0.0743
  122OSM    HO312926   1.318   5.462  10.721 -1.0401  0.6975 -0.8614
  122OSM    C4S12927   1.259   5.356  10.418  0.4778 -0.0571  0.3781
  122OSM    H4S12928   1.203   5.285  10.355 -0.3494  1.8406 -1.1336
  122OSM    C5S12929   1.377   5.393  10.366 -0.2157  0.1069  0.1827
  122OSM    H5S12930   1.446   5.448  10.432 -0.5934  2.7561 -1.5174
  122OSM    C6S12931   1.431   5.340  10.232 -0.3322 -0.5687 -0.6931
  122OSM    H6S12932   1.367   5.256  10.196 -2.6139  1.3634 -1.3924
  122OSM    H6T12933   1.534   5.299  10.240  0.3146  1.1915  0.3331
  122OSM    C7S12934   1.430   5.453  10.129  0.1945 -0.8894  0.8383
  122OSM    H7S12935   1.484   5.545  10.162 -0.9679  0.2679 -0.3598
  122OSM    H7T12936   1.328   5.491  10.111 -0.1358 -2.7391 -1.7844
  122OSM    C8S12937   1.491   5.406   9.998  0.2701 -0.4665 -0.1077
  122OSM    H8S12938   1.441   5.314   9.960  1.4827 -1.3275  0.3386
  122OSM    H8T12939   1.595   5.377  10.023  1.0650  1.6988 -0.7115
  122OSM    C9S12940   1.497   5.512   9.888  0.4277  0.0801 -0.6509
  122OSM    H9S12941   1.540   5.608   9.921  1.1489 -0.6934  0.7340
  122OSM    H9T12942   1.394   5.536   9.852  0.5783 -0.5479 -1.5520
  122OSM   C10S12943   1.591   5.466   9.776  0.3490 -0.6401  0.7037
  122OSM   H10S12944   1.537   5.382   9.727 -0.2705  0.3906 -0.4670
  122OSM   H10T12945   1.690   5.433   9.813 -0.1712 -3.1892  0.0137
  122OSM   C11S12946   1.607   5.575   9.666 -0.2822  0.0476  0.5601
  122OSM   H11S12947   1.653   5.669   9.702 -2.1598  1.4708 -0.5782
  122OSM   H11T12948   1.515   5.607   9.613  1.6116 -1.2274 -4.0207
  122OSM   C12S12949   1.685   5.519   9.542 -0.1813  0.7226  0.1714
  122OSM   H12S12950   1.617   5.440   9.504  0.2278  1.2782 -1.7937
  122OSM   H12T12951   1.775   5.472   9.586  0.5429  2.9382  1.2032
  122OSM   C13S12952   1.723   5.623   9.436 -0.6089 -0.3332 -0.2680
  122OSM   H13S12953   1.795   5.689   9.488 -0.5468  0.4287 -1.2979
  122OSM   H13T12954   1.633   5.684   9.411  0.2104  1.1639  0.3221
  122OSM   C14S12955   1.806   5.576   9.317  0.6401  0.2582  0.3390
  122OSM   H14S12956   1.828   5.659   9.246  1.0417  1.2637  1.5936
  122OSM   H14T12957   1.738   5.509   9.259 -2.3377  2.5930  0.8460
  122OSM   C15S12958   1.934   5.497   9.353  0.2396  0.5492 -0.3684
  122OSM   H15S12959   1.913   5.396   9.393  0.7667 -0.7864 -3.2070
  122OSM   H15T12960   1.984   5.552   9.436  1.0175  1.1801 -1.2334
  122OSM   C16S12961   2.038   5.490   9.250 -0.6888  0.2571  0.3616
  122OSM   H16S12962   2.003   5.450   9.152  2.1894  2.3515 -1.7193
  122OSM   H16T12963   2.117   5.422   9.288 -1.1367 -0.2573  0.3672
  122OSM   C17S12964   2.102   5.623   9.216  0.1213 -0.2395 -0.0746
  122OSM   H17S12965   2.116   5.672   9.315  1.2329 -0.4643 -0.1034
  122OSM   H17T12966   2.028   5.683   9.160  0.9032  0.8036 -0.0089
  122OSM   C18S12967   2.242   5.630   9.140 -0.5387 -0.2798  0.0831
  122OSM   H18S12968   2.242   5.611   9.030  2.6693 -0.7831  0.0984
  122OSM   H18T12969   2.319   5.564   9.184 -0.9889 -2.9672 -2.7962
  122OSM   H18U12970   2.273   5.736   9.146 -1.4899 -0.0037  0.3821
  122OSM    C1F12971   1.037   5.688  10.389  0.3004  0.6832 -0.4464
  122OSM     OF12972   1.092   5.790  10.435  0.0091 -0.0027  0.7547
  122OSM    C2F12973   0.943   5.688  10.278  0.3783  0.1908 -0.0103
  122OSM    H2F12974   0.848   5.733  10.314 -0.3486 -0.9517 -0.4455
  122OSM    H2G12975   0.908   5.591  10.236  0.2521  0.3800 -0.3481
  122OSM    C3F12976   0.998   5.758  10.151 -0.6419 -0.0017 -0.2630
  122OSM    H3F12977   1.098   5.716  10.127  1.2007  1.8342  3.4193
  122OSM    H3G12978   1.011   5.864  10.180  1.6387 -0.0553 -0.8832
  122OSM    C4F12979   0.912   5.748  10.022 -0.8771 -1.0445  0.3984
  122OSM    H4F12980   0.815   5.793  10.051  0.3352  2.0508  0.0456
  122OSM    H4G12981   0.901   5.643   9.990  1.0928 -1.2746  0.3267
  122OSM    C5F12982   0.968   5.844   9.908 -0.0516 -0.6071 -0.6273
  122OSM    H5F12983   1.075   5.814   9.900  0.1631 -0.6322  1.7062
  122OSM    H5G12984   0.975   5.951   9.936 -1.7519 -1.2217  2.5893
  122OSM    C6F12985   0.899   5.826   9.771  0.1991  0.0308  0.9408
  122OSM    H6F12986   0.792   5.856   9.764 -0.0665 -1.1923 -0.9521
  122OSM    H6G12987   0.898   5.716   9.754 -1.2772  0.1600 -0.0166
  122OSM    C7F12988   0.976   5.898   9.653 -0.4107  0.3683 -0.3849
  122OSM    H7F12989   1.082   5.868   9.668 -0.5903 -0.4938 -0.8221
  122OSM    H7G12990   0.959   6.007   9.671  1.5831  0.5761  0.5413
  122OSM    C8F12991   0.921   5.867   9.510 -0.3483  0.3596 -0.0190
  122OSM    H8F12992   0.813   5.893   9.514 -0.0454  1.5981  3.2711
  122OSM    H8G12993   0.927   5.760   9.481 -0.2626  0.5892 -0.8617
  122OSM    C9F12994   1.005   5.950   9.419 -0.4695 -0.2924 -0.0142
  122OSM    H9F12995   1.110   5.956   9.452 -0.6352 -0.6538  0.6003
  122OSM   C10F12996   0.969   6.002   9.300  0.3437  1.2655  0.5295
  122OSM   H10F12997   1.047   6.033   9.228  0.3030  0.3182  0.0655
  122OSM   C11F12998   0.839   5.966   9.227 -0.6190 -0.5628 -0.1270
  122OSM   H11F12999   0.771   6.052   9.244  1.5130  1.0478  0.5759
  122OSM   H11G13000   0.795   5.871   9.264 -0.8161 -1.1286 -1.7141
  122OSM   C12F13001   0.851   5.956   9.068 -0.2303 -0.6120  0.7394
  122OSM   H12F13002   0.898   6.051   9.036  0.5652 -0.7377  1.4935
  122OSM   H12G13003   0.751   5.956   9.019 -0.1596 -0.0344  0.5935
  122OSM   C13F13004   0.939   5.836   9.030  0.0433 -0.0256 -0.3753
  122OSM   H13F13005   0.885   5.747   9.067  0.7803  0.5963  2.3673
  122OSM   H13G13006   1.039   5.825   9.077  0.9135  1.0423 -1.8849
  122OSM   C14F13007   0.982   5.854   8.881  0.6565  0.5766  0.0476
  122OSM   H14F13008   1.038   5.765   8.848 -2.0487 -1.3172  0.2540
  122OSM   H14G13009   1.046   5.945   8.887  3.3153 -1.2847  1.9637
  122OSM   C15F13010   0.865   5.901   8.792 -0.4426 -0.0848  0.6330
  122OSM   H15F13011   0.818   5.996   8.825 -0.4708 -0.8496  2.9317
  122OSM   H15G13012   0.783   5.826   8.792 -1.5477  1.0336 -1.3227
  122OSM   C16F13013   0.916   5.915   8.649  0.1064 -0.7166  0.2251
  122OSM   H16F13014   0.948   5.825   8.593 -1.4319  0.6855 -3.2335
  122OSM   H16G13015   1.008   5.976   8.645  0.6452 -1.5686 -1.6043
  122OSM   C17F13016   0.812   5.995   8.573 -0.5117  0.2643  0.0942
  122OSM   H17F13017   0.807   6.096   8.618 -1.7080 -0.8543  2.6841
  122OSM   H17G13018   0.717   5.946   8.602 -0.3310 -1.0902 -1.4386
  122OSM   C18F13019   0.845   6.001   8.419 -0.3425  0.7159 -0.7397
  122OSM   H18F13020   0.813   5.912   8.360  2.4083 -0.3175 -0.7787
  122OSM   H18G13021   0.950   6.024   8.390 -1.4738  1.5730 -4.8457
  122OSM   H18H13022   0.799   6.093   8.375  3.4792  2.4921 -1.4454
  123OSM      N13023   3.385   3.873   6.274 -0.0900  0.5776  0.1967
  123OSM    C1513024   3.256   3.912   6.338 -0.4425  0.3350  0.1758
  123OSM   H15A13025   3.197   3.822   6.350  0.4137 -0.2748 -0.0686
  123OSM   H15B13026   3.202   3.975   6.270  2.8529  2.3753 -0.7753
  123OSM   H15C13027   3.274   3.961   6.432 -2.7103 -1.6549  1.7732
  123OSM    C1413028   3.364   3.799   6.143  0.2106 -0.0851 -0.3838
  123OSM   H14A13029   3.455   3.750   6.112 -0.0011  0.2562 -1.6087
  123OSM   H14B13030   3.322   3.867   6.070 -2.2493  1.1709  2.0050
  123OSM   H14C13031   3.297   3.716   6.161 -1.2037  1.3014  1.1123
  123OSM    C1313032   3.458   3.989   6.221 -0.1215 -0.0724 -0.7270
  123OSM   H13A13033   3.383   4.052   6.176  0.8606  0.7454 -1.2597
  123OSM   H13B13034   3.539   3.964   6.153  0.5639 -1.4225  0.5277
  123OSM   H13C13035   3.506   4.050   6.296  0.2551 -0.7991 -0.3636
  123OSM    C1213036   3.473   3.781   6.360  0.6213  0.4395  0.3148
  123OSM   H12A13037   3.550   3.739   6.297 -0.7536 -2.8189  0.5845
  123OSM   H12B13038   3.414   3.695   6.389  1.0229  0.4425  1.1787
  123OSM    C1113039   3.533   3.839   6.493 -0.0163  0.2690 -0.7234
  123OSM   H11A13040   3.567   3.753   6.553  1.1863  1.1407 -0.1042
  123OSM   H11B13041   3.452   3.885   6.554  1.5746  0.8299  1.0414
  123OSM      P13042   3.774   3.872   6.376  0.0035 -0.2188 -0.1553
  123OSM    O1313043   3.743   3.833   6.240  0.0623 -0.2655  0.0521
  123OSM    O1413044   3.885   3.967   6.389  0.0389  0.3309  0.4210
  123OSM    O1113045   3.808   3.740   6.459 -0.6358 -0.8941  0.3091
  123OSM    O1213046   3.643   3.928   6.461  0.9229 -0.3125  0.1669
  123OSM    C1S13047   3.875   3.737   6.585 -0.2944  0.0479 -0.6059
  123OSM    H1S13048   3.810   3.783   6.662 -0.1821  2.4749 -1.8674
  123OSM    H1T13049   3.969   3.797   6.586  0.3346 -0.8663  1.8042
  123OSM     NF13050   3.986   3.594   6.759 -0.1189 -0.4796 -0.6748
  123OSM    HNF13051   4.083   3.598   6.778 -0.5283  0.3966  1.5510
  123OSM    C2S13052   3.929   3.592   6.623  0.1606 -0.0288  0.0616
  123OSM    H2S13053   3.856   3.508   6.612  0.2272 -0.1286  0.3865
  123OSM    C3S13054   4.038   3.552   6.520 -0.1585 -0.2018  0.1729
  123OSM    H3S13055   4.119   3.627   6.520 -0.5122  0.1861  0.3073
  123OSM     O313056   3.992   3.556   6.384  0.0378 -0.3715 -0.5671
  123OSM    HO313057   3.926   3.626   6.388 -2.4172 -2.5576  1.0700
  123OSM    C4S13058   4.091   3.416   6.555 -0.2143  0.2641  0.6065
  123OSM    H4S13059   4.188   3.432   6.603 -0.4037  2.2404  0.4036
  123OSM    C5S13060   4.051   3.298   6.515 -0.0121  0.3879 -0.4920
  123OSM    H5S13061   3.961   3.287   6.453  0.2070  2.7102 -1.3099
  123OSM    C6S13062   4.115   3.169   6.546 -0.0567 -0.5527  0.0334
  123OSM    H6S13063   4.172   3.148   6.452 -0.5957  1.9787 -0.9480
  123OSM    H6T13064   4.039   3.088   6.544 -3.2229  2.2328 -0.7199
  123OSM    C7S13065   4.212   3.155   6.663  0.0710 -0.3085  0.3412
  123OSM    H7S13066   4.307   3.212   6.653  0.1752 -0.1907  1.7905
  123OSM    H7T13067   4.217   3.044   6.671 -1.1717 -0.4537 -0.7105
  123OSM    C8S13068   4.140   3.202   6.793 -0.3716 -0.3451 -0.2552
  123OSM    H8S13069   4.040   3.153   6.802  0.0145 -1.0447  0.2624
  123OSM    H8T13070   4.111   3.309   6.798 -2.5920 -0.9250  0.9006
  123OSM    C9S13071   4.242   3.176   6.905  0.7779 -0.2147 -0.2173
  123OSM    H9S13072   4.332   3.235   6.876 -0.0009 -0.3546 -3.3367
  123OSM    H9T13073   4.270   3.069   6.894  0.1414 -0.3575 -0.4873
  123OSM   C10S13074   4.185   3.199   7.041 -0.6258 -0.1810 -0.1011
  123OSM   H10S13075   4.106   3.124   7.063  1.1803 -2.2918 -0.4156
  123OSM   H10T13076   4.134   3.297   7.031  0.7244  0.3423 -2.7841
  123OSM   C11S13077   4.288   3.199   7.150  0.2690  0.1653  0.4396
  123OSM   H11S13078   4.375   3.262   7.122  1.1408 -0.3733  1.7870
  123OSM   H11T13079   4.343   3.102   7.147 -0.2974 -0.1323 -0.6851
  123OSM   C12S13080   4.231   3.247   7.285  0.5645  0.4761 -0.2801
  123OSM   H12S13081   4.144   3.185   7.314  1.3290 -0.8037 -0.6475
  123OSM   H12T13082   4.206   3.355   7.276 -1.0138  0.4158  2.4573
  123OSM   C13S13083   4.342   3.238   7.396 -0.1112 -0.0263  0.0279
  123OSM   H13S13084   4.424   3.303   7.359  1.6994 -2.5148 -0.5735
  123OSM   H13T13085   4.383   3.134   7.393  2.8240  1.0473 -2.2383
  123OSM   C14S13086   4.295   3.292   7.527  0.1996  0.1016  0.0709
  123OSM   H14S13087   4.203   3.238   7.560  0.9427 -0.9055  0.5402
  123OSM   H14T13088   4.264   3.399   7.516 -0.0676 -0.0796 -1.0111
  123OSM   C15S13089   4.400   3.271   7.636 -0.0104 -0.4522 -0.4057
  123OSM   H15S13090   4.497   3.320   7.612 -0.2121  1.2627  1.9542
  123OSM   H15T13091   4.415   3.161   7.640 -1.4193 -0.6367  0.6340
  123OSM   C16S13092   4.362   3.332   7.771  0.1168  0.1205  0.2401
  123OSM   H16S13093   4.271   3.283   7.811  1.2198 -1.1840  1.2323
  123OSM   H16T13094   4.341   3.440   7.755  0.9431  0.1352 -0.8130
  123OSM   C17S13095   4.483   3.331   7.866  0.4133  0.2061  0.2367
  123OSM   H17S13096   4.566   3.394   7.827  0.3199  0.1333 -0.0743
  123OSM   H17T13097   4.514   3.228   7.893 -2.5003 -0.2134  2.4737
  123OSM   C18S13098   4.443   3.398   7.998  0.0564  0.4784  0.7032
  123OSM   H18S13099   4.520   3.386   8.077 -0.2401  0.7164  1.0300
  123OSM   H18T13100   4.354   3.348   8.044  0.5437 -0.8795  0.2235
  123OSM   H18U13101   4.414   3.504   7.982 -0.3135  0.4671  1.2500
  123OSM    C1F13102   3.903   3.590   6.863 -0.1720 -0.5769 -0.5025
  123OSM     OF13103   3.784   3.558   6.849  0.1972  0.2378  0.1375
  123OSM    C2F13104   3.975   3.602   7.000 -0.8214 -0.4502 -0.1507
  123OSM    H2F13105   4.049   3.685   6.994  0.2949 -1.4269 -0.5354
  123OSM    H2G13106   4.044   3.515   7.012  2.3406  1.7703 -0.9860
  123OSM    C3F13107   3.878   3.604   7.124 -0.0334 -0.4616  0.6061
  123OSM    H3F13108   3.801   3.529   7.095 -0.0911  0.2996 -1.2930
  123OSM    H3G13109   3.821   3.699   7.123  0.5497 -0.1029 -1.3604
  123OSM    C4F13110   3.922   3.559   7.260  0.3214 -0.1743 -0.1955
  123OSM    H4F13111   3.984   3.470   7.239 -0.5511 -0.8604  0.0801
  123OSM    H4G13112   3.838   3.527   7.325 -0.4699 -0.5288 -1.3804
  123OSM    C5F13113   4.010   3.662   7.339  0.2624 -0.3455  1.0822
  123OSM    H5F13114   3.953   3.758   7.335  0.0179 -0.4058  2.4471
  123OSM    H5G13115   4.108   3.670   7.288  0.2035 -1.8017  0.6907
  123OSM    C6F13116   4.026   3.624   7.487  0.1975 -0.2310 -0.2600
  123OSM    H6F13117   4.045   3.516   7.501 -0.5365 -0.5688 -1.6925
  123OSM    H6G13118   3.925   3.641   7.531  0.1274 -0.0313 -0.4968
  123OSM    C7F13119   4.130   3.685   7.574 -0.1856 -0.6204  0.2118
  123OSM    H7F13120   4.147   3.792   7.552 -1.3275 -1.0412 -3.3286
  123OSM    H7G13121   4.225   3.633   7.546 -0.5784 -1.4043  0.3045
  123OSM    C8F13122   4.112   3.664   7.726 -0.0410 -0.7798 -0.2461
  123OSM    H8F13123   4.195   3.728   7.763 -0.2348 -1.3667  1.2965
  123OSM    H8G13124   4.129   3.556   7.743  1.8864 -0.9280 -2.5232
  123OSM    C9F13125   3.976   3.704   7.785 -0.3983  0.5701 -0.3657
  123OSM    H9F13126   3.946   3.808   7.762 -2.4259 -0.1688 -1.3099
  123OSM   C10F13127   3.900   3.631   7.869 -0.9467  0.1582 -0.9343
  123OSM   H10F13128   3.799   3.670   7.889 -0.9952  0.7571 -2.2733
  123OSM   C11F13129   3.929   3.490   7.916 -0.3392 -0.2998  0.2099
  123OSM   H11F13130   3.985   3.442   7.832 -0.1675  0.9474 -0.4053
  123OSM   H11G13131   3.832   3.437   7.922 -0.1141 -0.6601  0.8500
  123OSM   C12F13132   3.998   3.477   8.049  0.5876  0.2252 -0.1493
  123OSM   H12F13133   3.933   3.505   8.135  0.4853 -1.0727  0.2204
  123OSM   H12G13134   4.091   3.537   8.046 -1.0278  2.8586 -2.5961
  123OSM   C13F13135   4.045   3.338   8.092 -0.5497  0.2742 -0.2784
  123OSM   H13F13136   4.119   3.302   8.017 -1.8861 -1.9296 -0.6502
  123OSM   H13G13137   3.952   3.277   8.089 -1.3866  1.5527 -0.9695
  123OSM   C14F13138   4.095   3.322   8.239 -0.5863 -0.2342 -0.2110
  123OSM   H14F13139   4.154   3.229   8.247  0.1666  0.1799 -0.8199
  123OSM   H14G13140   4.008   3.330   8.307 -1.0314  0.2312 -0.8156
  123OSM   C15F13141   4.202   3.421   8.288  0.8916  0.2075  0.0670
  123OSM   H15F13142   4.154   3.521   8.298 -1.4909 -0.7794 -0.6848
  123OSM   H15G13143   4.277   3.433   8.207  1.5557 -0.7717  0.5153
  123OSM   C16F13144   4.260   3.391   8.427 -0.5884  0.2133 -0.4644
  123OSM   H16F13145   4.282   3.283   8.440 -2.2962 -0.2213 -0.9451
  123OSM   H16G13146   4.200   3.425   8.514  0.5579  0.2326  0.3489
  123OSM   C17F13147   4.385   3.481   8.443  0.4109  0.0770  0.3931
  123OSM   H17F13148   4.350   3.583   8.420  0.3663 -0.4125 -2.0823
  123OSM   H17G13149   4.451   3.459   8.355 -1.4474 -1.1504 -0.7720
  123OSM   C18F13150   4.462   3.461   8.575  0.4968 -0.0038 -0.0679
  123OSM   H18F13151   4.391   3.490   8.655 -2.0286 -1.5691 -1.6072
  123OSM   H18G13152   4.548   3.530   8.588 -0.5040  0.9513  2.0098
  123OSM   H18H13153   4.484   3.354   8.595 -1.4353 -0.5688 -0.7227
  124OSM      N13154   3.489   6.782   6.377  0.3582  0.4830 -0.1676
  124OSM    C1513155   3.607   6.774   6.284 -0.3699 -0.6730  0.2411
  124OSM   H15A13156   3.596   6.690   6.217  1.4515 -0.5435 -0.2853
  124OSM   H15B13157   3.705   6.768   6.328 -0.0809  1.1791 -0.0546
  124OSM   H15C13158   3.609   6.872   6.238 -2.1101  0.4443  2.3555
  124OSM    C1413159   3.476   6.651   6.446 -0.0963 -0.0690 -0.8624
  124OSM   H14A13160   3.391   6.644   6.513 -0.5686  1.0580 -1.3178
  124OSM   H14B13161   3.564   6.624   6.502 -0.3340 -0.9591 -0.9064
  124OSM   H14C13162   3.475   6.569   6.376  1.1853 -1.8905  1.1519
  124OSM    C1313163   3.504   6.894   6.485 -0.8085  0.2697 -0.2287
  124OSM   H13A13164   3.507   6.991   6.439 -0.6153  1.1416  1.5566
  124OSM   H13B13165   3.592   6.881   6.547  0.2362 -1.9126 -1.9827
  124OSM   H13C13166   3.420   6.892   6.552 -0.5732  2.8265  0.2172
  124OSM    C1213167   3.363   6.791   6.297  0.5639  0.4872 -0.6234
  124OSM   H12A13168   3.294   6.817   6.375  2.8877  1.1290  1.3375
  124OSM   H12B13169   3.345   6.692   6.257 -1.6535  0.3621  0.5170
  124OSM    C1113170   3.357   6.900   6.180  0.0480 -0.2538  0.3352
  124OSM   H11A13171   3.264   6.889   6.121  0.8851  0.0945 -1.1017
  124OSM   H11B13172   3.435   6.874   6.105 -1.8758 -1.7385 -1.2516
  124OSM      P13173   3.464   7.136   6.181  0.1243 -0.1307  0.2066
  124OSM    O1313174   3.600   7.090   6.219 -0.5881 -1.1605  0.3590
  124OSM    O1413175   3.437   7.165   6.043 -0.5170 -0.2864 -0.6296
  124OSM    O1113176   3.430   7.256   6.272  1.0526 -0.4100 -0.8306
  124OSM    O1213177   3.362   7.035   6.234  0.0493  0.9385 -0.4203
  124OSM    C1S13178   3.359   7.231   6.402 -0.2816 -0.0648  0.1451
  124OSM    H1S13179   3.415   7.147   6.447  0.6997 -0.2787 -1.3851
  124OSM    H1T13180   3.252   7.202   6.404  0.0678 -1.3524  0.6981
  124OSM     NF13181   3.299   7.315   6.610 -0.3437 -0.1810  0.0399
  124OSM    HNF13182   3.214   7.360   6.635 -0.3305  0.1293 -0.4561
  124OSM    C2S13183   3.364   7.359   6.496 -0.1237  0.3877  0.2062
  124OSM    H2S13184   3.473   7.378   6.508 -0.1466  1.4902 -1.1085
  124OSM    C3S13185   3.306   7.491   6.431  0.4204  0.3925  0.4389
  124OSM    H3S13186   3.204   7.459   6.400  0.2409 -0.5291  1.8876
  124OSM     O313187   3.362   7.549   6.315  0.3735  0.1250 -0.5893
  124OSM    HO313188   3.431   7.486   6.290  2.0853  1.7637 -0.2373
  124OSM    C4S13189   3.301   7.596   6.541  0.0251 -0.6689 -0.8862
  124OSM    H4S13190   3.393   7.630   6.591 -0.8686  1.8023 -0.8172
  124OSM    C5S13191   3.183   7.647   6.583  0.1117  0.3300  0.9659
  124OSM    H5S13192   3.092   7.610   6.533  1.0655 -1.1934  0.2788
  124OSM    C6S13193   3.156   7.748   6.691  0.9141 -0.3123  0.3816
  124OSM    H6S13194   3.048   7.748   6.714  0.5188  0.7270 -1.2770
  124OSM    H6T13195   3.182   7.850   6.656  0.0339  0.9435  3.1316
  124OSM    C7S13196   3.244   7.739   6.822 -0.6081  0.2359 -0.0107
  124OSM    H7S13197   3.226   7.824   6.892 -0.3917  0.0265  0.2989
  124OSM    H7T13198   3.349   7.748   6.787 -0.2089  1.4258  1.3779
  124OSM    C8S13199   3.234   7.609   6.899 -0.1187 -0.4417  0.1339
  124OSM    H8S13200   3.337   7.593   6.936  0.6598  0.3793 -1.5369
  124OSM    H8T13201   3.217   7.529   6.824 -2.3365  1.0607 -1.0940
  124OSM    C9S13202   3.121   7.607   7.001 -0.8242 -0.1916  0.1670
  124OSM    H9S13203   3.029   7.629   6.942  0.6372  0.8332 -1.8315
  124OSM    H9T13204   3.150   7.691   7.068  1.0905 -0.5899 -0.1129
  124OSM   C10S13205   3.094   7.478   7.075 -0.1970 -0.1213  0.0682
  124OSM   H10S13206   3.197   7.439   7.096  0.7596  1.6906 -1.0233
  124OSM   H10T13207   3.054   7.414   6.994  1.0529 -1.2012  0.2572
  124OSM   C11S13208   2.999   7.487   7.192 -0.3855 -0.4228  0.3728
  124OSM   H11S13209   2.898   7.506   7.149 -0.4011  0.2007  0.6709
  124OSM   H11T13210   3.044   7.575   7.243 -1.4084  0.8681 -0.8606
  124OSM   C12S13211   3.001   7.360   7.280 -1.0750  0.6525  0.2761
  124OSM   H12S13212   3.103   7.360   7.326 -0.3300  1.1558 -1.3177
  124OSM   H12T13213   2.988   7.272   7.213 -2.0699  0.3178  0.8818
  124OSM   C13S13214   2.898   7.366   7.392 -0.4768  0.0365  0.1643
  124OSM   H13S13215   2.799   7.354   7.344 -0.8083 -1.6427  1.1758
  124OSM   H13T13216   2.908   7.461   7.449  0.0900 -1.4395  2.6824
  124OSM   C14S13217   2.924   7.251   7.496  0.0598  0.2622  0.4566
  124OSM   H14S13218   3.019   7.265   7.552 -1.2312  0.5501  2.7216
  124OSM   H14T13219   2.933   7.156   7.439  1.6898  0.9105 -0.4288
  124OSM   C15S13220   2.812   7.246   7.594 -0.0077 -0.0558 -0.4219
  124OSM   H15S13221   2.798   7.144   7.636 -0.6083 -0.4682 -1.5777
  124OSM   H15T13222   2.724   7.268   7.530 -0.4763 -1.6526 -0.3694
  124OSM   C16S13223   2.812   7.361   7.696 -0.2939  0.3102  0.3674
  124OSM   H16S13224   2.719   7.369   7.756 -0.1104  4.8955  0.4144
  124OSM   H16T13225   2.815   7.466   7.659  1.5153 -0.0592 -0.6459
  124OSM   C17S13226   2.911   7.361   7.810  0.0857  0.2985 -0.2298
  124OSM   H17S13227   2.943   7.261   7.847 -0.7275  0.1140 -0.0141
  124OSM   H17T13228   2.857   7.399   7.900 -0.3871 -0.0619 -0.3562
  124OSM   C18S13229   3.041   7.436   7.796 -0.7709 -0.4047 -0.4582
  124OSM   H18S13230   3.014   7.544   7.789  1.1487  0.5123  3.4606
  124OSM   H18T13231   3.101   7.396   7.712 -0.7969  0.6377 -0.9905
  124OSM   H18U13232   3.100   7.432   7.891 -2.2302  0.2510  0.5161
  124OSM    C1F13233   3.344   7.211   6.683  0.5757 -1.1428 -0.0856
  124OSM     OF13234   3.457   7.167   6.663  0.0854  0.5782  0.3376
  124OSM    C2F13235   3.253   7.190   6.809 -0.2885  0.9220  0.8135
  124OSM    H2F13236   3.161   7.134   6.780 -0.7052  1.9198  0.1280
  124OSM    H2G13237   3.210   7.290   6.834 -0.6802  1.5099 -1.8997
  124OSM    C3F13238   3.321   7.120   6.928  0.5493  0.2385 -0.2555
  124OSM    H3F13239   3.410   7.176   6.964  0.2754  0.2200  0.4614
  124OSM    H3G13240   3.360   7.026   6.883  1.0365  0.7044 -0.8127
  124OSM    C4F13241   3.233   7.077   7.043 -0.2094 -0.2707  0.2216
  124OSM    H4F13242   3.180   7.160   7.095 -0.9166 -0.3410 -0.3747
  124OSM    H4G13243   3.295   7.019   7.115  0.6823 -0.6191 -0.8014
  124OSM    C5F13244   3.115   6.995   6.997  0.4469 -0.1054 -0.2178
  124OSM    H5F13245   3.152   6.898   6.956  0.9037 -1.0923  2.3102
  124OSM    H5G13246   3.052   7.042   6.919  0.2602  1.4386  0.8306
  124OSM    C6F13247   3.025   6.948   7.115 -0.1868 -0.8823  0.1555
  124OSM    H6F13248   2.999   7.048   7.156  1.1127  0.6716 -2.5358
  124OSM    H6G13249   3.095   6.901   7.186  1.4828  0.0364 -0.8187
  124OSM    C7F13250   2.893   6.889   7.067  0.8803 -0.1604 -0.1585
  124OSM    H7F13251   2.908   6.797   7.007  1.7816 -0.0135 -0.1707
  124OSM    H7G13252   2.840   6.962   7.001 -1.4460 -2.4875 -1.0369
  124OSM    C8F13253   2.799   6.858   7.183  0.3075  0.3579 -0.2294
  124OSM    H8F13254   2.702   6.835   7.135  0.1252  0.2494  0.1868
  124OSM    H8G13255   2.791   6.951   7.243 -3.5571  0.5302 -0.7408
  124OSM    C9F13256   2.834   6.735   7.259 -0.2849 -0.1146 -0.4617
  124OSM    H9F13257   2.942   6.742   7.281 -0.5213  1.6353  0.3221
  124OSM   C10F13258   2.777   6.624   7.304 -0.0057 -0.6378  0.4664
  124OSM   H10F13259   2.835   6.552   7.363 -0.6413 -1.9615 -0.4900
  124OSM   C11F13260   2.638   6.569   7.296  0.0398  0.1119  0.5014
  124OSM   H11F13261   2.570   6.643   7.345  0.4898  3.7333 -3.6748
  124OSM   H11G13262   2.638   6.469   7.343 -0.1723 -1.2817 -2.2828
  124OSM   C12F13263   2.587   6.541   7.149 -0.3659 -0.9127 -0.4813
  124OSM   H12F13264   2.667   6.479   7.103 -0.7915 -1.3473 -0.6374
  124OSM   H12G13265   2.584   6.637   7.093  0.5123 -0.7297 -0.2316
  124OSM   C13F13266   2.454   6.474   7.138 -0.4174  1.0857 -0.3190
  124OSM   H13F13267   2.452   6.364   7.144 -2.1216  1.1664  1.1764
  124OSM   H13G13268   2.422   6.491   7.033 -1.6242 -0.0485 -0.1487
  124OSM   C14F13269   2.345   6.529   7.228  0.3443  0.0767  0.1272
  124OSM   H14F13270   2.366   6.638   7.239  2.1506  0.0083 -1.8966
  124OSM   H14G13271   2.373   6.488   7.328  1.2735  2.0419  0.7323
  124OSM   C15F13272   2.201   6.506   7.187 -0.1458  0.8649  0.3127
  124OSM   H15F13273   2.170   6.399   7.188  0.3202  0.7292  2.1786
  124OSM   H15G13274   2.188   6.525   7.078  0.1910  0.4185  0.1945
  124OSM   C16F13275   2.098   6.578   7.277 -0.2505 -0.1048  0.1890
  124OSM   H16F13276   2.132   6.568   7.382  0.6838  1.0222  0.0058
  124OSM   H16G13277   2.003   6.526   7.251 -0.9787  1.9755 -1.6866
  124OSM   C17F13278   2.087   6.734   7.253  0.4427  0.7966 -0.2911
  124OSM   H17F13279   2.068   6.746   7.144 -1.1206  1.9363  0.0709
  124OSM   H17G13280   2.181   6.786   7.281  0.4149  0.4450  0.5011
  124OSM   C18F13281   1.974   6.789   7.343  0.1506  0.1810 -0.1623
  124OSM   H18F13282   1.877   6.748   7.308 -0.6741  0.5231  1.5914
  124OSM   H18G13283   1.964   6.899   7.343 -1.3845  0.1000 -2.3378
  124OSM   H18H13284   1.976   6.750   7.447 -0.8638 -0.3730 -0.3380
  125OSM      N13285   2.249   3.725   5.835  0.4709 -0.0273  0.2226
  125OSM    C1513286   2.254   3.632   5.726 -0.7039 -0.3624 -0.1538
  125OSM   H15A13287   2.163   3.575   5.708 -0.7589 -0.2890 -0.1092
  125OSM   H15B13288   2.341   3.569   5.736 -0.9124 -0.5904  0.2670
  125OSM   H15C13289   2.258   3.687   5.634 -2.6752 -0.1993 -0.1998
  125OSM    C1413290   2.382   3.791   5.860  0.1968  0.3880 -0.7271
  125OSM   H14A13291   2.423   3.838   5.772 -0.7554  0.4407 -1.1629
  125OSM   H14B13292   2.448   3.718   5.904 -0.4348 -0.9223 -1.8606
  125OSM   H14C13293   2.363   3.864   5.937 -2.3077 -0.2985 -0.5846
  125OSM    C1313294   2.159   3.834   5.795  0.7242 -0.0365  0.2333
  125OSM   H13A13295   2.186   3.892   5.709 -2.0003  0.0289 -0.6490
  125OSM   H13B13296   2.139   3.901   5.877 -0.6381 -0.6527  0.4390
  125OSM   H13C13297   2.061   3.793   5.774 -1.2967  4.1060  0.6516
  125OSM    C1213298   2.193   3.656   5.962 -0.1381  0.2904 -0.2080
  125OSM   H12A13299   2.235   3.557   5.972 -0.7471  0.0692  0.2339
  125OSM   H12B13300   2.085   3.650   5.960 -0.2932  0.6986  2.4488
  125OSM    C1113301   2.231   3.735   6.093  0.0369 -0.2546  0.2813
  125OSM   H11A13302   2.341   3.725   6.107 -0.1251  0.6378  2.5066
  125OSM   H11B13303   2.181   3.690   6.182 -0.6457  0.6702  0.3817
  125OSM      P13304   2.227   3.980   6.190  0.0940  0.0885  0.1416
  125OSM    O1313305   2.374   4.011   6.193  0.0492  0.1852  0.1974
  125OSM    O1413306   2.131   4.090   6.168 -0.1200  0.0970  0.4440
  125OSM    O1113307   2.192   3.908   6.324 -0.8539  0.1614  0.5660
  125OSM    O1213308   2.191   3.873   6.085 -0.3407  0.1104 -0.1441
  125OSM    C1S13309   2.297   3.861   6.409  0.3575  0.0894  0.1223
  125OSM    H1S13310   2.374   3.937   6.434  1.3402 -0.5680 -0.7932
  125OSM    H1T13311   2.352   3.778   6.359 -1.5719 -1.4878  0.5065
  125OSM     NF13312   2.341   3.799   6.638  0.4054  0.6097 -0.4566
  125OSM    HNF13313   2.356   3.711   6.684 -1.8738  0.3518 -0.0621
  125OSM    C2S13314   2.241   3.800   6.536 -0.3683  0.3230 -0.8272
  125OSM    H2S13315   2.159   3.866   6.571  0.2857  0.2101  0.9940
  125OSM    C3S13316   2.179   3.659   6.508 -0.2101 -0.4486 -0.0295
  125OSM    H3S13317   2.261   3.589   6.482 -1.2927 -1.3290 -1.2502
  125OSM     O313318   2.084   3.664   6.398 -0.2499  0.4038 -0.0879
  125OSM    HO313319   2.116   3.732   6.339 -0.9400  1.5668  0.8265
  125OSM    C4S13320   2.118   3.596   6.630 -0.1874 -0.0761 -0.4592
  125OSM    H4S13321   2.171   3.504   6.660 -1.1073 -0.3855  0.2596
  125OSM    C5S13322   2.014   3.642   6.701 -0.5700  0.0245 -0.1549
  125OSM    H5S13323   1.967   3.738   6.674  0.8378  0.3846 -1.4445
  125OSM    C6S13324   1.964   3.569   6.821  0.1397 -0.8361 -0.1579
  125OSM    H6S13325   2.035   3.490   6.854  1.9163  0.4739 -0.6823
  125OSM    H6T13326   1.869   3.514   6.804  0.8257 -1.2532 -3.2707
  125OSM    C7S13327   1.949   3.662   6.952  1.0827  0.3630  0.3604
  125OSM    H7S13328   1.876   3.743   6.932 -1.6251 -2.2045 -0.8160
  125OSM    H7T13329   2.052   3.698   6.974  2.0994 -1.1379 -1.6492
  125OSM    C8S13330   1.911   3.582   7.077 -0.6921  0.8068 -0.0284
  125OSM    H8S13331   1.980   3.498   7.097 -0.6516  1.3177  2.1987
  125OSM    H8T13332   1.818   3.522   7.069  1.2852 -2.4806 -0.2222
  125OSM    C9S13333   1.915   3.663   7.201  0.5596 -0.3503 -0.1035
  125OSM    H9S13334   1.844   3.749   7.199  1.1710  0.1503 -0.9909
  125OSM    H9T13335   2.022   3.690   7.208  1.1507 -2.1548 -1.3763
  125OSM   C10S13336   1.870   3.577   7.330  0.1171  0.1332 -0.2335
  125OSM   H10S13337   1.909   3.474   7.320  0.2156  0.2126 -0.6904
  125OSM   H10T13338   1.759   3.571   7.336  0.0470  1.6905  0.8685
  125OSM   C11S13339   1.919   3.645   7.460 -0.5525 -0.4796 -0.2413
  125OSM   H11S13340   1.885   3.751   7.459  0.9360  0.0262 -1.5912
  125OSM   H11T13341   2.029   3.659   7.464  0.2305 -3.8613 -3.5921
  125OSM   C12S13342   1.880   3.566   7.592 -0.6870  0.5827  0.2143
  125OSM   H12S13343   1.903   3.459   7.577  2.0969  1.0229  0.9117
  125OSM   H12T13344   1.773   3.578   7.620 -1.0438  1.2604 -1.2898
  125OSM   C13S13345   1.952   3.618   7.715  0.3334 -0.6788  0.2014
  125OSM   H13S13346   1.945   3.728   7.704 -3.1528 -1.0082 -2.6135
  125OSM   H13T13347   2.057   3.582   7.727  0.5541 -0.5741 -1.2444
  125OSM   C14S13348   1.878   3.571   7.839 -0.2751 -0.1375  0.6325
  125OSM   H14S13349   1.888   3.461   7.841  0.5075 -0.0726  2.7185
  125OSM   H14T13350   1.776   3.611   7.825  0.8025  2.7431  0.2033
  125OSM   C15S13351   1.919   3.646   7.964 -0.5908  0.5578 -0.1356
  125OSM   H15S13352   1.897   3.753   7.942 -2.4016  0.4958  1.1787
  125OSM   H15T13353   2.024   3.612   7.978 -1.3863 -2.2874 -0.3901
  125OSM   C16S13354   1.845   3.611   8.088 -0.0960  0.0315  0.1210
  125OSM   H16S13355   1.862   3.504   8.113  2.8235  0.5740  0.7285
  125OSM   H16T13356   1.736   3.633   8.087  0.0303  0.6695  0.2089
  125OSM   C17S13357   1.894   3.701   8.201 -0.1715 -0.1090 -0.1326
  125OSM   H17S13358   1.858   3.801   8.169 -0.1930  0.1340  0.6364
  125OSM   H17T13359   2.005   3.698   8.210 -0.1697  0.9324  0.3635
  125OSM   C18S13360   1.844   3.665   8.338 -0.9908  0.0811  0.5349
  125OSM   H18S13361   1.884   3.715   8.428 -2.6425 -1.2919  2.0886
  125OSM   H18T13362   1.866   3.558   8.357 -0.0135 -0.4618 -2.8535
  125OSM   H18U13363   1.737   3.693   8.344 -0.9190  0.1735  1.5185
  125OSM    C1F13364   2.401   3.906   6.686  0.3201  0.4872  0.0507
  125OSM     OF13365   2.383   4.022   6.652 -0.2819 -0.3445 -0.4005
  125OSM    C2F13366   2.486   3.862   6.794  0.5115  0.7084 -0.1349
  125OSM    H2F13367   2.555   3.783   6.755  0.5639  2.1545 -3.2386
  125OSM    H2G13368   2.431   3.812   6.877 -0.4838  0.7367 -0.7724
  125OSM    C3F13369   2.573   3.979   6.846 -0.1655  0.2229  0.4202
  125OSM    H3F13370   2.500   4.031   6.912 -0.2875 -0.2492  0.6667
  125OSM    H3G13371   2.616   4.045   6.768  1.4736  1.0851  2.0045
  125OSM    C4F13372   2.689   3.936   6.944 -0.1241  0.7388 -0.5490
  125OSM    H4F13373   2.741   4.034   6.958 -1.2169  1.4589 -1.3451
  125OSM    H4G13374   2.757   3.865   6.893 -0.8983 -0.5275  0.1326
  125OSM    C5F13375   2.649   3.878   7.082 -0.2285  0.8045 -0.2404
  125OSM    H5F13376   2.594   3.785   7.056 -1.4025  1.2620  0.5412
  125OSM    H5G13377   2.584   3.955   7.129  0.2777  2.5232 -2.2151
  125OSM    C6F13378   2.776   3.837   7.166  0.7943 -0.6950  0.3599
  125OSM    H6F13379   2.839   3.927   7.179 -0.2022  0.5613 -2.6138
  125OSM    H6G13380   2.833   3.759   7.111 -1.1357 -4.1061  2.8006
  125OSM    C7F13381   2.742   3.766   7.298  0.2673  0.3154 -0.1414
  125OSM    H7F13382   2.834   3.738   7.353  0.0634 -2.8132 -1.2152
  125OSM    H7G13383   2.691   3.669   7.281  1.5981 -0.1725 -1.5737
  125OSM    C8F13384   2.637   3.842   7.381 -0.6749  0.0158 -0.0132
  125OSM    H8F13385   2.590   3.764   7.446  0.4709  0.4864  1.4294
  125OSM    H8G13386   2.552   3.890   7.327  0.2278  1.1865 -0.4327
  125OSM    C9F13387   2.697   3.957   7.465  0.2936 -0.3212  0.3131
  125OSM    H9F13388   2.713   4.054   7.416 -0.3913  0.9032  2.3670
  125OSM   C10F13389   2.712   3.937   7.600  0.1988 -0.9595 -0.4110
  125OSM   H10F13390   2.732   4.032   7.652 -0.0664 -0.1555 -1.7092
  125OSM   C11F13391   2.688   3.822   7.692  0.1941  0.3629 -0.7315
  125OSM   H11F13392   2.787   3.772   7.693  0.8006  1.4316  2.1396
  125OSM   H11G13393   2.612   3.753   7.649  0.8030  0.7581 -2.5658
  125OSM   C12F13394   2.647   3.863   7.836  1.2176 -0.5209 -0.2632
  125OSM   H12F13395   2.562   3.935   7.837  0.0622 -1.8153 -1.0013
  125OSM   H12G13396   2.735   3.919   7.873  1.8933 -0.6785 -1.5720
  125OSM   C13F13397   2.604   3.740   7.914  0.6490 -0.0695  0.1803
  125OSM   H13F13398   2.675   3.656   7.898  0.0337 -0.7172  0.7729
  125OSM   H13G13399   2.510   3.708   7.865  1.1582 -1.3139 -0.0064
  125OSM   C14F13400   2.592   3.768   8.066 -0.4082  0.0159  0.1508
  125OSM   H14F13401   2.521   3.692   8.103  0.0397  0.2207  1.5045
  125OSM   H14G13402   2.546   3.869   8.074  2.9609  1.9776 -2.3755
  125OSM   C15F13403   2.722   3.761   8.139  0.0286  0.2980 -0.4450
  125OSM   H15F13404   2.780   3.678   8.093 -1.0167 -0.1129 -1.0315
  125OSM   H15G13405   2.688   3.747   8.243 -0.3281  2.8555 -0.1533
  125OSM   C16F13406   2.791   3.892   8.155  0.0456  0.5994 -0.2409
  125OSM   H16F13407   2.714   3.969   8.179 -0.6276  0.2258 -1.1469
  125OSM   H16G13408   2.843   3.917   8.060  2.4800 -2.2062  0.2183
  125OSM   C17F13409   2.896   3.899   8.264 -0.2516  0.4050 -0.0721
  125OSM   H17F13410   2.950   3.990   8.231 -0.4532  0.8131  0.7078
  125OSM   H17G13411   2.960   3.809   8.258 -2.2382 -1.0147 -0.9772
  125OSM   C18F13412   2.852   3.922   8.410 -0.4982 -1.0741 -0.4555
  125OSM   H18F13413   2.937   3.947   8.478 -2.2713  1.1994  1.0702
  125OSM   H18G13414   2.810   3.830   8.455  0.5815 -1.7852 -0.8659
  125OSM   H18H13415   2.783   4.009   8.417  1.7417  0.6530  3.2082
  126OSM      N13416   5.047   1.036   6.283 -0.2809  0.3328 -0.1807
  126OSM    C1513417   5.060   0.898   6.221 -0.1926  0.2861  0.0957
  126OSM   H15A13418   5.026   0.902   6.119  2.2495 -2.9683 -1.0164
  126OSM   H15B13419   5.008   0.822   6.278  1.2296  1.7389  3.6207
  126OSM   H15C13420   5.165   0.877   6.206 -0.4955 -0.2261 -1.5555
  126OSM    C1413421   4.906   1.080   6.311  0.0963  0.4507 -0.2492
  126OSM   H14A13422   4.853   1.028   6.389  0.3187  1.9670  0.9590
  126OSM   H14B13423   4.847   1.063   6.222  0.7552  0.6932 -0.7383
  126OSM   H14C13424   4.892   1.185   6.329 -3.1182  0.1940 -0.6304
  126OSM    C1313425   5.106   1.013   6.422  0.3746  0.0440 -0.5362
  126OSM   H13A13426   5.059   0.936   6.482  0.4561  2.4927  2.9798
  126OSM   H13B13427   5.097   1.102   6.482  0.4996  0.5975 -1.3227
  126OSM   H13C13428   5.210   0.984   6.425 -0.0196 -1.4757 -0.5484
  126OSM    C1213429   5.124   1.140   6.206  0.0691  0.3532  0.4129
  126OSM   H12A13430   5.085   1.151   6.106  1.7794  0.9212 -0.2372
  126OSM   H12B13431   5.226   1.104   6.201 -0.7892 -2.2729  0.6098
  126OSM    C1113432   5.133   1.283   6.263 -0.2082 -0.3137 -0.1373
  126OSM   H11A13433   5.031   1.320   6.287 -0.0031  0.0344  0.2099
  126OSM   H11B13434   5.168   1.350   6.182  1.5192 -0.1785  0.6612
  126OSM      P13435   5.209   1.419   6.466 -0.1529 -0.2006 -0.3591
  126OSM    O1313436   5.340   1.426   6.535 -0.1768 -0.1648 -0.1794
  126OSM    O1413437   5.160   1.538   6.399  0.4475  0.2985  0.8460
  126OSM    O1113438   5.108   1.362   6.578 -0.4195  0.3956  0.1984
  126OSM    O1213439   5.226   1.295   6.375  0.4958  0.4508 -0.0725
  126OSM    C1S13440   5.122   1.400   6.715 -0.0986  0.3340  0.2636
  126OSM    H1S13441   5.147   1.507   6.728  2.3659 -0.3067  1.1716
  126OSM    H1T13442   5.196   1.336   6.767 -1.6315 -1.9753 -0.2220
  126OSM     NF13443   4.999   1.461   6.928 -0.5298  0.2102  0.2716
  126OSM    HNF13444   5.010   1.403   7.008  0.8228 -2.6466 -1.7908
  126OSM    C2S13445   4.990   1.387   6.801  0.1754 -0.4604  0.2013
  126OSM    H2S13446   4.912   1.439   6.742  0.4505 -0.8961 -0.5596
  126OSM    C3S13447   4.956   1.233   6.807  0.2269 -0.3855  0.1732
  126OSM    H3S13448   5.022   1.197   6.889  0.7727 -0.9213 -0.4921
  126OSM     O313449   4.981   1.151   6.688 -0.6778 -0.4598  0.4688
  126OSM    HO313450   5.003   1.213   6.618 -1.6287  0.5173  1.0078
  126OSM    C4S13451   4.819   1.210   6.864  0.2966 -0.2570 -0.1281
  126OSM    H4S13452   4.816   1.210   6.974 -2.4503 -0.6347 -0.1393
  126OSM    C5S13453   4.707   1.187   6.794  0.2509 -0.7296  0.3373
  126OSM    H5S13454   4.714   1.188   6.684 -0.7953  1.8483  0.2351
  126OSM    C6S13455   4.579   1.165   6.855  0.4229  0.1694 -0.4943
  126OSM    H6S13456   4.547   1.058   6.852 -1.2613  0.5477  1.2811
  126OSM    H6T13457   4.508   1.230   6.799 -2.0059 -1.7473  0.1532
  126OSM    C7S13458   4.558   1.190   7.008  0.0914 -0.3074 -0.0133
  126OSM    H7S13459   4.587   1.295   7.027  0.5135 -0.2130 -1.1101
  126OSM    H7T13460   4.637   1.131   7.059  0.1102 -0.8106 -0.6085
  126OSM    C8S13461   4.415   1.164   7.058  0.2770  0.5058 -0.0242
  126OSM    H8S13462   4.405   1.056   7.085 -0.1075  0.3122 -0.9091
  126OSM    H8T13463   4.340   1.200   6.984 -0.1398  1.3092  0.7834
  126OSM    C9S13464   4.386   1.256   7.177 -0.1028 -0.5547 -0.4473
  126OSM    H9S13465   4.369   1.356   7.132  1.4633 -0.1153 -0.1221
  126OSM    H9T13466   4.470   1.252   7.249  1.4141  1.5480 -1.9673
  126OSM   C10S13467   4.254   1.215   7.250 -0.2937  0.0778 -0.3377
  126OSM   H10S13468   4.250   1.106   7.268 -0.9248 -0.0614 -1.2796
  126OSM   H10T13469   4.170   1.239   7.180  1.0048  1.9627 -1.3316
  126OSM   C11S13470   4.231   1.290   7.376 -0.6890 -0.0274  0.0920
  126OSM   H11S13471   4.219   1.399   7.362  0.5518 -0.0683 -1.7424
  126OSM   H11T13472   4.330   1.285   7.425 -1.9526 -2.4847  2.6877
  126OSM   C12S13473   4.116   1.233   7.461 -0.9692  0.3558 -0.3812
  126OSM   H12S13474   4.099   1.126   7.440 -0.0560  0.4020 -1.4200
  126OSM   H12T13475   4.022   1.287   7.433 -0.9426  0.4171 -0.3522
  126OSM   C13S13476   4.157   1.238   7.608 -0.2841  0.6221 -0.0208
  126OSM   H13S13477   4.071   1.259   7.676 -0.2902  0.8535 -0.0989
  126OSM   H13T13478   4.229   1.322   7.621 -0.7583  0.7533  2.2587
  126OSM   C14S13479   4.218   1.108   7.663  0.2077  0.7895  0.2170
  126OSM   H14S13480   4.281   1.063   7.583 -1.5665 -1.6626  0.1097
  126OSM   H14T13481   4.139   1.033   7.681  1.8272 -1.1972 -0.5276
  126OSM   C15S13482   4.290   1.127   7.796 -0.1574  0.1329 -0.4900
  126OSM   H15S13483   4.384   1.181   7.773 -1.9295  4.7158  1.8865
  126OSM   H15T13484   4.324   1.028   7.834 -0.2422  0.2807 -0.0249
  126OSM   C16S13485   4.204   1.198   7.900 -0.6663  0.7032  0.0609
  126OSM   H16S13486   4.096   1.183   7.881 -0.7462 -0.3404  1.1840
  126OSM   H16T13487   4.229   1.307   7.897 -2.9559  1.5410  3.7209
  126OSM   C17S13488   4.246   1.149   8.042  0.4094 -0.5006  0.2665
  126OSM   H17S13489   4.209   1.223   8.116 -2.9432 -0.6284 -1.1106
  126OSM   H17T13490   4.357   1.148   8.043  0.5477  1.1364 -2.2651
  126OSM   C18S13491   4.194   1.005   8.069  0.2462  0.0810 -0.2245
  126OSM   H18S13492   4.083   1.002   8.078  0.1752 -0.2534 -1.1147
  126OSM   H18T13493   4.239   0.965   8.162  0.9166  2.1314  0.3968
  126OSM   H18U13494   4.222   0.944   7.981 -0.9577 -0.1922 -0.4377
  126OSM    C1F13495   5.001   1.594   6.940 -0.4239 -0.4291  0.5540
  126OSM     OF13496   4.996   1.661   6.840 -0.2843 -0.2764 -0.8649
  126OSM    C2F13497   5.014   1.652   7.077 -0.4608 -0.1443 -0.1571
  126OSM    H2F13498   5.111   1.706   7.075 -0.5879  0.0807 -0.2762
  126OSM    H2G13499   5.009   1.570   7.152 -0.3797 -0.9061 -0.9682
  126OSM    C3F13500   4.903   1.746   7.109 -0.1798  0.5396 -1.2239
  126OSM    H3F13501   4.806   1.693   7.115  1.2285 -2.1220 -0.1524
  126OSM    H3G13502   4.902   1.824   7.030 -0.4104  0.8468 -0.9191
  126OSM    C4F13503   4.930   1.824   7.235 -0.3356  1.0884 -0.0412
  126OSM    H4F13504   4.861   1.911   7.241 -2.3353 -0.0587 -3.3697
  126OSM    H4G13505   5.036   1.858   7.235 -0.3172  1.0445  0.6999
  126OSM    C5F13506   4.925   1.737   7.362 -0.1557 -0.1072  0.6084
  126OSM    H5F13507   5.006   1.661   7.353  1.2321  1.4412 -0.4619
  126OSM    H5G13508   4.829   1.681   7.370 -0.1013 -0.7782 -2.4180
  126OSM    C6F13509   4.934   1.823   7.490  0.1564  0.1022  0.7019
  126OSM    H6F13510   4.844   1.886   7.495 -1.0474 -1.2613 -1.7454
  126OSM    H6G13511   5.025   1.886   7.487 -0.1679  0.6796  2.2449
  126OSM    C7F13512   4.942   1.737   7.610 -0.2466  0.2819 -0.2268
  126OSM    H7F13513   5.044   1.693   7.597 -0.2855 -0.2556  1.1544
  126OSM    H7G13514   4.861   1.661   7.606  0.3726 -0.4919  1.1452
  126OSM    C8F13515   4.935   1.810   7.745  0.3321 -0.1129  0.6402
  126OSM    H8F13516   4.834   1.853   7.762 -0.0772 -0.5507 -0.6325
  126OSM    H8G13517   5.007   1.894   7.736 -0.1350  0.3684  1.3222
  126OSM    C9F13518   4.957   1.728   7.869 -0.0414  0.2101 -0.6937
  126OSM    H9F13519   4.960   1.620   7.852 -0.9085 -0.0201  0.4971
  126OSM   C10F13520   4.952   1.766   8.000  0.6142  0.4040  0.4378
  126OSM   H10F13521   4.971   1.689   8.076  1.4534  0.8658  0.7100
  126OSM   C11F13522   4.908   1.899   8.046  0.2211  0.2158  0.2819
  126OSM   H11F13523   4.846   1.953   7.971  1.4655  2.4816  0.7798
  126OSM   H11G13524   4.999   1.960   8.065  0.5596 -0.0649 -0.3955
  126OSM   C12F13525   4.844   1.893   8.189 -0.5880 -0.2824  0.0725
  126OSM   H12F13526   4.917   1.866   8.269 -1.7648 -1.6625  0.7332
  126OSM   H12G13527   4.758   1.823   8.184 -0.8090 -0.0147  0.1505
  126OSM   C13F13528   4.777   2.033   8.224  0.0439 -0.0371  0.2276
  126OSM   H13F13529   4.704   2.049   8.142  0.8912  1.6897 -0.2210
  126OSM   H13G13530   4.840   2.124   8.225 -1.7916  1.2854  0.3582
  126OSM   C14F13531   4.703   2.033   8.358  0.3978  0.7534  0.5720
  126OSM   H14F13532   4.786   2.014   8.430  1.2776 -1.7791 -0.9955
  126OSM   H14G13533   4.634   1.950   8.381  0.5496  0.3443 -0.4016
  126OSM   C15F13534   4.638   2.165   8.389 -0.1104  0.2821  0.3113
  126OSM   H15F13535   4.561   2.195   8.314  0.6927 -1.1995 -1.1707
  126OSM   H15G13536   4.720   2.240   8.384 -1.6121  2.0778  1.1340
  126OSM   C16F13537   4.589   2.180   8.534 -0.2719 -0.0519 -0.1727
  126OSM   H16F13538   4.669   2.226   8.596  1.1840  0.6180 -2.4527
  126OSM   H16G13539   4.565   2.080   8.578 -1.1272  1.2485  2.5691
  126OSM   C17F13540   4.467   2.274   8.556 -0.4771 -0.1462  0.1476
  126OSM   H17F13541   4.387   2.244   8.486 -0.7648 -2.4972  1.3859
  126OSM   H17G13542   4.483   2.383   8.537 -1.5933 -0.0418 -0.2518
  126OSM   C18F13543   4.400   2.264   8.692 -0.2193 -0.1696 -0.7135
  126OSM   H18F13544   4.478   2.258   8.772 -0.7687  1.0475 -0.0649
  126OSM   H18G13545   4.346   2.167   8.693 -1.4970  0.5273 -1.1367
  126OSM   H18H13546   4.321   2.339   8.707 -1.3761 -1.5070  0.1661
  127OSM      N13547   0.517   0.609   6.085 -0.3404  0.5295 -0.5203
  127OSM    C1513548   0.607   0.670   6.190 -0.2273  0.2037 -0.7991
  127OSM   H15A13549   0.661   0.748   6.138  1.2250 -0.0833  0.1932
  127OSM   H15B13550   0.682   0.602   6.229  1.1303  0.5623 -2.6225
  127OSM   H15C13551   0.543   0.713   6.265  0.7298 -0.0705  0.2175
  127OSM    C1413552   0.609   0.541   5.990  0.4183  0.1419  0.1989
  127OSM   H14A13553   0.665   0.464   6.040 -2.1550 -1.1936  1.2061
  127OSM   H14B13554   0.680   0.612   5.949 -0.7532  0.4373 -1.4456
  127OSM   H14C13555   0.565   0.494   5.903 -1.1545 -0.3662  1.2341
  127OSM    C1313556   0.436   0.508   6.158  0.3272  0.1529 -0.7399
  127OSM   H13A13557   0.371   0.447   6.097 -3.2278 -0.4205  3.1533
  127OSM   H13B13558   0.380   0.558   6.236  0.9344  1.6394 -1.2177
  127OSM   H13C13559   0.506   0.435   6.197 -0.8379 -0.4705  0.2768
  127OSM    C1213560   0.427   0.713   6.016  0.4551 -0.3720  0.2359
  127OSM   H12A13561   0.358   0.658   5.954  1.4370 -1.2770 -0.1047
  127OSM   H12B13562   0.483   0.769   5.942 -0.1481 -0.9901 -0.7105
  127OSM    C1113563   0.338   0.809   6.098 -0.3740  0.5198  0.8850
  127OSM   H11A13564   0.268   0.756   6.166 -0.7114  3.1720  2.7602
  127OSM   H11B13565   0.291   0.871   6.019  0.1394  0.3430  0.4315
  127OSM      P13566   0.396   1.049   6.188  0.2727  0.1368  0.3183
  127OSM    O1313567   0.533   1.104   6.182 -0.0163  0.5340 -0.7111
  127OSM    O1413568   0.306   1.104   6.088  0.3764  0.0831 -0.7089
  127OSM    O1113569   0.328   1.068   6.338  1.1321 -0.0046 -0.4408
  127OSM    O1213570   0.418   0.892   6.178  0.4845  0.1051  0.4358
  127OSM    C1S13571   0.401   1.028   6.452 -0.1031  0.2265 -0.2295
  127OSM    H1S13572   0.467   1.105   6.498 -0.9041  0.6683  0.1953
  127OSM    H1T13573   0.459   0.936   6.430 -2.0951 -1.0735 -0.2987
  127OSM     NF13574   0.379   0.963   6.683  0.1864  0.2940  0.0806
  127OSM    HNF13575   0.415   0.870   6.691 -2.4612 -0.8424 -0.3937
  127OSM    C2S13576   0.300   0.980   6.566  0.4112  0.1028 -0.0197
  127OSM    H2S13577   0.234   1.067   6.589 -0.6659 -0.6122 -0.3327
  127OSM    C3S13578   0.211   0.860   6.518 -0.5047 -0.2918 -0.5068
  127OSM    H3S13579   0.273   0.780   6.472 -2.3571 -1.3106 -1.3264
  127OSM     O313580   0.128   0.917   6.412 -0.2980  0.1867 -0.0302
  127OSM    HO313581   0.181   0.988   6.376 -1.2415  0.0639 -1.7389
  127OSM    C4S13582   0.129   0.798   6.629 -0.3227 -0.1135  0.1877
  127OSM    H4S13583   0.138   0.689   6.637  0.8837 -0.0006  0.4947
  127OSM    C5S13584   0.048   0.860   6.718  0.2446 -0.3256 -0.1896
  127OSM    H5S13585   0.030   0.969   6.715 -0.0359 -0.3760 -0.4223
  127OSM    C6S13586  -0.023   0.785   6.828  0.4266 -0.2003  0.3383
  127OSM    H6S13587  -0.010   0.675   6.829  1.6560 -0.0703  0.8470
  127OSM    H6T13588  -0.133   0.794   6.819  0.4169 -1.3604 -1.2330
  127OSM    C7S13589   0.029   0.847   6.963  0.0519  1.0879  0.9835
  127OSM    H7S13590   0.002   0.955   6.956 -4.3108  0.0915 -3.4291
  127OSM    H7T13591   0.139   0.831   6.970  0.1229 -0.7244 -2.2143
  127OSM    C8S13592  -0.043   0.777   7.077 -0.1719 -0.1339  0.1082
  127OSM    H8S13593  -0.038   0.667   7.059 -1.6584 -0.2526  0.3148
  127OSM    H8T13594  -0.149   0.810   7.068  0.4896  1.7628 -1.5001
  127OSM    C9S13595   0.024   0.830   7.211  0.3833 -0.5337 -0.0002
  127OSM    H9S13596   0.014   0.940   7.211  1.5476 -0.4015 -0.9967
  127OSM    H9T13597   0.134   0.820   7.201  0.6866  0.8622  1.5529
  127OSM   C10S13598  -0.023   0.764   7.333  0.4463  0.5835 -0.6380
  127OSM   H10S13599   0.011   0.660   7.316  0.2583 -0.1924  2.9261
  127OSM   H10T13600  -0.134   0.756   7.334  0.3119  2.1420 -0.8497
  127OSM   C11S13601   0.033   0.818   7.465  0.0919 -0.7296  0.1342
  127OSM   H11S13602   0.002   0.924   7.454 -0.5191 -0.9055  0.1392
  127OSM   H11T13603   0.144   0.809   7.453  0.6779  1.7817  2.7537
  127OSM   C12S13604  -0.008   0.741   7.588  0.2684 -1.0781 -0.1211
  127OSM   H12S13605   0.052   0.647   7.590  1.3894 -0.3696  0.4085
  127OSM   H12T13606  -0.116   0.719   7.572  0.4236 -0.4697 -2.3981
  127OSM   C13S13607   0.013   0.808   7.729 -0.7131  0.3100  0.5779
  127OSM   H13S13608  -0.013   0.736   7.809  1.4901 -0.5724  0.5771
  127OSM   H13T13609  -0.052   0.898   7.741 -0.3873  0.4827  1.0554
  127OSM   C14S13610   0.153   0.862   7.745 -0.2554  0.2166 -0.1503
  127OSM   H14S13611   0.159   0.965   7.704  1.3700  0.0570 -0.3554
  127OSM   H14T13612   0.222   0.799   7.686  2.1769  0.7224  1.9449
  127OSM   C15S13613   0.202   0.880   7.892 -0.0748 -0.4329 -0.0803
  127OSM   H15S13614   0.131   0.935   7.958  0.7405  1.7173 -0.9068
  127OSM   H15T13615   0.283   0.956   7.886 -0.1720 -0.3024  0.2433
  127OSM   C16S13616   0.256   0.764   7.968  0.0835 -0.2424 -0.7134
  127OSM   H16S13617   0.353   0.756   7.914  0.1765  0.6953 -0.6993
  127OSM   H16T13618   0.183   0.681   7.956  2.0262 -1.6268 -4.6230
  127OSM   C17S13619   0.275   0.797   8.112 -0.3843 -0.5996 -1.1988
  127OSM   H17S13620   0.192   0.853   8.159  0.6173 -0.0588 -0.0240
  127OSM   H17T13621   0.361   0.867   8.119  0.4554 -1.6120 -1.0324
  127OSM   C18S13622   0.295   0.672   8.197 -0.0491 -0.6440 -0.7889
  127OSM   H18S13623   0.381   0.614   8.156  0.7488  0.5342 -0.8092
  127OSM   H18T13624   0.209   0.604   8.178 -0.2677 -0.4091 -0.6390
  127OSM   H18U13625   0.301   0.699   8.304  0.5484  0.3831 -1.0680
  127OSM    C1F13626   0.432   1.070   6.743 -0.4322  0.4204  0.1191
  127OSM     OF13627   0.417   1.187   6.706  0.7188  0.0136 -0.5912
  127OSM    C2F13628   0.508   1.041   6.869 -0.4085  0.1442  0.5598
  127OSM    H2F13629   0.599   1.105   6.871 -0.9326  0.8932  0.8544
  127OSM    H2G13630   0.557   0.941   6.865  1.7109  1.1191  0.6259
  127OSM    C3F13631   0.434   1.071   6.993 -0.0113  0.1133 -0.1537
  127OSM    H3F13632   0.336   1.020   6.997  0.4514 -0.7299  1.4306
  127OSM    H3G13633   0.413   1.179   6.999  1.0932  0.3322  0.0924
  127OSM    C4F13634   0.517   1.021   7.112 -0.1312  0.1654  0.3736
  127OSM    H4F13635   0.625   1.043   7.098  0.1994 -1.1167  0.7443
  127OSM    H4G13636   0.511   0.910   7.103  0.4404  0.1901 -0.4903
  127OSM    C5F13637   0.465   1.067   7.247 -0.4258 -0.3646 -0.1383
  127OSM    H5F13638   0.354   1.067   7.250 -0.4675  1.9156  0.3880
  127OSM    H5G13639   0.495   1.174   7.243 -0.1727 -0.4721 -1.6243
  127OSM    C6F13640   0.511   1.000   7.370 -0.0896 -0.6257  0.3800
  127OSM    H6F13641   0.621   0.991   7.354 -0.3172 -0.9487 -1.1599
  127OSM    H6G13642   0.471   0.897   7.387  1.4793 -1.2363  0.5362
  127OSM    C7F13643   0.445   1.078   7.488  0.2337  0.4900  0.0207
  127OSM    H7F13644   0.334   1.066   7.485  0.3063 -3.2772  3.2355
  127OSM    H7G13645   0.468   1.186   7.483 -2.2980  1.2765  2.3435
  127OSM    C8F13646   0.480   1.024   7.629 -0.2835 -0.2276 -0.3573
  127OSM    H8F13647   0.453   0.916   7.635 -0.4475 -0.1728 -0.0928
  127OSM    H8G13648   0.414   1.081   7.698 -1.4927 -2.5168  0.5227
  127OSM    C9F13649   0.624   1.033   7.673 -0.2073  0.9440  0.5084
  127OSM    H9F13650   0.687   1.072   7.591 -0.3814  0.3469  0.0891
  127OSM   C10F13651   0.667   0.993   7.798  0.0466  0.1424 -0.1271
  127OSM   H10F13652   0.775   1.012   7.807 -0.2031  1.7846 -0.2431
  127OSM   C11F13653   0.587   0.939   7.917 -0.0445 -0.2641 -0.6258
  127OSM   H11F13654   0.495   0.895   7.873 -1.2984  1.2036  0.3930
  127OSM   H11G13655   0.544   1.019   7.982 -1.1977 -0.0860 -1.5620
  127OSM   C12F13656   0.656   0.847   8.015 -0.2475 -0.3030  0.4352
  127OSM   H12F13657   0.695   0.761   7.957 -0.2998  0.4424 -0.7345
  127OSM   H12G13658   0.594   0.793   8.090 -0.4296  0.1887  0.6455
  127OSM   C13F13659   0.762   0.929   8.093  0.2419 -0.0277 -0.0688
  127OSM   H13F13660   0.714   1.008   8.156  0.9257  2.5346 -2.5543
  127OSM   H13G13661   0.830   0.985   8.024  1.7118  0.6120  1.7782
  127OSM   C14F13662   0.854   0.840   8.182  0.1270 -0.1398 -0.1249
  127OSM   H14F13663   0.879   0.739   8.144 -0.0131 -0.2974  0.1936
  127OSM   H14G13664   0.798   0.825   8.277 -0.8532  1.8135 -0.3307
  127OSM   C15F13665   0.973   0.920   8.228  0.9802 -0.2699 -0.1638
  127OSM   H15F13666   0.922   1.009   8.270 -0.5209  0.0134 -2.4163
  127OSM   H15G13667   1.045   0.949   8.149  0.9848 -1.8447 -0.7915
  127OSM   C16F13668   1.070   0.840   8.318  0.1962 -0.1822 -0.0469
  127OSM   H16F13669   1.151   0.796   8.257  0.4715  1.2321 -0.7344
  127OSM   H16G13670   1.008   0.761   8.366  0.3170 -0.6213 -0.6046
  127OSM   C17F13671   1.128   0.928   8.423  0.6682  0.2507  0.2030
  127OSM   H17F13672   1.042   0.982   8.469 -0.2573 -0.2793 -0.8380
  127OSM   H17G13673   1.190   1.006   8.375  0.7642 -0.5745 -1.0727
  127OSM   C18F13674   1.217   0.850   8.528 -0.0714 -0.1045  0.8596
  127OSM   H18F13675   1.252   0.914   8.612  1.5459 -0.7565  0.7302
  127OSM   H18G13676   1.310   0.805   8.487 -0.5588 -1.0337  0.7510
  127OSM   H18H13677   1.158   0.765   8.568  0.6925 -0.9970  0.1558
  128OSM      N13678   3.023   6.355   6.095  0.7069 -0.8034  0.1072
  128OSM    C1513679   2.874   6.345   6.139 -0.5200 -0.3018  0.0518
  128OSM   H15A13680   2.862   6.321   6.244  2.5107  1.6032  0.9325
  128OSM   H15B13681   2.823   6.269   6.081 -0.2863 -1.3652  1.1889
  128OSM   H15C13682   2.823   6.440   6.132 -1.5157 -0.7872  0.3821
  128OSM    C1413683   3.030   6.353   5.947 -0.1870 -0.2552 -0.0215
  128OSM   H14A13684   3.131   6.383   5.921 -0.1116 -0.4518  0.0496
  128OSM   H14B13685   2.960   6.424   5.904 -0.1054  1.4436  2.4286
  128OSM   H14C13686   3.010   6.253   5.911 -0.1042 -1.1640  2.3355
  128OSM    C1313687   3.087   6.485   6.157 -0.1191  1.0439  0.1468
  128OSM   H13A13688   3.025   6.573   6.147 -2.2246 -0.5945 -2.7671
  128OSM   H13B13689   3.186   6.505   6.119  0.1731  0.2189  0.4522
  128OSM   H13C13690   3.096   6.479   6.264  0.6728 -0.7397  0.0258
  128OSM    C1213691   3.104   6.238   6.148  0.2071 -0.0443 -0.2626
  128OSM   H12A13692   3.099   6.227   6.255  0.9324 -2.2350 -0.4083
  128OSM   H12B13693   3.210   6.255   6.130  0.0269  0.4277 -0.9518
  128OSM    C1113694   3.069   6.106   6.084 -0.3943  0.4555 -0.6107
  128OSM   H11A13695   3.115   6.118   5.983  0.4783 -0.3404 -0.3275
  128OSM   H11B13696   2.960   6.089   6.076 -0.7210  2.5176 -0.9921
  128OSM      P13697   3.069   5.964   6.291 -0.7607 -0.2674  0.0934
  128OSM    O1313698   3.093   6.066   6.394 -0.8988 -0.3805  0.4764
  128OSM    O1413699   2.928   5.930   6.266  0.3235  0.3281  0.0340
  128OSM    O1113700   3.149   5.837   6.323  0.1146  0.0983  0.0895
  128OSM    O1213701   3.135   5.999   6.152  0.2654  0.2149 -0.4039
  128OSM    C1S13702   3.190   5.781   6.448 -0.4682 -0.5696 -0.7336
  128OSM    H1S13703   3.229   5.862   6.513 -3.8176  2.0157 -1.6916
  128OSM    H1T13704   3.280   5.718   6.431  0.8373 -0.0884  3.4102
  128OSM     NF13705   3.125   5.683   6.662 -0.1554 -0.1797  0.3748
  128OSM    HNF13706   3.174   5.599   6.688 -0.6089 -0.7558 -0.6065
  128OSM    C2S13707   3.078   5.702   6.525  0.4807  0.3231  0.4092
  128OSM    H2S13708   2.987   5.765   6.535  2.0669  2.8072  0.1331
  128OSM    C3S13709   3.045   5.566   6.446  0.1672  0.0932  0.3545
  128OSM    H3S13710   3.139   5.507   6.449 -0.0613 -0.2598  0.8560
  128OSM     O313711   3.017   5.581   6.304 -0.1644 -0.4101  0.1609
  128OSM    HO313712   3.059   5.661   6.273  0.1913 -1.6725 -2.9836
  128OSM    C4S13713   2.929   5.496   6.515 -0.2906 -0.9405  0.3310
  128OSM    H4S13714   2.840   5.560   6.501  1.1732  0.9396 -0.7442
  128OSM    C5S13715   2.928   5.381   6.582 -0.3317 -0.1639  0.7026
  128OSM    H5S13716   3.018   5.317   6.576  0.1533  0.6051 -1.1174
  128OSM    C6S13717   2.811   5.319   6.658  0.1438 -0.2041  0.0412
  128OSM    H6S13718   2.820   5.208   6.659 -0.6816 -0.2869 -0.6407
  128OSM    H6T13719   2.711   5.339   6.614  0.5449  0.1425 -0.7358
  128OSM    C7S13720   2.816   5.370   6.805  0.1127 -0.4802 -0.6243
  128OSM    H7S13721   2.716   5.347   6.849  0.8548 -0.8437  0.9488
  128OSM    H7T13722   2.824   5.480   6.795  1.4389 -0.3679  1.2691
  128OSM    C8S13723   2.941   5.343   6.889  0.2534 -0.2162 -0.5792
  128OSM    H8S13724   3.015   5.422   6.864  0.0656  0.3238  0.5208
  128OSM    H8T13725   2.975   5.238   6.876 -2.6397 -1.3414  0.1010
  128OSM    C9S13726   2.900   5.366   7.034 -0.9140  0.0525  0.1898
  128OSM    H9S13727   2.802   5.322   7.061 -1.2739 -1.7951 -3.5698
  128OSM    H9T13728   2.893   5.474   7.062  0.9301  0.6569 -1.3750
  128OSM   C10S13729   3.007   5.314   7.132  0.4719 -0.5157  0.3206
  128OSM   H10S13730   3.111   5.338   7.100 -0.2886  0.0931 -1.8222
  128OSM   H10T13731   3.007   5.204   7.122  0.7422 -0.4440 -0.5485
  128OSM   C11S13732   2.991   5.359   7.277 -0.5973 -0.3781 -0.0960
  128OSM   H11S13733   2.901   5.311   7.320  0.1005 -0.9355  0.7871
  128OSM   H11T13734   2.975   5.468   7.264 -2.6188 -0.6006  0.3032
  128OSM   C12S13735   3.101   5.327   7.373 -0.0985 -0.0362 -0.0862
  128OSM   H12S13736   3.189   5.379   7.330  0.1674  0.1492  0.6603
  128OSM   H12T13737   3.132   5.220   7.376 -1.6214 -0.5021  0.4259
  128OSM   C13S13738   3.069   5.384   7.516 -0.6966  0.2126 -0.9758
  128OSM   H13S13739   3.016   5.481   7.523  0.7775  0.9403  2.3478
  128OSM   H13T13740   3.168   5.393   7.566 -0.5065 -1.1350 -1.0715
  128OSM   C14S13741   2.972   5.286   7.590 -0.3575  0.3800  0.4626
  128OSM   H14S13742   2.928   5.210   7.522 -0.3502  0.7702  0.0164
  128OSM   H14T13743   2.886   5.342   7.632 -0.5357 -1.6134  3.0520
  128OSM   C15S13744   3.042   5.218   7.707 -0.0688 -0.8007  0.2921
  128OSM   H15S13745   3.146   5.185   7.685  0.4515 -0.1622  1.6522
  128OSM   H15T13746   2.990   5.124   7.736 -0.3409 -0.3016  1.4549
  128OSM   C16S13747   3.057   5.309   7.835 -0.0667  0.1288 -0.0565
  128OSM   H16S13748   2.956   5.352   7.855 -0.7321 -0.1528 -2.4752
  128OSM   H16T13749   3.122   5.387   7.792 -0.2795 -0.0738 -0.7496
  128OSM   C17S13750   3.131   5.242   7.952 -0.6116 -0.3508  0.5499
  128OSM   H17S13751   3.182   5.331   7.995 -0.8461  0.1957 -0.2753
  128OSM   H17T13752   3.209   5.175   7.909 -1.2643 -0.3657 -0.6428
  128OSM   C18S13753   3.048   5.174   8.056  0.2942 -0.4764  0.4857
  128OSM   H18S13754   2.965   5.238   8.094  0.0351 -1.0461  0.8822
  128OSM   H18T13755   3.120   5.143   8.135  1.0799  0.0974  0.0151
  128OSM   H18U13756   3.005   5.076   8.026  0.4139 -0.2200 -0.5716
  128OSM    C1F13757   3.135   5.765   6.767  0.5891  0.9077  0.4280
  128OSM     OF13758   3.094   5.878   6.754 -0.4542 -0.0673  0.2545
  128OSM    C2F13759   3.198   5.712   6.899 -0.3128 -0.5420  0.6513
  128OSM    H2F13760   3.306   5.727   6.880 -1.0218  1.8215 -2.3850
  128OSM    H2G13761   3.161   5.607   6.908  0.1457 -1.0117 -1.9643
  128OSM    C3F13762   3.148   5.785   7.029 -0.5775  0.1547  0.2652
  128OSM    H3F13763   3.039   5.781   7.047 -0.4585  1.7756  1.6499
  128OSM    H3G13764   3.182   5.891   7.026  0.2699 -0.1251 -0.7906
  128OSM    C4F13765   3.220   5.743   7.154 -0.2187 -0.6617 -0.6271
  128OSM    H4F13766   3.331   5.738   7.145 -0.0532  1.4856 -0.4101
  128OSM    H4G13767   3.186   5.641   7.182  0.6017 -0.6115  0.6046
  128OSM    C5F13768   3.188   5.838   7.272 -0.2534  0.7125  0.2730
  128OSM    H5F13769   3.078   5.841   7.286 -0.4511 -1.2963 -0.6420
  128OSM    H5G13770   3.224   5.939   7.242 -1.0775  0.4711 -1.6485
  128OSM    C6F13771   3.254   5.782   7.400 -0.0844 -0.0937  0.0248
  128OSM    H6F13772   3.362   5.808   7.406  0.3260 -1.4457 -0.9564
  128OSM    H6G13773   3.248   5.671   7.407 -2.5499 -0.1671 -1.9695
  128OSM    C7F13774   3.194   5.848   7.526  0.0166 -0.3160  0.1457
  128OSM    H7F13775   3.098   5.805   7.564  0.3760 -1.0901  0.1935
  128OSM    H7G13776   3.164   5.952   7.503 -2.0238 -1.0764 -0.9925
  128OSM    C8F13777   3.294   5.858   7.641 -0.3327  0.2929 -0.2693
  128OSM    H8F13778   3.241   5.909   7.724  0.0795  1.2094 -0.5504
  128OSM    H8G13779   3.370   5.933   7.612  0.7833 -0.9791 -0.7626
  128OSM    C9F13780   3.355   5.722   7.685 -0.6711  0.6084  0.2134
  128OSM    H9F13781   3.293   5.637   7.655 -0.6212  0.5468  0.2833
  128OSM   C10F13782   3.470   5.700   7.748  0.3290  0.0802  0.4840
  128OSM   H10F13783   3.507   5.600   7.775 -1.0202 -1.0873 -1.6272
  128OSM   C11F13784   3.559   5.811   7.788  0.9112 -0.1849  0.1139
  128OSM   H11F13785   3.553   5.908   7.735 -1.8395 -0.5452 -0.3688
  128OSM   H11G13786   3.662   5.777   7.763  1.2496  1.5790 -1.0434
  128OSM   C12F13787   3.555   5.823   7.939  0.5295 -0.0843  0.1957
  128OSM   H12F13788   3.623   5.908   7.961 -1.2662  1.3003  0.6886
  128OSM   H12G13789   3.587   5.729   7.989  1.2160  0.1251  0.1576
  128OSM   C13F13790   3.425   5.869   8.012 -0.2793 -0.2408  0.4850
  128OSM   H13F13791   3.351   5.786   8.003  1.1152 -1.5512  0.7915
  128OSM   H13G13792   3.389   5.954   7.950 -2.4885 -1.7815 -0.4869
  128OSM   C14F13793   3.448   5.917   8.153  0.4570 -0.0784  0.5654
  128OSM   H14F13794   3.501   6.014   8.151  0.5091 -0.0844  1.2998
  128OSM   H14G13795   3.512   5.841   8.203  1.5585  0.4248 -0.0392
  128OSM   C15F13796   3.320   5.950   8.235 -0.1913  0.3768 -0.1905
  128OSM   H15F13797   3.275   5.852   8.263  1.9530  0.1566  3.0681
  128OSM   H15G13798   3.254   6.005   8.165  0.7920 -0.7140 -2.0378
  128OSM   C16F13799   3.332   6.039   8.364 -0.4111 -0.0300  0.2004
  128OSM   H16F13800   3.412   6.112   8.339 -0.1120 -1.3879 -3.2794
  128OSM   H16G13801   3.365   5.968   8.444  1.8885 -1.1434 -1.6283
  128OSM   C17F13802   3.195   6.097   8.407 -0.6152 -0.3445  0.2736
  128OSM   H17F13803   3.180   6.106   8.517 -3.3436  3.4730 -0.2596
  128OSM   H17G13804   3.114   6.028   8.376 -0.8020  0.4194 -1.0104
  128OSM   C18F13805   3.171   6.235   8.341 -0.1157  0.4778  0.3260
  128OSM   H18F13806   3.070   6.270   8.369  0.0651  0.6061  0.8430
  128OSM   H18G13807   3.171   6.229   8.230 -0.0307  2.0451  0.2150
  128OSM   H18H13808   3.236   6.316   8.382 -0.1443  0.7671 -0.1876
  129OSM      N13809   0.475   0.024   5.934 -0.2078 -0.6158 -0.0154
  129OSM    C1513810   0.506   0.156   5.864  0.1771 -0.6346 -0.2488
  129OSM   H15A13811   0.424   0.224   5.880  1.1753 -0.0179  3.0942
  129OSM   H15B13812   0.511   0.136   5.758  0.9222 -0.1731 -0.3092
  129OSM   H15C13813   0.594   0.207   5.901 -0.4070 -0.4950  0.9807
  129OSM    C1413814   0.377  -0.042   5.835  0.3003 -0.6282 -0.7968
  129OSM   H14A13815   0.367  -0.146   5.864  0.2254 -0.1267  1.1690
  129OSM   H14B13816   0.419  -0.033   5.736  1.0840 -1.6277 -0.5718
  129OSM   H14C13817   0.280   0.005   5.825  0.5349 -0.0492 -0.4161
  129OSM    C1313818   0.583  -0.072   5.957  0.6999 -0.7782  0.3593
  129OSM   H13A13819   0.633  -0.096   5.864 -0.4049  0.5166 -0.6163
  129OSM   H13B13820   0.544  -0.166   5.993 -2.9862 -0.8216 -3.1190
  129OSM   H13C13821   0.658  -0.026   6.020 -0.6524  0.3563  1.1857
  129OSM    C1213822   0.402   0.047   6.067 -0.2339  0.1589 -0.5360
  129OSM   H12A13823   0.362  -0.049   6.097 -0.6596 -0.0036 -1.5826
  129OSM   H12B13824   0.319   0.115   6.059 -0.3133  0.6005  2.8145
  129OSM    C1113825   0.471   0.108   6.196 -0.0803 -0.6465  0.1213
  129OSM   H11A13826   0.402   0.143   6.275  0.4232  2.8167 -0.8376
  129OSM   H11B13827   0.517   0.206   6.172 -1.9711  0.8164  2.1024
  129OSM      P13828   0.499  -0.104   6.345  0.1968  0.1853 -0.0254
  129OSM    O1313829   0.436  -0.194   6.244  0.3725  0.3116 -0.3313
  129OSM    O1413830   0.603  -0.166   6.434 -0.3083 -0.0574 -0.1965
  129OSM    O1113831   0.376  -0.039   6.435  0.2797  0.6396 -0.1482
  129OSM    O1213832   0.557   0.016   6.257  0.4997  0.3252  0.7060
  129OSM    C1S13833   0.296  -0.126   6.517  0.9120  0.5188 -0.0257
  129OSM    H1S13834   0.358  -0.199   6.573  2.8881  2.1005 -0.0429
  129OSM    H1T13835   0.222  -0.181   6.455 -0.8153 -1.8262  3.7460
  129OSM     NF13836   0.118  -0.139   6.694  0.8132  0.1619 -0.0212
  129OSM    HNF13837   0.028  -0.161   6.657  1.4216 -0.6181 -1.0912
  129OSM    C2S13838   0.200  -0.044   6.614 -0.3375 -0.0238 -0.8037
  129OSM    H2S13839   0.261   0.023   6.679  2.0958  0.1123 -3.0673
  129OSM    C3S13840   0.112   0.054   6.533  0.2582 -1.0845  0.3872
  129OSM    H3S13841   0.029  -0.002   6.485 -0.9472  0.0783  1.0460
  129OSM     O313842   0.167   0.125   6.419  0.1491 -0.2648 -0.3551
  129OSM    HO313843   0.260   0.101   6.418  0.4515  0.8493 -0.5167
  129OSM    C4S13844   0.049   0.157   6.628  0.0055 -0.8073  0.1108
  129OSM    H4S13845  -0.055   0.144   6.659  0.5362 -2.1554  1.4769
  129OSM    C5S13846   0.111   0.269   6.674  0.0998  0.2135  0.0943
  129OSM    H5S13847   0.208   0.299   6.632  0.5832  0.0694  1.0780
  129OSM    C6S13848   0.054   0.378   6.757  0.4678  0.4215 -0.1619
  129OSM    H6S13849   0.001   0.452   6.693  1.3680  1.3163  0.1012
  129OSM    H6T13850   0.125   0.450   6.802 -0.9241  2.0537 -0.4517
  129OSM    C7S13851  -0.030   0.344   6.883  0.5744 -0.3881  0.2799
  129OSM    H7S13852  -0.117   0.281   6.855 -0.7808  1.5386 -0.0915
  129OSM    H7T13853  -0.068   0.443   6.917  1.1625  0.2150 -0.7503
  129OSM    C8S13854   0.043   0.259   6.992  0.0351 -0.8388 -0.3798
  129OSM    H8S13855   0.139   0.309   7.016  0.7018 -2.5575  0.7478
  129OSM    H8T13856   0.066   0.167   6.934 -0.1948  0.4644 -2.6282
  129OSM    C9S13857  -0.045   0.235   7.121 -1.1863  0.3979  0.9075
  129OSM    H9S13858  -0.014   0.135   7.157 -0.1966  0.3136 -0.1385
  129OSM    H9T13859  -0.155   0.228   7.106 -1.0290 -0.1327 -0.0795
  129OSM   C10S13860  -0.006   0.324   7.237 -0.4872 -0.5345 -0.0047
  129OSM   H10S13861  -0.059   0.421   7.234  0.8533  0.3964  2.6645
  129OSM   H10T13862   0.105   0.331   7.238 -0.1397 -3.2570  3.5682
  129OSM   C11S13863  -0.036   0.262   7.383 -0.8146  1.0495  0.8723
  129OSM   H11S13864   0.001   0.157   7.382 -2.5415  0.4101  0.4918
  129OSM   H11T13865  -0.145   0.251   7.401 -0.4597  0.3638  2.8475
  129OSM   C12S13866   0.026   0.339   7.492 -0.2973 -0.0220  0.8307
  129OSM   H12S13867   0.017   0.447   7.466  0.0719  0.0671  1.0698
  129OSM   H12T13868   0.135   0.318   7.485 -0.6203 -1.3353 -3.3428
  129OSM   C13S13869  -0.037   0.300   7.622 -0.0590  0.3565  0.9895
  129OSM   H13S13870  -0.038   0.190   7.637  1.8051  0.2312  0.3886
  129OSM   H13T13871  -0.141   0.335   7.604  0.4219  1.0234 -0.6572
  129OSM   C14S13872   0.001   0.367   7.759 -0.8292  0.4070 -0.0264
  129OSM   H14S13873   0.006   0.474   7.730  0.4355 -0.0918 -1.7826
  129OSM   H14T13874   0.099   0.330   7.796 -0.6435  1.7311  0.9135
  129OSM   C15S13875  -0.103   0.361   7.870 -0.7312  0.2988  0.7821
  129OSM   H15S13876  -0.135   0.257   7.891 -0.2239  0.2116  1.1387
  129OSM   H15T13877  -0.188   0.413   7.821  0.7673  0.9956 -1.2534
  129OSM   C16S13878  -0.061   0.437   7.987 -0.3523  0.3264  0.1218
  129OSM   H16S13879  -0.030   0.533   7.942 -1.0259  0.0815 -0.9118
  129OSM   H16T13880   0.028   0.391   8.035 -1.1430 -0.6281  0.7232
  129OSM   C17S13881  -0.172   0.453   8.096  0.0434 -0.5044  0.0737
  129OSM   H17S13882  -0.110   0.495   8.178  1.4173 -1.0405 -0.6472
  129OSM   H17T13883  -0.233   0.363   8.121 -2.9094  0.6763 -2.2950
  129OSM   C18S13884  -0.280   0.562   8.064  1.4294 -0.1828  0.2161
  129OSM   H18S13885  -0.355   0.545   8.144  0.2081  0.0954 -0.8343
  129OSM   H18T13886  -0.324   0.538   7.965 -1.4449 -2.5945  1.9085
  129OSM   H18U13887  -0.236   0.664   8.065 -0.0498  0.6222 -3.3397
  129OSM    C1F13888   0.145  -0.197   6.816  0.2202 -0.3188  0.3581
  129OSM     OF13889   0.256  -0.178   6.868 -0.3237  0.1089  0.0530
  129OSM    C2F13890   0.034  -0.279   6.883 -0.0971  0.1534 -0.6214
  129OSM    H2F13891   0.033  -0.377   6.830  0.6662  0.1684 -0.6754
  129OSM    H2G13892  -0.062  -0.231   6.858 -0.9142 -0.9974  0.2142
  129OSM    C3F13893   0.057  -0.285   7.035  0.6262  0.2105 -0.1034
  129OSM    H3F13894   0.070  -0.191   7.092  0.7650  1.0709 -1.5054
  129OSM    H3G13895   0.148  -0.349   7.039 -0.9315 -2.1116 -0.2096
  129OSM    C4F13896  -0.046  -0.369   7.100  0.4673  0.2235 -0.1136
  129OSM    H4F13897  -0.041  -0.474   7.063  0.2143 -0.0387  0.5821
  129OSM    H4G13898  -0.149  -0.333   7.077  0.7753  0.9657 -0.3483
  129OSM    C5F13899  -0.020  -0.366   7.255 -0.6326 -0.2414  0.0356
  129OSM    H5F13900   0.088  -0.356   7.276 -0.2306 -0.4337 -1.7998
  129OSM    H5G13901  -0.062  -0.456   7.305 -0.3829 -0.3856 -0.0160
  129OSM    C6F13902  -0.098  -0.243   7.320  0.4147  0.3185 -0.2267
  129OSM    H6F13903  -0.207  -0.265   7.318  0.1226  0.6893  3.5977
  129OSM    H6G13904  -0.077  -0.153   7.260 -0.7037  1.0409  0.4379
  129OSM    C7F13905  -0.055  -0.201   7.467  0.4007  0.1847  0.6786
  129OSM    H7F13906  -0.102  -0.101   7.485 -0.5935 -0.2673  0.6610
  129OSM    H7G13907   0.055  -0.193   7.452  0.3986 -0.5870  0.2459
  129OSM    C8F13908  -0.081  -0.302   7.581 -0.6258 -0.3351 -0.4266
  129OSM    H8F13909  -0.032  -0.264   7.674  0.8193 -0.0761 -1.2680
  129OSM    H8G13910  -0.024  -0.396   7.564  0.9912  0.6562 -0.7456
  129OSM    C9F13911  -0.234  -0.332   7.592 -0.4039  0.2402 -0.0843
  129OSM    H9F13912  -0.266  -0.393   7.506  0.4816  0.5649 -0.6643
  129OSM   C10F13913  -0.305  -0.298   7.699  0.3370 -0.3141 -0.2756
  129OSM   H10F13914  -0.414  -0.317   7.702  0.2043 -0.2952 -2.6582
  129OSM   C11F13915  -0.261  -0.206   7.809 -0.2131  0.0929 -0.1271
  129OSM   H11F13916  -0.342  -0.131   7.820 -0.6270 -0.4778  0.8786
  129OSM   H11G13917  -0.175  -0.139   7.787 -0.7642  1.8958  2.7163
  129OSM   C12F13918  -0.224  -0.279   7.935  0.2216  0.0676 -0.3549
  129OSM   H12F13919  -0.148  -0.356   7.911 -0.7601 -0.8245 -0.6718
  129OSM   H12G13920  -0.311  -0.338   7.972  0.5759 -0.9713 -1.1644
  129OSM   C13F13921  -0.177  -0.184   8.048 -0.9660  0.1360  0.2860
  129OSM   H13F13922  -0.181  -0.236   8.147 -1.2452 -1.9735 -0.7816
  129OSM   H13G13923  -0.244  -0.096   8.055  2.2612  2.7880  0.2026
  129OSM   C14F13924  -0.027  -0.140   8.029 -0.1218  0.1408 -0.2289
  129OSM   H14F13925  -0.013  -0.073   7.941 -1.6097  0.3160 -0.3592
  129OSM   H14G13926   0.027  -0.237   8.033 -2.4567 -1.2314 -0.2740
  129OSM   C15F13927   0.024  -0.060   8.148  0.1371 -0.0340 -0.2830
  129OSM   H15F13928   0.123  -0.015   8.123 -0.2816  0.6996 -0.6622
  129OSM   H15G13929   0.027  -0.131   8.233 -1.1287 -0.9920 -1.0166
  129OSM   C16F13930  -0.063   0.065   8.199 -0.1247 -0.0873  0.6855
  129OSM   H16F13931  -0.168   0.028   8.207  0.2389 -1.8425 -1.5707
  129OSM   H16G13932  -0.054   0.148   8.125  3.3338 -0.6463  0.3294
  129OSM   C17F13933  -0.015   0.121   8.331 -0.0602 -0.1579  0.1047
  129OSM   H17F13934   0.022   0.032   8.387 -0.8026 -0.5350  0.0067
  129OSM   H17G13935  -0.101   0.161   8.389 -0.0778 -0.6192  0.4025
  129OSM   C18F13936   0.093   0.232   8.315 -0.4576  0.1167  0.5486
  129OSM   H18F13937   0.047   0.326   8.278  0.3462  0.1074 -0.5345
  129OSM   H18G13938   0.182   0.211   8.252 -1.0187  0.8469 -0.5201
  129OSM   H18H13939   0.123   0.261   8.418  2.1997  2.8912 -0.8629
  130OSM      N13940   2.150   4.428   5.989 -0.3505  0.4625 -0.2829
  130OSM    C1513941   2.189   4.552   5.902  0.2494 -0.1957  0.2144
  130OSM   H15A13942   2.109   4.578   5.833  0.4563 -1.1242 -0.3926
  130OSM   H15B13943   2.277   4.534   5.842  0.2246 -1.1181  0.4375
  130OSM   H15C13944   2.205   4.639   5.964  1.9904  0.4344 -1.0520
  130OSM    C1413945   2.017   4.459   6.048  0.3371 -0.5171 -0.3365
  130OSM   H14A13946   1.946   4.500   5.978  2.8565  2.7982 -1.2258
  130OSM   H14B13947   2.038   4.539   6.117  1.1621 -2.0946  1.3269
  130OSM   H14C13948   1.975   4.376   6.102  2.4441 -0.3554  1.7109
  130OSM    C1313949   2.146   4.309   5.899 -0.5179  0.0182 -0.1278
  130OSM   H13A13950   2.119   4.221   5.956  1.6753  0.1331  1.2299
  130OSM   H13B13951   2.241   4.287   5.851 -0.0586  2.1312 -0.2815
  130OSM   H13C13952   2.071   4.329   5.825 -0.1291  0.4692 -0.4025
  130OSM    C1213953   2.255   4.408   6.096 -0.2960  0.2369 -0.0030
  130OSM   H12A13954   2.352   4.422   6.049 -1.0034  1.3904 -1.1966
  130OSM   H12B13955   2.245   4.310   6.139 -1.2459  0.8217  1.1590
  130OSM    C1113956   2.262   4.506   6.216  0.0704 -1.0341 -0.4820
  130OSM   H11A13957   2.330   4.467   6.294 -0.2380  0.1633  0.4224
  130OSM   H11B13958   2.168   4.504   6.276 -0.3809  1.0290 -1.0315
  130OSM      P13959   2.423   4.701   6.142 -0.1466 -0.1068 -0.0695
  130OSM    O1313960   2.482   4.620   6.036  0.2913  0.5371  0.4487
  130OSM    O1413961   2.415   4.848   6.122 -0.2739  0.7187  0.1661
  130OSM    O1113962   2.516   4.666   6.276 -0.4009  0.3553 -0.5059
  130OSM    O1213963   2.283   4.648   6.183  0.4812 -0.0040 -0.3199
  130OSM    C1S13964   2.516   4.765   6.375 -0.3732 -0.7120 -0.2139
  130OSM    H1S13965   2.416   4.803   6.403  0.3159  0.7121  0.4201
  130OSM    H1T13966   2.581   4.845   6.335 -0.9004 -1.4329 -2.7098
  130OSM     NF13967   2.575   4.834   6.612  0.3158 -0.7520 -0.2660
  130OSM    HNF13968   2.664   4.877   6.625 -0.0296  0.4350 -1.6433
  130OSM    C2S13969   2.571   4.724   6.516 -0.4713 -0.0594  0.4493
  130OSM    H2S13970   2.499   4.652   6.560  0.5041 -1.0814  0.4123
  130OSM    C3S13971   2.719   4.661   6.500 -0.6433 -0.7921 -0.8604
  130OSM    H3S13972   2.790   4.737   6.461 -2.6378  0.9593 -1.3111
  130OSM     O313973   2.734   4.573   6.391  0.2043  0.0422 -0.4166
  130OSM    HO313974   2.661   4.597   6.334 -0.3778  0.0229  0.3140
  130OSM    C4S13975   2.766   4.599   6.628 -0.0652 -0.0058 -0.4064
  130OSM    H4S13976   2.816   4.665   6.701 -0.4209  0.7213 -0.8065
  130OSM    C5S13977   2.743   4.474   6.675  0.4897  0.2387 -0.3396
  130OSM    H5S13978   2.687   4.403   6.611  0.9354  0.0431 -0.5187
  130OSM    C6S13979   2.787   4.421   6.809 -0.7846 -0.0137  0.0087
  130OSM    H6S13980   2.896   4.431   6.827 -0.4771  0.1875 -1.7822
  130OSM    H6T13981   2.777   4.311   6.800 -0.6706 -0.1149  1.0036
  130OSM    C7S13982   2.694   4.466   6.924 -0.4477 -1.0285  0.5664
  130OSM    H7S13983   2.590   4.433   6.905 -1.4888  0.8131  2.6128
  130OSM    H7T13984   2.694   4.574   6.949 -1.6282 -0.5538 -1.2802
  130OSM    C8S13985   2.745   4.384   7.050 -0.2016 -0.3031  0.3635
  130OSM    H8S13986   2.839   4.429   7.090 -1.0475 -0.7172  3.0284
  130OSM    H8T13987   2.761   4.278   7.019 -2.1403 -0.3084 -0.7565
  130OSM    C9S13988   2.652   4.399   7.165 -0.4304  0.1203 -0.5266
  130OSM    H9S13989   2.583   4.314   7.146  0.0815 -0.3631 -0.2447
  130OSM    H9T13990   2.593   4.493   7.167 -0.3823  0.1678 -1.1056
  130OSM   C10S13991   2.722   4.366   7.302 -0.3472  0.2721 -0.2573
  130OSM   H10S13992   2.783   4.457   7.317  0.2784 -0.1030 -0.5178
  130OSM   H10T13993   2.787   4.276   7.295  1.0315  1.2119  0.0938
  130OSM   C11S13994   2.627   4.355   7.419  0.2461  0.0250 -0.2228
  130OSM   H11S13995   2.580   4.255   7.411  1.9034 -0.8716  0.6114
  130OSM   H11T13996   2.549   4.430   7.394 -0.5728 -1.6052 -2.9808
  130OSM   C12S13997   2.684   4.360   7.559  0.0387 -0.3219  0.2798
  130OSM   H12S13998   2.718   4.466   7.569 -1.8145  0.6927 -2.7984
  130OSM   H12T13999   2.776   4.299   7.570 -1.1263 -1.8141  2.3343
  130OSM   C13S14000   2.590   4.317   7.671 -0.3896 -0.1614  0.3038
  130OSM   H13S14001   2.560   4.212   7.651 -0.4442 -0.0106 -0.4642
  130OSM   H13T14002   2.499   4.380   7.672  0.7457  1.6408 -1.5588
  130OSM   C14S14003   2.658   4.351   7.809 -0.4000 -0.0464  0.2874
  130OSM   H14S14004   2.655   4.462   7.804 -1.6389 -0.0955 -0.9384
  130OSM   H14T14005   2.766   4.328   7.804 -0.1741  1.1743 -0.9543
  130OSM   C15S14006   2.585   4.290   7.928 -0.4120 -0.0818  0.7853
  130OSM   H15S14007   2.575   4.180   7.924 -0.5125 -0.0468  0.0387
  130OSM   H15T14008   2.480   4.325   7.929 -0.0141  1.3119 -1.1539
  130OSM   C16S14009   2.659   4.333   8.060  0.1021  0.8418  0.3613
  130OSM   H16S14010   2.712   4.426   8.032  0.4724  1.6314  3.3632
  130OSM   H16T14011   2.743   4.271   8.098 -0.5740  0.7116  1.7128
  130OSM   C17S14012   2.562   4.341   8.179 -0.1845 -0.6623 -0.3596
  130OSM   H17S14013   2.463   4.376   8.143  0.3272  2.5535  0.9850
  130OSM   H17T14014   2.614   4.416   8.243 -0.4479 -0.8918  0.1230
  130OSM   C18S14015   2.536   4.206   8.249 -0.3697  0.2354  0.5651
  130OSM   H18S14016   2.495   4.233   8.349 -0.7613  1.1729  0.1562
  130OSM   H18T14017   2.628   4.151   8.278 -0.5013 -0.1141  0.3270
  130OSM   H18U14018   2.472   4.133   8.195 -0.7021  0.5547  0.5229
  130OSM    C1F14019   2.471   4.905   6.663 -0.0497 -0.8890 -0.4721
  130OSM     OF14020   2.354   4.873   6.630 -0.5458  0.3353 -0.1927
  130OSM    C2F14021   2.507   5.003   6.771 -0.3408  0.6325 -0.1394
  130OSM    H2F14022   2.595   5.068   6.752 -1.7133  3.0487  1.3006
  130OSM    H2G14023   2.539   4.940   6.858 -0.2601  1.5903  0.5404
  130OSM    C3F14024   2.392   5.094   6.815 -0.8334 -0.2974 -0.2017
  130OSM    H3F14025   2.306   5.030   6.845 -0.5417  0.3127  2.1683
  130OSM    H3G14026   2.359   5.145   6.723 -0.6456 -0.5374 -0.4026
  130OSM    C4F14027   2.439   5.184   6.920  0.6165  0.0636  0.7436
  130OSM    H4F14028   2.347   5.239   6.951 -0.1325 -0.9268  0.3579
  130OSM    H4G14029   2.509   5.266   6.894  0.4744  0.1057  0.4794
  130OSM    C5F14030   2.496   5.130   7.048 -0.1601  0.2528 -0.4848
  130OSM    H5F14031   2.604   5.111   7.029  0.5487  3.3288 -0.0458
  130OSM    H5G14032   2.463   5.026   7.066  0.0263 -0.6837 -4.5594
  130OSM    C6F14033   2.460   5.215   7.166 -0.6012 -0.1080 -0.8148
  130OSM    H6F14034   2.361   5.195   7.212  0.4698 -0.0664  1.6401
  130OSM    H6G14035   2.463   5.324   7.142  1.3432  0.3035  0.9809
  130OSM    C7F14036   2.551   5.193   7.285 -0.2819  0.2224 -0.1362
  130OSM    H7F14037   2.654   5.215   7.250 -1.1772 -0.4810 -3.5209
  130OSM    H7G14038   2.543   5.086   7.314 -0.1772  0.3448  0.3694
  130OSM    C8F14039   2.526   5.295   7.396 -0.3286 -0.4524 -0.2104
  130OSM    H8F14040   2.431   5.301   7.454  1.5489 -0.1286  3.0740
  130OSM    H8G14041   2.527   5.396   7.349 -0.4389  0.9592  2.5777
  130OSM    C9F14042   2.629   5.285   7.504 -0.0319  0.8831 -0.6871
  130OSM    H9F14043   2.701   5.366   7.490 -0.5165  1.0564 -2.3668
  130OSM   C10F14044   2.629   5.201   7.609  0.0969 -0.1287 -0.4220
  130OSM   H10F14045   2.707   5.198   7.687 -0.7201 -1.1426  0.3836
  130OSM   C11F14046   2.526   5.096   7.637  0.7571  0.4742  0.0396
  130OSM   H11F14047   2.569   4.994   7.643  2.1125  1.0890  1.2678
  130OSM   H11G14048   2.447   5.088   7.559  0.0066 -1.8836  0.9606
  130OSM   C12F14049   2.464   5.109   7.784 -0.3285 -0.0868  0.2799
  130OSM   H12F14050   2.367   5.056   7.792 -0.4514 -0.0861 -0.9621
  130OSM   H12G14051   2.439   5.217   7.788  0.7420  0.1414  1.5513
  130OSM   C13F14052   2.561   5.085   7.912 -0.7673 -0.6504 -0.0205
  130OSM   H13F14053   2.646   5.155   7.897 -0.3380 -0.5330  2.4120
  130OSM   H13G14054   2.596   4.980   7.903 -2.0946 -1.1641  0.5301
  130OSM   C14F14055   2.497   5.103   8.046 -0.4358 -0.0959 -0.5391
  130OSM   H14F14056   2.541   5.038   8.125 -3.2810 -3.2248 -1.2717
  130OSM   H14G14057   2.389   5.078   8.036 -0.9745  1.5240  0.7602
  130OSM   C15F14058   2.480   5.251   8.082  0.5959  0.8235  0.0052
  130OSM   H15F14059   2.428   5.303   7.999  0.3675 -0.2033 -0.5093
  130OSM   H15G14060   2.582   5.295   8.081  0.7912  0.4025  0.7884
  130OSM   C16F14061   2.420   5.274   8.225 -0.0753 -0.5530  0.4051
  130OSM   H16F14062   2.313   5.245   8.234  0.1533 -1.2545  0.9131
  130OSM   H16G14063   2.419   5.385   8.237 -0.4630 -0.6317  1.1491
  130OSM   C17F14064   2.507   5.227   8.342  0.1347  0.2388  0.5347
  130OSM   H17F14065   2.497   5.117   8.328 -0.4413  0.4375 -0.7154
  130OSM   H17G14066   2.450   5.242   8.436 -1.3341 -0.0293 -0.2871
  130OSM   C18F14067   2.653   5.269   8.350  0.1484  0.1686  0.0495
  130OSM   H18F14068   2.701   5.262   8.250 -2.3857 -0.9651 -1.1871
  130OSM   H18G14069   2.705   5.205   8.424  1.6498 -0.4829 -1.4987
  130OSM   H18H14070   2.654   5.373   8.387  1.9791 -0.8572  3.2433
  131OSM      N14071   6.591   4.474   5.740  0.3150 -0.3428 -0.4459
  131OSM    C1514072   6.552   4.612   5.694  0.3692  0.7664  0.1131
  131OSM   H15A14073   6.624   4.686   5.726 -0.1863  0.2784  2.6838
  131OSM   H15B14074   6.453   4.643   5.722 -0.3155 -0.8816 -0.3795
  131OSM   H15C14075   6.543   4.607   5.586 -0.7462  1.0918  0.1781
  131OSM    C1414076   6.574   4.475   5.893  0.1647  0.4320 -0.0085
  131OSM   H14A14077   6.469   4.493   5.911  0.0783  0.1754 -0.2463
  131OSM   H14B14078   6.646   4.545   5.933 -0.7105  0.3251  1.8916
  131OSM   H14C14079   6.599   4.379   5.936 -0.4433 -0.1437 -0.9127
  131OSM    C1314080   6.499   4.369   5.694  0.1224 -0.0860 -0.0320
  131OSM   H13A14081   6.540   4.269   5.695  1.9544  0.6168 -0.2116
  131OSM   H13B14082   6.466   4.385   5.592 -0.5904  0.9838  0.3500
  131OSM   H13C14083   6.416   4.373   5.763  0.1569  0.5126 -0.0195
  131OSM    C1214084   6.739   4.446   5.705  0.3181  0.5518 -0.1307
  131OSM   H12A14085   6.738   4.418   5.601 -2.3270 -0.0276 -0.0071
  131OSM   H12B14086   6.769   4.361   5.764 -1.3697  0.8502  1.2354
  131OSM    C1114087   6.848   4.553   5.747 -0.7680  0.6241 -0.5976
  131OSM   H11A14088   6.818   4.656   5.721  0.7976  0.6962 -2.3542
  131OSM   H11B14089   6.936   4.532   5.682 -2.9161 -2.4259 -2.7588
  131OSM      P14090   6.954   4.410   5.935  0.2011  0.0883 -0.0282
  131OSM    O1314091   6.874   4.287   5.908  0.8086 -0.1899  0.0580
  131OSM    O1414092   7.093   4.409   5.891 -0.1463  0.8952  0.4648
  131OSM    O1114093   6.954   4.428   6.091  0.2097 -0.9033 -0.4373
  131OSM    O1214094   6.884   4.539   5.888 -0.1654 -0.0316  0.3689
  131OSM    C1S14095   6.832   4.434   6.167  0.4870 -0.2982  0.0497
  131OSM    H1S14096   6.793   4.330   6.166  0.1420 -0.2055  1.4865
  131OSM    H1T14097   6.763   4.505   6.117 -1.0343 -1.0564  0.9906
  131OSM     NF14098   6.749   4.476   6.396  1.0215 -0.2961  0.2340
  131OSM    HNF14099   6.721   4.560   6.442  3.2847  0.3902  0.4640
  131OSM    C2S14100   6.868   4.479   6.310  0.1137 -0.0879  0.5611
  131OSM    H2S14101   6.942   4.401   6.338 -0.1380 -0.3343  0.5540
  131OSM    C3S14102   6.944   4.608   6.306 -0.6517  0.3272 -0.0665
  131OSM    H3S14103   6.880   4.689   6.265  1.4759  1.4049 -1.3873
  131OSM     O314104   7.057   4.619   6.223  0.0672 -0.6446 -0.6296
  131OSM    HO314105   7.054   4.539   6.171 -1.2144  0.5662 -2.5151
  131OSM    C4S14106   6.973   4.644   6.452  0.2739 -0.6854  0.2365
  131OSM    H4S14107   6.886   4.701   6.489 -0.7384  0.5385 -3.6137
  131OSM    C5S14108   7.085   4.635   6.525  0.0242 -0.5317  0.0013
  131OSM    H5S14109   7.182   4.603   6.483 -0.4191 -0.9243 -0.7366
  131OSM    C6S14110   7.088   4.689   6.664  0.1662  0.4327  0.0337
  131OSM    H6S14111   7.172   4.761   6.677 -0.8634  1.7124 -0.1755
  131OSM    H6T14112   7.109   4.614   6.743  1.6723  0.6429 -0.1282
  131OSM    C7S14113   6.956   4.762   6.720 -0.0222 -0.4204 -0.3837
  131OSM    H7S14114   6.869   4.697   6.697 -0.3331  0.5904 -2.2034
  131OSM    H7T14115   6.943   4.850   6.654  1.2170 -0.7575 -1.1198
  131OSM    C8S14116   6.972   4.814   6.863 -0.1306  0.2599  0.1907
  131OSM    H8S14117   7.066   4.862   6.897 -0.6810  1.3526  0.2314
  131OSM    H8T14118   6.950   4.732   6.935 -2.2754  0.2290 -0.4350
  131OSM    C9S14119   6.868   4.922   6.895 -0.0160  1.5612  0.3541
  131OSM    H9S14120   6.765   4.889   6.872 -0.1138  0.3546  2.2749
  131OSM    H9T14121   6.897   5.010   6.833  3.8056  0.6213  0.5648
  131OSM   C10S14122   6.875   4.961   7.047 -0.0199 -1.2041  0.1851
  131OSM   H10S14123   6.806   5.047   7.061 -0.7096 -2.0980  3.0682
  131OSM   H10T14124   6.974   5.011   7.052  1.3683 -3.5436 -1.6598
  131OSM   C11S14125   6.845   4.851   7.140  0.3941 -0.4060 -0.4131
  131OSM   H11S14126   6.933   4.784   7.144  0.0102 -1.0005 -1.4462
  131OSM   H11T14127   6.762   4.790   7.097  2.0991 -1.4493 -2.4106
  131OSM   C12S14128   6.815   4.892   7.288 -0.4943 -0.3015 -0.2867
  131OSM   H12S14129   6.809   4.800   7.352  3.8455 -0.7307 -0.1578
  131OSM   H12T14130   6.716   4.939   7.302 -0.6551 -0.8340  0.4533
  131OSM   C13S14131   6.915   4.998   7.351  0.1631 -0.2027 -0.3169
  131OSM   H13S14132   6.910   5.096   7.300 -1.0904 -0.2935 -0.3779
  131OSM   H13T14133   7.020   4.968   7.330  0.8297  0.4604  1.7655
  131OSM   C14S14134   6.929   4.993   7.505 -0.3043  0.4092 -0.5010
  131OSM   H14S14135   7.025   5.043   7.530  0.2060  0.3513 -2.1814
  131OSM   H14T14136   6.931   4.890   7.546  0.5195  1.1826  1.5042
  131OSM   C15S14137   6.806   5.047   7.570 -0.2243  0.7795 -0.2737
  131OSM   H15S14138   6.718   4.982   7.553  1.6713 -1.8124 -0.8880
  131OSM   H15T14139   6.786   5.144   7.520 -0.5291  1.4956  1.1798
  131OSM   C16S14140   6.818   5.075   7.721  0.0821  0.4145 -0.4945
  131OSM   H16S14141   6.866   4.995   7.781  0.1595  0.1035 -0.9629
  131OSM   H16T14142   6.716   5.094   7.761  0.1294 -1.2384  0.5268
  131OSM   C17S14143   6.900   5.206   7.743 -0.4712 -0.2176 -0.0425
  131OSM   H17S14144   6.871   5.295   7.683  1.5360  1.6663  1.5773
  131OSM   H17T14145   6.994   5.193   7.686 -0.0709  0.7485  0.3724
  131OSM   C18S14146   6.927   5.227   7.895  0.3845 -0.4498  0.2861
  131OSM   H18S14147   6.950   5.129   7.943  1.7322  0.7555  2.2364
  131OSM   H18T14148   6.837   5.266   7.946  0.7388  0.7498  0.0274
  131OSM   H18U14149   7.016   5.289   7.919 -0.6276  0.4369  1.9822
  131OSM    C1F14150   6.706   4.355   6.440  0.3055 -0.2349  0.3903
  131OSM     OF14151   6.782   4.257   6.439 -0.6158 -0.2387 -0.1192
  131OSM    C2F14152   6.565   4.348   6.491 -0.2467  0.5665  0.5591
  131OSM    H2F14153   6.508   4.276   6.428 -1.3278 -0.3872  2.5064
  131OSM    H2G14154   6.520   4.448   6.485 -3.0013 -0.5061  1.7548
  131OSM    C3F14155   6.558   4.302   6.639 -0.0297 -0.5021 -0.0299
  131OSM    H3F14156   6.617   4.210   6.659  1.8796  0.8130  0.5961
  131OSM    H3G14157   6.451   4.284   6.662 -0.1400  0.1723  0.0078
  131OSM    C4F14158   6.623   4.409   6.735  0.3440  0.6623  0.3076
  131OSM    H4F14159   6.585   4.509   6.703 -0.9605 -0.0269 -0.3906
  131OSM    H4G14160   6.732   4.395   6.717 -0.2860 -1.1529 -2.7831
  131OSM    C5F14161   6.592   4.356   6.880 -0.4556 -0.4204  0.2085
  131OSM    H5F14162   6.644   4.259   6.894 -0.0733 -0.5800 -1.9718
  131OSM    H5G14163   6.484   4.337   6.898 -0.1064 -2.1236  0.6916
  131OSM    C6F14164   6.645   4.460   6.977 -0.5142 -0.1747 -0.4793
  131OSM    H6F14165   6.594   4.559   6.972 -1.9518 -0.8508  0.0005
  131OSM    H6G14166   6.755   4.469   6.965 -0.4544 -1.6372 -1.2969
  131OSM    C7F14167   6.634   4.415   7.125 -0.9123  0.1521 -0.5944
  131OSM    H7F14168   6.683   4.318   7.151  0.1623  0.6074 -0.8569
  131OSM    H7G14169   6.526   4.402   7.144 -0.6632  0.0200  0.7928
  131OSM    C8F14170   6.654   4.525   7.236 -0.1020 -0.5309  0.4193
  131OSM    H8F14171   6.587   4.495   7.319  1.1402 -0.1613  1.6086
  131OSM    H8G14172   6.613   4.617   7.190 -0.2455 -1.3447 -1.1738
  131OSM    C9F14173   6.800   4.527   7.269  0.2129  0.0807 -0.2042
  131OSM    H9F14174   6.867   4.562   7.190 -1.5652  4.4963 -0.0115
  131OSM   C10F14175   6.853   4.477   7.387 -0.1102  0.0319 -0.6801
  131OSM   H10F14176   6.960   4.489   7.410  0.1468 -0.0712 -1.7775
  131OSM   C11F14177   6.776   4.446   7.514  0.0664  0.2432 -0.5642
  131OSM   H11F14178   6.712   4.357   7.496 -1.0999  1.1347 -0.9615
  131OSM   H11G14179   6.697   4.522   7.530 -0.9555 -0.9322  0.1998
  131OSM   C12F14180   6.862   4.441   7.643  0.4154 -0.5112  0.1607
  131OSM   H12F14181   6.937   4.523   7.650  0.8071 -0.9891  2.1935
  131OSM   H12G14182   6.923   4.349   7.654  0.5187 -0.2382  2.2195
  131OSM   C13F14183   6.793   4.458   7.778 -0.1662  0.3009  0.0961
  131OSM   H13F14184   6.721   4.375   7.791 -0.9903  0.8669 -0.6687
  131OSM   H13G14185   6.742   4.557   7.782 -0.8723  0.0171 -1.2221
  131OSM   C14F14186   6.903   4.462   7.886 -0.1472  0.4304 -0.0104
  131OSM   H14F14187   6.962   4.553   7.862 -2.0567  1.2240 -2.0733
  131OSM   H14G14188   6.944   4.360   7.878 -0.5236  0.3268 -0.7153
  131OSM   C15F14189   6.842   4.471   8.023 -0.1663 -0.2690  0.4327
  131OSM   H15F14190   6.754   4.402   8.021  0.7954 -1.5189 -0.1168
  131OSM   H15G14191   6.790   4.568   8.036 -1.4752 -0.9649  0.6244
  131OSM   C16F14192   6.933   4.437   8.134 -0.0373 -0.7045 -0.2536
  131OSM   H16F14193   7.007   4.519   8.147 -1.6899  0.6972  0.8235
  131OSM   H16G14194   6.980   4.341   8.105 -1.7531 -1.7425  0.2274
  131OSM   C17F14195   6.868   4.410   8.274  0.3553  0.4766  0.2649
  131OSM   H17F14196   6.810   4.315   8.280 -1.8033  1.5880 -1.7264
  131OSM   H17G14197   6.786   4.484   8.279  0.1970  0.4856 -1.6919
  131OSM   C18F14198   6.965   4.432   8.384  0.3099  0.3415 -0.6498
  131OSM   H18F14199   6.911   4.414   8.479  2.0925 -1.7207  0.0470
  131OSM   H18G14200   7.001   4.537   8.394  2.3384 -0.3643 -0.1038
  131OSM   H18H14201   7.046   4.356   8.389  0.5132  0.6194  1.0085
  132OSM      N14202   2.834   2.070   6.140  0.8477  0.5773 -0.2121
  132OSM    C1514203   2.975   2.112   6.099  0.1114  0.2128 -0.3208
  132OSM   H15A14204   2.990   2.119   5.992  1.7562 -1.3952 -0.2466
  132OSM   H15B14205   3.048   2.037   6.122 -1.6030 -2.0002 -1.6870
  132OSM   H15C14206   2.998   2.205   6.150 -2.1691 -0.2006  1.6679
  132OSM    C1414207   2.743   2.174   6.105 -0.0134 -0.1517  0.6812
  132OSM   H14A14208   2.748   2.175   5.997 -1.4102 -2.4754  0.5295
  132OSM   H14B14209   2.769   2.269   6.150  0.7172  0.5899 -1.2369
  132OSM   H14C14210   2.649   2.132   6.140 -0.4827  1.7185  1.8127
  132OSM    C1314211   2.801   1.950   6.062  0.0423  0.8859 -0.7949
  132OSM   H13A14212   2.698   1.920   6.077  0.6462 -0.0834  1.8411
  132OSM   H13B14213   2.863   1.866   6.090  0.2237  1.4927  0.6769
  132OSM   H13C14214   2.814   1.965   5.956  2.8412  1.1005 -0.4855
  132OSM    C1214215   2.835   2.040   6.293  0.3749 -0.6243  0.2838
  132OSM   H12A14216   2.844   2.137   6.339 -2.1374 -0.2570  0.1333
  132OSM   H12B14217   2.918   1.975   6.314  1.4782  0.4693 -0.5524
  132OSM    C1114218   2.701   1.991   6.364  0.1294  0.3225  0.0689
  132OSM   H11A14219   2.627   2.074   6.360  0.5511  0.7069  0.0780
  132OSM   H11B14220   2.720   1.988   6.473 -1.7587 -0.6659  0.4123
  132OSM      P14221   2.513   1.825   6.295 -0.0513  0.4237  0.0582
  132OSM    O1314222   2.452   1.905   6.184 -0.4818 -0.2569 -0.4197
  132OSM    O1414223   2.491   1.678   6.300 -0.2287 -0.0232  0.0189
  132OSM    O1114224   2.464   1.879   6.432 -0.0121  0.2638  0.8075
  132OSM    O1214225   2.663   1.863   6.316 -0.3913 -0.6054  0.3815
  132OSM    C1S14226   2.462   1.802   6.552  0.0497 -0.4995 -0.9131
  132OSM    H1S14227   2.514   1.704   6.539 -1.7749 -1.8964  1.5060
  132OSM    H1T14228   2.353   1.788   6.570 -0.6911  4.0758 -0.6550
  132OSM     NF14229   2.495   1.795   6.803 -0.4068 -0.3740  0.0617
  132OSM    HNF14230   2.435   1.820   6.879 -1.6941  0.1594 -1.0878
  132OSM    C2S14231   2.507   1.884   6.677 -1.0300  0.1152  0.5559
  132OSM    H2S14232   2.613   1.909   6.654 -1.0079  0.5289  1.1062
  132OSM    C3S14233   2.432   2.017   6.693  0.3167 -0.3273 -0.6915
  132OSM    H3S14234   2.323   1.994   6.703 -0.1389  1.7130 -0.5940
  132OSM     O314235   2.460   2.101   6.581  0.2896  0.2453 -0.3018
  132OSM    HO314236   2.480   2.036   6.513  0.9163 -0.0215  0.1294
  132OSM    C4S14237   2.472   2.097   6.818 -0.5810 -0.1129 -0.5846
  132OSM    H4S14238   2.582   2.099   6.827 -0.5157 -0.5388 -1.2363
  132OSM    C5S14239   2.387   2.147   6.913 -0.6405  0.9164  0.2217
  132OSM    H5S14240   2.278   2.134   6.903 -0.7656 -0.0189  2.2878
  132OSM    C6S14241   2.426   2.222   7.037  0.3310 -0.4910 -0.3203
  132OSM    H6S14242   2.370   2.316   7.056  1.8893  0.3440  0.3584
  132OSM    H6T14243   2.530   2.262   7.023  1.2376 -2.5958  0.0805
  132OSM    C7S14244   2.427   2.133   7.160 -0.3228 -0.3436 -0.4516
  132OSM    H7S14245   2.507   2.059   7.138  0.9175  1.1903 -1.3429
  132OSM    H7T14246   2.328   2.084   7.169 -0.2700 -1.2332 -3.4693
  132OSM    C8S14247   2.472   2.197   7.296  0.0430  0.2637 -0.6866
  132OSM    H8S14248   2.414   2.288   7.323 -0.2585  0.0839 -0.7186
  132OSM    H8T14249   2.578   2.225   7.276 -0.4612  1.0541 -2.4453
  132OSM    C9S14250   2.437   2.091   7.409  0.4710  0.6560  0.8619
  132OSM    H9S14251   2.486   1.995   7.383  1.1386  0.7520  1.7383
  132OSM    H9T14252   2.328   2.072   7.401  0.5072  0.8193 -0.1128
  132OSM   C10S14253   2.489   2.131   7.554 -0.2506  0.2042  0.2128
  132OSM   H10S14254   2.465   2.238   7.565 -0.1086  0.1871  0.7042
  132OSM   H10T14255   2.600   2.132   7.554 -0.1406 -2.2320 -1.4276
  132OSM   C11S14256   2.421   2.058   7.669  0.7728  0.3254 -0.2265
  132OSM   H11S14257   2.423   1.949   7.651  1.2770 -0.0439  1.7811
  132OSM   H11T14258   2.314   2.085   7.681  1.1487  0.8665  2.5278
  132OSM   C12S14259   2.494   2.073   7.802 -0.1323  0.6682 -0.3988
  132OSM   H12S14260   2.482   2.181   7.827  1.1411  0.6057  0.5846
  132OSM   H12T14261   2.602   2.053   7.788 -0.6091 -2.0258 -0.6742
  132OSM   C13S14262   2.446   1.985   7.921  0.5076  0.2392  0.7443
  132OSM   H13S14263   2.458   1.876   7.907 -2.2169  0.0796 -1.2994
  132OSM   H13T14264   2.337   2.000   7.941 -0.6100 -3.3380 -1.5838
  132OSM   C14S14265   2.519   2.026   8.041  0.5135 -0.1867 -0.0972
  132OSM   H14S14266   2.496   2.133   8.062 -0.8276 -0.0588 -2.0129
  132OSM   H14T14267   2.627   2.023   8.017  0.9098 -1.5434  1.6447
  132OSM   C15S14268   2.502   1.939   8.167 -0.1950 -0.5702  0.0207
  132OSM   H15S14269   2.572   1.854   8.151 -0.9771 -0.7112 -3.1817
  132OSM   H15T14270   2.398   1.903   8.178  0.5497 -2.4435  1.5015
  132OSM   C16S14271   2.539   2.020   8.294  0.8690  0.3764  0.9232
  132OSM   H16S14272   2.523   1.945   8.374  1.7536 -1.0803 -0.2243
  132OSM   H16T14273   2.463   2.101   8.302 -1.8904 -2.2619  4.9251
  132OSM   C17S14274   2.688   2.056   8.308 -0.3976 -0.2281 -0.2957
  132OSM   H17S14275   2.721   2.114   8.220  0.1902  1.6528  1.1041
  132OSM   H17T14276   2.756   1.969   8.321  1.5679  1.5586  2.2183
  132OSM   C18S14277   2.706   2.143   8.426 -0.2889  0.3630  0.1257
  132OSM   H18S14278   2.633   2.227   8.423  0.4685  1.1295  1.7395
  132OSM   H18T14279   2.808   2.187   8.429  0.6809 -1.7870  0.0347
  132OSM   H18U14280   2.681   2.086   8.518  1.1649  2.8253  2.1967
  132OSM    C1F14281   2.578   1.689   6.816 -0.1194 -0.4835  0.6567
  132OSM     OF14282   2.669   1.669   6.743 -0.1883 -0.5097 -0.1311
  132OSM    C2F14283   2.557   1.608   6.933  0.2043 -0.2811  0.1901
  132OSM    H2F14284   2.474   1.538   6.910  1.1999 -2.0010  1.6043
  132OSM    H2G14285   2.533   1.678   7.017 -0.1592 -1.1318  0.8117
  132OSM    C3F14286   2.678   1.528   6.970 -1.1773  0.2532 -0.6491
  132OSM    H3F14287   2.765   1.591   6.998 -0.1908 -0.8013 -1.2515
  132OSM    H3G14288   2.702   1.467   6.880  0.5977 -2.0214  1.2317
  132OSM    C4F14289   2.660   1.443   7.086 -0.2098  0.0079 -0.0941
  132OSM    H4F14290   2.742   1.370   7.102 -0.7963 -0.9832 -1.5071
  132OSM    H4G14291   2.574   1.377   7.064  0.8793 -0.3222 -4.1209
  132OSM    C5F14292   2.627   1.514   7.223  0.1565 -0.0859  0.2298
  132OSM    H5F14293   2.564   1.605   7.218 -1.5653 -1.2803 -0.4898
  132OSM    H5G14294   2.723   1.551   7.267  0.5240 -3.0494  2.2338
  132OSM    C6F14295   2.573   1.414   7.333  0.6409 -0.1902 -0.1830
  132OSM    H6F14296   2.579   1.311   7.293  0.8062  0.0731 -0.8383
  132OSM    H6G14297   2.464   1.432   7.347  0.6616 -0.6262  0.5837
  132OSM    C7F14298   2.641   1.431   7.470 -0.7118  0.2956  0.7603
  132OSM    H7F14299   2.586   1.516   7.517 -1.0462  1.2814 -1.2830
  132OSM    H7G14300   2.748   1.461   7.462 -0.7494  0.3462  0.4346
  132OSM    C8F14301   2.622   1.306   7.554 -0.2761  0.5152  0.3238
  132OSM    H8F14302   2.693   1.228   7.524 -1.2609  0.5745 -2.4053
  132OSM    H8G14303   2.522   1.261   7.534 -0.5489  0.2833  2.0653
  132OSM    C9F14304   2.629   1.328   7.700 -0.6382  0.0103 -0.0550
  132OSM    H9F14305   2.701   1.407   7.728  1.1289 -0.1980 -3.5381
  132OSM   C10F14306   2.547   1.270   7.794  0.0889  0.0188  0.0756
  132OSM   H10F14307   2.555   1.301   7.899 -0.6354 -0.3863  0.2627
  132OSM   C11F14308   2.439   1.165   7.770 -0.1764  0.2570  0.4912
  132OSM   H11F14309   2.475   1.085   7.702 -1.3520  0.3127 -0.2231
  132OSM   H11G14310   2.361   1.221   7.714 -0.1187 -0.7848 -0.6695
  132OSM   C12F14311   2.368   1.113   7.897  0.0096  0.1773  0.0770
  132OSM   H12F14312   2.301   1.032   7.859  0.2109 -1.2581  2.4991
  132OSM   H12G14313   2.305   1.191   7.946 -0.6980  0.2788 -0.9717
  132OSM   C13F14314   2.471   1.050   8.001  0.8970  0.8420 -0.0120
  132OSM   H13F14315   2.411   1.008   8.086 -2.0599  1.2456 -1.7420
  132OSM   H13G14316   2.540   1.133   8.026  0.0041  1.2626  1.1720
  132OSM   C14F14317   2.557   0.931   7.943  0.0118 -0.2467  0.6263
  132OSM   H14F14318   2.628   0.952   7.861  0.7549  0.6281  1.4682
  132OSM   H14G14319   2.476   0.865   7.906  1.1144 -1.0846 -0.3556
  132OSM   C15F14320   2.630   0.841   8.045  0.9208 -1.1263 -0.1616
  132OSM   H15F14321   2.669   0.750   7.993 -0.1596 -0.2688 -2.6038
  132OSM   H15G14322   2.557   0.794   8.114 -0.4277 -2.1581 -2.1978
  132OSM   C16F14323   2.742   0.912   8.132 -0.5337  0.0570 -0.0692
  132OSM   H16F14324   2.703   0.990   8.202 -2.0160 -1.4311  0.8387
  132OSM   H16G14325   2.813   0.955   8.059 -0.5722 -0.4046 -0.3793
  132OSM   C17F14326   2.823   0.808   8.214 -0.0087 -0.0827  1.0643
  132OSM   H17F14327   2.889   0.871   8.278 -0.2079  0.2166  0.9757
  132OSM   H17G14328   2.891   0.750   8.147 -1.7012 -0.9397  0.0203
  132OSM   C18F14329   2.740   0.726   8.320 -0.4779  0.2231 -0.1319
  132OSM   H18F14330   2.680   0.792   8.386 -3.1657 -0.2366 -1.9471
  132OSM   H18G14331   2.805   0.670   8.390  1.1156  1.0799 -0.8759
  132OSM   H18H14332   2.676   0.652   8.267 -1.2340  0.7289  0.0625
  133OSM      N14333   3.559   1.422   6.239  0.0359  0.2610 -0.6072
  133OSM    C1514334   3.475   1.328   6.332 -0.5882  0.1722  0.0177
  133OSM   H15A14335   3.438   1.250   6.267  0.6008  0.5385 -1.1510
  133OSM   H15B14336   3.397   1.383   6.382 -1.3302 -1.2452  0.4749
  133OSM   H15C14337   3.545   1.285   6.403 -1.1697  0.8275  1.0112
  133OSM    C1414338   3.665   1.340   6.176  0.0727 -0.2491  0.3622
  133OSM   H14A14339   3.724   1.410   6.118 -1.2531  3.5127  3.1345
  133OSM   H14B14340   3.616   1.272   6.108  0.9235  0.6291 -1.1852
  133OSM   H14C14341   3.730   1.294   6.249  1.7465  3.1293  1.2321
  133OSM    C1314342   3.482   1.472   6.129 -0.3742  0.0706  0.5500
  133OSM   H13A14343   3.540   1.485   6.039 -3.7567 -1.0815 -2.0170
  133OSM   H13B14344   3.447   1.572   6.152 -3.2881 -0.1881 -2.1270
  133OSM   H13C14345   3.397   1.414   6.098  1.2208 -0.6535 -2.9420
  133OSM    C1214346   3.624   1.528   6.328  0.0101  0.0296 -0.0412
  133OSM   H12A14347   3.683   1.592   6.264  0.6755  0.3195  0.8330
  133OSM   H12B14348   3.703   1.492   6.393 -0.7770  0.1252  1.0047
  133OSM    C1114349   3.529   1.611   6.422  0.3127  0.4933  0.4800
  133OSM   H11A14350   3.577   1.675   6.499  1.1488 -0.6471  0.9274
  133OSM   H11B14351   3.463   1.535   6.470  1.2504 -1.4134 -1.0934
  133OSM      P14352   3.496   1.829   6.281  0.5144 -0.1368 -0.2663
  133OSM    O1314353   3.604   1.795   6.182  0.0523  0.2856 -0.7290
  133OSM    O1414354   3.383   1.908   6.228  0.0743  0.8664 -0.2443
  133OSM    O1114355   3.552   1.915   6.407 -0.0860 -0.3874 -0.1250
  133OSM    O1214356   3.443   1.692   6.343 -0.0786  0.5733 -0.4411
  133OSM    C1S14357   3.461   1.954   6.513  0.2669  0.0503  0.5242
  133OSM    H1S14358   3.371   1.888   6.509 -1.3125  2.1374 -1.3505
  133OSM    H1T14359   3.416   2.055   6.498 -1.5516 -0.8554 -0.5733
  133OSM     NF14360   3.438   1.971   6.755 -0.3634 -0.4543 -0.1119
  133OSM    HNF14361   3.439   2.066   6.785 -1.5567 -0.1077 -1.0682
  133OSM    C2S14362   3.532   1.944   6.651  0.2603  0.2327  0.0563
  133OSM    H2S14363   3.571   1.840   6.654 -0.3907 -0.0431 -0.7860
  133OSM    C3S14364   3.661   2.025   6.657 -0.5355  0.8102  0.7631
  133OSM    H3S14365   3.634   2.129   6.627  0.5693  0.7058 -0.6768
  133OSM     O314366   3.753   1.980   6.555  0.3029  0.5211  0.1192
  133OSM    HO314367   3.704   1.914   6.505 -0.3616  1.9637 -1.2211
  133OSM    C4S14368   3.738   2.019   6.789  0.2047 -0.0704  0.2187
  133OSM    H4S14369   3.780   1.918   6.803 -0.2156 -0.3004 -0.1548
  133OSM    C5S14370   3.752   2.115   6.883  0.1816  0.4923 -0.3776
  133OSM    H5S14371   3.702   2.213   6.875 -1.8823 -0.2874  1.8410
  133OSM    C6S14372   3.835   2.103   7.007  0.3119  0.2258 -0.2508
  133OSM    H6S14373   3.780   2.155   7.089 -3.5046 -3.4732 -0.0883
  133OSM    H6T14374   3.932   2.154   6.993 -0.2856  1.5752  0.3254
  133OSM    C7S14375   3.848   1.963   7.067 -0.4652 -0.1069  0.2565
  133OSM    H7S14376   3.896   1.909   6.982 -0.0664  1.7874 -0.7643
  133OSM    H7T14377   3.748   1.927   7.099 -0.0729 -0.5760  0.9852
  133OSM    C8S14378   3.947   1.962   7.182  0.6837  0.0718 -0.3435
  133OSM    H8S14379   4.031   2.033   7.164 -1.3852  2.3495 -1.6212
  133OSM    H8T14380   3.987   1.858   7.187 -0.2138 -0.3145 -0.8832
  133OSM    C9S14381   3.886   2.005   7.317 -0.4225 -0.6399  0.5010
  133OSM    H9S14382   3.782   1.968   7.303 -1.6088  2.2279  1.0016
  133OSM    H9T14383   3.889   2.116   7.316 -1.2944 -0.5901 -1.5066
  133OSM   C10S14384   3.952   1.952   7.448  0.0891  0.0372 -0.3883
  133OSM   H10S14385   4.059   1.983   7.449  0.9893 -2.8203 -0.2499
  133OSM   H10T14386   3.957   1.841   7.444  1.0823  0.0196  0.8128
  133OSM   C11S14387   3.885   1.990   7.577  0.4673  0.4654  0.1627
  133OSM   H11S14388   3.780   1.955   7.582  0.0746  1.7078  0.9113
  133OSM   H11T14389   3.878   2.101   7.582  0.8387  0.4159  2.6325
  133OSM   C12S14390   3.979   1.946   7.690  0.2890  0.1306 -0.4793
  133OSM   H12S14391   4.086   1.951   7.659  0.4273 -1.8861 -0.5079
  133OSM   H12T14392   3.972   1.839   7.719  1.3334 -0.2857 -1.6627
  133OSM   C13S14393   3.958   2.024   7.823 -0.0905 -0.1170  0.3667
  133OSM   H13S14394   3.995   2.128   7.811 -1.6992  0.4393 -0.1140
  133OSM   H13T14395   4.017   1.980   7.907 -0.1960 -1.1661 -0.0915
  133OSM   C14S14396   3.805   2.024   7.860 -0.9002  0.5326  0.6739
  133OSM   H14S14397   3.765   1.921   7.845 -0.7598  0.4224  1.0223
  133OSM   H14T14398   3.757   2.098   7.794 -2.0324  0.0931  0.9855
  133OSM   C15S14399   3.776   2.083   8.003 -0.2932 -0.0758 -0.2226
  133OSM   H15S14400   3.670   2.117   7.998 -0.7983 -1.7553 -1.9921
  133OSM   H15T14401   3.844   2.169   8.021 -0.1597 -0.8430  4.1221
  133OSM   C16S14402   3.792   1.978   8.109 -0.0772 -0.4341 -0.2181
  133OSM   H16S14403   3.902   1.965   8.120 -0.2212  0.0789  3.2271
  133OSM   H16T14404   3.747   1.880   8.084  0.4315 -0.7828  0.2103
  133OSM   C17S14405   3.732   2.011   8.252  0.2314  0.2044  0.5148
  133OSM   H17S14406   3.628   2.049   8.244  0.7519  1.4314 -0.8384
  133OSM   H17T14407   3.784   2.104   8.282 -0.4428  0.9039 -0.3986
  133OSM   C18S14408   3.751   1.893   8.352 -0.2378  0.2850  0.2022
  133OSM   H18S14409   3.668   1.819   8.341 -1.0866  1.0974  1.0121
  133OSM   H18T14410   3.762   1.929   8.456 -0.1479  1.0894 -0.0815
  133OSM   H18U14411   3.846   1.844   8.323 -1.0663 -0.3977 -1.5170
  133OSM    C1F14412   3.343   1.887   6.790 -0.1848  0.3065 -1.0389
  133OSM     OF14413   3.323   1.787   6.722  0.2292  0.6740 -0.9194
  133OSM    C2F14414   3.253   1.917   6.911 -0.0209  0.3314  0.2843
  133OSM    H2F14415   3.158   1.958   6.872 -1.4127 -2.5348  0.4477
  133OSM    H2G14416   3.306   1.995   6.971 -0.2140  2.7764 -2.4801
  133OSM    C3F14417   3.226   1.794   6.996 -0.1795 -0.4947  0.2826
  133OSM    H3F14418   3.322   1.753   7.033  0.0059 -0.6881 -0.3978
  133OSM    H3G14419   3.179   1.714   6.935 -0.2566 -0.3984  0.2140
  133OSM    C4F14420   3.148   1.826   7.127 -0.3431  0.0778  0.0394
  133OSM    H4F14421   3.092   1.922   7.125  0.4905  0.5615 -1.2541
  133OSM    H4G14422   3.217   1.840   7.214 -0.4939 -0.5691  0.2703
  133OSM    C5F14423   3.060   1.703   7.164 -0.1704  0.0650  0.2332
  133OSM    H5F14424   3.127   1.614   7.165  0.2116  0.3380  1.7283
  133OSM    H5G14425   2.975   1.682   7.097  0.8956 -0.5799 -0.9495
  133OSM    C6F14426   3.011   1.712   7.307 -0.1443 -0.4436  0.0651
  133OSM    H6F14427   3.095   1.753   7.368 -0.8920 -0.7265  1.2986
  133OSM    H6G14428   3.000   1.607   7.340 -2.2251 -1.8285 -4.3482
  133OSM    C7F14429   2.898   1.809   7.321  0.1046 -0.0799  0.5294
  133OSM    H7F14430   2.815   1.772   7.256 -0.4348  0.3105  0.9932
  133OSM    H7G14431   2.930   1.903   7.270  2.4343 -1.4482 -0.7285
  133OSM    C8F14432   2.855   1.837   7.466  0.0518 -0.9065  0.3582
  133OSM    H8F14433   2.809   1.749   7.515  3.7700 -1.6923  2.8623
  133OSM    H8G14434   2.781   1.918   7.452  1.1214  0.2954  1.4437
  133OSM    C9F14435   2.970   1.897   7.545  1.0002  0.1061  0.2988
  133OSM    H9F14436   2.990   1.999   7.509 -0.1254  0.1892 -0.1561
  133OSM   C10F14437   3.042   1.841   7.647 -0.7451 -0.3072 -0.3381
  133OSM   H10F14438   3.124   1.892   7.699 -0.4816 -0.7593 -0.3099
  133OSM   C11F14439   3.003   1.709   7.712 -0.4898 -0.0863 -0.3187
  133OSM   H11F14440   3.083   1.634   7.700  0.6816  1.1379 -0.3908
  133OSM   H11G14441   2.916   1.666   7.658 -0.1413  1.5067 -2.2569
  133OSM   C12F14442   2.983   1.728   7.863  0.5172  0.4669 -0.1200
  133OSM   H12F14443   2.934   1.826   7.879 -0.1719  0.1966 -0.4998
  133OSM   H12G14444   3.085   1.726   7.907  0.1516 -0.4410  0.7279
  133OSM   C13F14445   2.906   1.605   7.923 -0.6084  0.1394 -0.0994
  133OSM   H13F14446   2.942   1.505   7.888  0.9232  0.0045  1.6961
  133OSM   H13G14447   2.804   1.616   7.880 -0.0095 -0.2866 -1.7033
  133OSM   C14F14448   2.908   1.605   8.073  0.1260  0.2844 -0.2930
  133OSM   H14F14449   2.859   1.698   8.107 -1.1724  0.2953 -2.0808
  133OSM   H14G14450   3.011   1.604   8.115 -0.0487 -0.6311  0.1438
  133OSM   C15F14451   2.832   1.485   8.134  0.6164  0.4282 -0.6006
  133OSM   H15F14452   2.894   1.394   8.121  0.3798 -0.1722  1.9355
  133OSM   H15G14453   2.743   1.463   8.070 -0.4958  0.6236  0.8233
  133OSM   C16F14454   2.776   1.513   8.280 -0.4193 -0.4032 -0.4144
  133OSM   H16F14455   2.697   1.590   8.269  0.1848  0.2277 -0.4792
  133OSM   H16G14456   2.859   1.560   8.337  1.4191 -0.8935 -2.5353
  133OSM   C17F14457   2.713   1.394   8.353  0.2221 -0.3759 -0.2757
  133OSM   H17F14458   2.656   1.442   8.436 -0.1724  0.7630 -1.1881
  133OSM   H17G14459   2.787   1.327   8.403  0.4434 -0.2883 -0.4860
  133OSM   C18F14460   2.619   1.300   8.268 -0.3041 -0.5120  0.2840
  133OSM   H18F14461   2.532   1.355   8.226  0.5093 -0.4698 -1.4306
  133OSM   H18G14462   2.575   1.219   8.330  0.5427  0.5051  2.3042
  133OSM   H18H14463   2.660   1.243   8.182 -2.3732 -0.9947 -0.4192
  134OSM      N14464   3.894   4.775   6.402 -0.1442  0.8366  0.3665
  134OSM    C1514465   3.896   4.701   6.532 -1.2375 -0.0886  0.3341
  134OSM   H15A14466   3.827   4.618   6.540 -1.2406  0.0893  3.4024
  134OSM   H15B14467   3.861   4.771   6.607 -1.0989  1.6949 -1.1975
  134OSM   H15C14468   3.992   4.655   6.554 -1.2690 -0.0585  0.5368
  134OSM    C1414469   3.976   4.896   6.422  0.8565  0.7696  0.3037
  134OSM   H14A14470   4.082   4.879   6.436  0.6064 -0.6330  0.6573
  134OSM   H14B14471   3.935   4.955   6.503  1.0707 -2.4219  2.9280
  134OSM   H14C14472   3.975   4.961   6.336  0.4354 -0.9006 -0.9869
  134OSM    C1314473   3.955   4.693   6.291 -0.3399 -0.1419  0.6255
  134OSM   H13A14474   4.049   4.648   6.319  0.1190  0.4760  0.0886
  134OSM   H13B14475   3.974   4.757   6.207  0.1283 -0.1407  0.7308
  134OSM   H13C14476   3.886   4.613   6.269 -2.4783  0.6929  3.6260
  134OSM    C1214477   3.760   4.820   6.360 -0.0511 -0.5435 -0.5616
  134OSM   H12A14478   3.754   4.865   6.262 -1.4339 -0.8918 -0.6566
  134OSM   H12B14479   3.728   4.896   6.429  0.6962 -1.1276  0.4513
  134OSM    C1114480   3.650   4.713   6.355  0.2947 -0.5242  0.2235
  134OSM   H11A14481   3.636   4.644   6.441  0.7956  0.0800  0.8099
  134OSM   H11B14482   3.683   4.646   6.272 -1.8394 -0.1441 -1.0008
  134OSM      P14483   3.438   4.872   6.392 -0.8071  0.4715  0.0771
  134OSM    O1314484   3.512   4.923   6.510  0.2972  0.1329  1.2548
  134OSM    O1414485   3.390   4.969   6.296 -0.3641 -0.1497 -0.1281
  134OSM    O1114486   3.318   4.786   6.452  0.0829 -0.2951 -0.1852
  134OSM    O1214487   3.531   4.782   6.306 -0.2597  0.2312 -0.7592
  134OSM    C1S14488   3.344   4.695   6.560  0.1714 -0.1458  0.3882
  134OSM    H1S14489   3.354   4.750   6.655  0.4147 -1.3327  1.0676
  134OSM    H1T14490   3.437   4.636   6.543 -0.4129 -0.7625 -0.8476
  134OSM     NF14491   3.206   4.535   6.703  0.6007 -0.0953  0.1400
  134OSM    HNF14492   3.211   4.436   6.709 -0.0507 -0.0689  3.1590
  134OSM    C2S14493   3.219   4.604   6.581  0.2106  0.3881  0.3192
  134OSM    H2S14494   3.129   4.668   6.573 -0.2781 -0.0361  1.9604
  134OSM    C3S14495   3.205   4.503   6.461 -0.7079 -0.0790  0.3321
  134OSM    H3S14496   3.303   4.451   6.472 -0.5298  0.6850  3.3742
  134OSM     O314497   3.192   4.561   6.330  0.3529 -0.6940  0.5329
  134OSM    HO314498   3.224   4.650   6.349  0.5665 -0.1243 -2.1251
  134OSM    C4S14499   3.088   4.409   6.469 -0.5036  0.1520  0.0873
  134OSM    H4S14500   2.995   4.462   6.497  1.4229  2.8318  1.8223
  134OSM    C5S14501   3.087   4.280   6.455 -0.4157  0.2623  0.7544
  134OSM    H5S14502   3.181   4.225   6.437 -1.2305 -0.4701 -1.6632
  134OSM    C6S14503   2.961   4.195   6.472 -1.0362 -1.0891  0.3237
  134OSM    H6S14504   2.923   4.157   6.374 -1.9163 -0.8851  0.5752
  134OSM    H6T14505   2.890   4.253   6.534  1.1315  1.4212  0.6137
  134OSM    C7S14506   2.989   4.080   6.559 -0.0928  0.6012 -0.5347
  134OSM    H7S14507   3.081   4.027   6.527 -0.9406 -0.7254 -0.8848
  134OSM    H7T14508   2.909   4.003   6.552 -1.1394  1.6317 -0.2240
  134OSM    C8S14509   3.002   4.114   6.708 -0.0934 -0.9301  0.2771
  134OSM    H8S14510   2.903   4.156   6.733 -0.9281 -0.8544 -2.7356
  134OSM    H8T14511   3.087   4.186   6.707 -1.0368  0.2292 -0.6679
  134OSM    C9S14512   3.026   4.002   6.802 -0.6602  0.6270 -0.6942
  134OSM    H9S14513   3.118   3.955   6.763 -0.0095 -0.2539  1.6816
  134OSM    H9T14514   2.948   3.923   6.797 -0.9138  0.8366 -0.1796
  134OSM   C10S14515   3.045   4.049   6.949  1.3508 -0.6010  0.3357
  134OSM   H10S14516   2.954   4.085   7.000  2.0108  0.7943  0.5895
  134OSM   H10T14517   3.112   4.138   6.943 -0.6127  1.1583  2.4398
  134OSM   C11S14518   3.113   3.940   7.036 -0.5481  0.4282  0.3413
  134OSM   H11S14519   3.190   3.892   6.972  0.0006  1.7507 -0.0181
  134OSM   H11T14520   3.047   3.852   7.050  1.7437 -1.3650  0.3893
  134OSM   C12S14521   3.172   3.977   7.169  0.3389 -0.1728 -0.0090
  134OSM   H12S14522   3.195   4.085   7.160  3.7907 -0.6309  1.4592
  134OSM   H12T14523   3.264   3.917   7.188  0.7441  0.8482  1.4675
  134OSM   C13S14524   3.085   3.938   7.287  0.2428 -0.6631 -1.2020
  134OSM   H13S14525   3.063   3.831   7.266  2.4306 -1.6936  1.2568
  134OSM   H13T14526   2.994   4.002   7.280  0.4613 -0.4687 -2.4292
  134OSM   C14S14527   3.159   3.944   7.421  0.0213 -0.1876 -0.7207
  134OSM   H14S14528   3.187   4.050   7.442 -1.8259  0.1854 -0.0156
  134OSM   H14T14529   3.257   3.892   7.413  0.1345  0.0912 -1.2179
  134OSM   C15S14530   3.082   3.889   7.538 -0.3484 -0.4448 -0.0817
  134OSM   H15S14531   3.054   3.785   7.511  2.8372 -1.2982 -0.4392
  134OSM   H15T14532   2.991   3.952   7.539  0.0650  0.1999  2.1780
  134OSM   C16S14533   3.159   3.900   7.672  0.1482 -0.2288  0.1876
  134OSM   H16S14534   3.205   3.999   7.692  0.3094 -0.1504 -0.5460
  134OSM   H16T14535   3.242   3.826   7.672  0.3240 -0.0392 -0.3773
  134OSM   C17S14536   3.066   3.853   7.787  0.2655 -1.1964  0.0960
  134OSM   H17S14537   3.045   3.745   7.767  0.7840 -1.0177 -1.5536
  134OSM   H17T14538   2.965   3.900   7.786  1.4177  1.4390  0.0384
  134OSM   C18S14539   3.132   3.877   7.925 -0.2856 -0.0474 -0.6843
  134OSM   H18S14540   3.210   3.798   7.932 -1.0713 -1.0132 -2.1211
  134OSM   H18T14541   3.064   3.857   8.010  3.0440 -2.9619  1.5767
  134OSM   H18U14542   3.185   3.974   7.940  0.6047 -0.4338 -1.2474
  134OSM    C1F14543   3.193   4.602   6.811 -0.0237 -0.4567 -0.7080
  134OSM     OF14544   3.160   4.715   6.810 -0.1992 -0.1641  0.3355
  134OSM    C2F14545   3.219   4.519   6.938  0.5589  0.1870 -0.3316
  134OSM    H2F14546   3.319   4.475   6.918  0.7767  0.8296 -0.6808
  134OSM    H2G14547   3.152   4.431   6.925 -0.3921  0.7353  0.6705
  134OSM    C3F14548   3.213   4.600   7.069 -0.3939  0.5500 -0.2811
  134OSM    H3F14549   3.106   4.630   7.078 -0.6349 -0.6749  1.3324
  134OSM    H3G14550   3.284   4.685   7.055  1.1608 -0.8671 -1.4549
  134OSM    C4F14551   3.237   4.523   7.198 -0.4779 -0.5607  0.8844
  134OSM    H4F14552   3.243   4.591   7.285  1.8772 -1.1364  1.2382
  134OSM    H4G14553   3.340   4.483   7.186 -0.0978  0.8905 -1.2125
  134OSM    C5F14554   3.131   4.412   7.207  0.0027 -0.6552  0.0301
  134OSM    H5F14555   3.131   4.344   7.119 -0.7643 -1.4680  0.6415
  134OSM    H5G14556   3.031   4.460   7.215 -0.2147 -0.7050 -1.8901
  134OSM    C6F14557   3.133   4.323   7.330  0.0502 -0.0680  0.7832
  134OSM    H6F14558   3.233   4.275   7.332  0.9704  1.7965  2.0208
  134OSM    H6G14559   3.061   4.240   7.313  0.0196  0.2926 -1.1547
  134OSM    C7F14560   3.114   4.393   7.463  0.1171  0.3979 -0.4844
  134OSM    H7F14561   3.009   4.429   7.460  0.6513  2.0252 -0.6797
  134OSM    H7G14562   3.181   4.482   7.460  0.0386  0.4922  0.4462
  134OSM    C8F14563   3.130   4.304   7.586  0.0899  0.2804  0.4559
  134OSM    H8F14564   3.075   4.208   7.577 -1.0539  0.9495 -0.0657
  134OSM    H8G14565   3.070   4.359   7.661 -1.6488 -1.4491  0.4214
  134OSM    C9F14566   3.274   4.280   7.616  0.7065 -0.1287 -0.3096
  134OSM    H9F14567   3.331   4.240   7.531 -1.4364 -2.1370 -0.9102
  134OSM   C10F14568   3.320   4.303   7.742 -0.5280  0.6355 -0.0914
  134OSM   H10F14569   3.426   4.282   7.763 -0.1353  2.1295 -0.4202
  134OSM   C11F14570   3.238   4.356   7.863  0.1753  0.1866 -0.0911
  134OSM   H11F14571   3.139   4.305   7.864  0.4122 -0.3031 -1.0592
  134OSM   H11G14572   3.217   4.465   7.850  1.3798  0.3667 -0.6485
  134OSM   C12F14573   3.314   4.347   7.990 -0.9245 -0.3721  0.0234
  134OSM   H12F14574   3.419   4.384   7.985 -0.5771 -0.7809  2.7137
  134OSM   H12G14575   3.336   4.239   8.004  1.4841 -0.2474 -2.0095
  134OSM   C13F14576   3.245   4.416   8.110  0.3493 -0.1224  0.4172
  134OSM   H13F14577   3.206   4.518   8.088 -0.7737 -0.0632  2.4847
  134OSM   H13G14578   3.314   4.414   8.197  0.8284 -1.2646  0.0230
  134OSM   C14F14579   3.130   4.329   8.174  0.3373 -0.0003 -1.5020
  134OSM   H14F14580   3.165   4.231   8.213 -0.0192 -0.5485 -2.5125
  134OSM   H14G14581   3.045   4.308   8.107 -1.7771  0.9124  0.7577
  134OSM   C15F14582   3.059   4.408   8.282  0.2875 -0.7572  0.3059
  134OSM   H15F14583   3.003   4.489   8.231 -0.5074 -0.0123  2.2490
  134OSM   H15G14584   3.134   4.443   8.356  1.9724 -0.1739 -1.5889
  134OSM   C16F14585   2.969   4.324   8.363  0.3727  0.0905  0.0598
  134OSM   H16F14586   3.024   4.249   8.423 -2.1352 -0.4337  1.8502
  134OSM   H16G14587   2.909   4.260   8.295 -0.2177 -0.0064  0.6695
  134OSM   C17F14588   2.882   4.404   8.466 -0.5939  0.7246 -0.4889
  134OSM   H17F14589   2.831   4.491   8.419 -0.4220  1.7510  1.1333
  134OSM   H17G14590   2.954   4.445   8.541  1.4696  1.4762 -2.7404
  134OSM   C18F14591   2.774   4.321   8.534  0.8358  0.3406  0.6940
  134OSM   H18F14592   2.723   4.387   8.608  0.7440  1.2138 -0.1150
  134OSM   H18G14593   2.803   4.229   8.588 -1.2297 -0.9057 -0.2065
  134OSM   H18H14594   2.698   4.296   8.457  1.5027  1.1369 -0.2496
  135OSM      N14595   2.788   4.857   6.000  0.0499  0.1018  0.5922
  135OSM    C1514596   2.910   4.922   5.932 -0.4591  0.1014 -0.1447
  135OSM   H15A14597   2.989   4.849   5.924  0.4022  1.0384 -0.2662
  135OSM   H15B14598   2.954   4.992   6.001 -1.1803 -1.2786  1.8151
  135OSM   H15C14599   2.896   4.965   5.834 -0.7374  1.4460  0.4586
  135OSM    C1414600   2.689   4.960   6.026  0.1480  0.8241  0.5026
  135OSM   H14A14601   2.732   5.026   6.100  0.2534  1.2762  0.0408
  135OSM   H14B14602   2.596   4.929   6.071  0.4688 -0.8027  0.1230
  135OSM   H14C14603   2.669   5.013   5.934 -2.8597  0.0541  0.6191
  135OSM    C1314604   2.731   4.751   5.917  0.7682 -0.0256  0.1745
  135OSM   H13A14605   2.627   4.729   5.937  1.1397 -1.6317  0.4769
  135OSM   H13B14606   2.790   4.660   5.918  1.2527  0.2165 -1.6176
  135OSM   H13C14607   2.723   4.790   5.816 -4.7404 -0.8570 -0.0177
  135OSM    C1214608   2.839   4.791   6.129  0.2768 -0.1033 -0.0678
  135OSM   H12A14609   2.899   4.704   6.110 -0.5481 -0.7395  0.1582
  135OSM   H12B14610   2.760   4.733   6.173 -0.0564  0.0510 -0.4513
  135OSM    C1114611   2.906   4.860   6.253  0.1987  0.2461 -0.0806
  135OSM   H11A14612   2.958   4.780   6.309 -0.4674 -0.8049 -0.9185
  135OSM   H11B14613   2.830   4.890   6.329 -0.7694 -2.0971 -0.0434
  135OSM      P14614   2.963   5.115   6.272 -0.0131  0.4805 -0.0636
  135OSM    O1314615   3.061   5.210   6.218  0.6572 -0.2711 -0.3687
  135OSM    O1414616   2.818   5.143   6.243 -0.1303 -0.3059 -0.2425
  135OSM    O1114617   2.979   5.105   6.426  0.0037 -0.4226 -0.2746
  135OSM    O1214618   2.992   4.967   6.227  0.0297 -1.0840  0.1568
  135OSM    C1S14619   3.084   5.035   6.493 -0.0541 -0.0446  0.5888
  135OSM    H1S14620   3.183   5.081   6.476  0.6171 -1.3720  0.7457
  135OSM    H1T14621   3.097   4.931   6.455 -1.8423  0.4895 -1.6647
  135OSM     NF14622   3.175   4.989   6.726  0.0480 -0.6392  0.0815
  135OSM    HNF14623   3.191   4.894   6.749  1.2021 -0.4106  0.3217
  135OSM    C2S14624   3.055   5.029   6.650 -0.0671  0.3481  0.4587
  135OSM    H2S14625   3.022   5.132   6.675 -1.2789 -0.0393  0.5191
  135OSM    C3S14626   2.931   4.938   6.682 -0.8623 -0.2151 -0.9271
  135OSM    H3S14627   2.959   4.834   6.654 -0.5842 -0.9111  1.7032
  135OSM     O314628   2.814   4.978   6.611 -0.5491 -0.9779 -0.5444
  135OSM    HO314629   2.853   5.024   6.537 -2.2729  1.1401 -0.2097
  135OSM    C4S14630   2.887   4.941   6.827  0.0937  0.3131 -0.2532
  135OSM    H4S14631   2.852   5.041   6.856 -2.1243 -0.2956 -0.6664
  135OSM    C5S14632   2.881   4.839   6.909  0.5186  0.4815  0.2533
  135OSM    H5S14633   2.921   4.741   6.878 -1.0973 -0.2513  0.3378
  135OSM    C6S14634   2.818   4.844   7.044 -0.0784 -0.4300 -0.2738
  135OSM    H6S14635   2.789   4.742   7.076 -0.1118 -0.3981 -0.2028
  135OSM    H6T14636   2.719   4.895   7.042 -0.4593 -1.1449 -2.1841
  135OSM    C7S14637   2.914   4.910   7.144 -0.2565 -0.1192 -0.7329
  135OSM    H7S14638   2.930   5.018   7.124  0.9711 -0.3070 -0.8603
  135OSM    H7T14639   3.017   4.867   7.137  0.2662  0.6840  1.3745
  135OSM    C8S14640   2.854   4.898   7.292  0.0333  0.1529 -0.2285
  135OSM    H8S14641   2.756   4.950   7.295  1.1157  2.3872  3.6921
  135OSM    H8T14642   2.921   4.935   7.373 -0.9187 -0.2290  0.7438
  135OSM    C9S14643   2.825   4.756   7.334 -0.5081  0.7892 -0.1331
  135OSM    H9S14644   2.885   4.685   7.273  0.2751 -0.3242  1.8366
  135OSM    H9T14645   2.718   4.732   7.316  0.1642 -1.9537 -0.9731
  135OSM   C10S14646   2.877   4.726   7.471 -0.5265  0.3588 -0.9640
  135OSM   H10S14647   2.985   4.749   7.457 -1.1979  3.4508 -1.9505
  135OSM   H10T14648   2.885   4.622   7.507  1.2187  0.3340 -1.2978
  135OSM   C11S14649   2.811   4.816   7.578  0.1248 -0.2158 -0.3004
  135OSM   H11S14650   2.707   4.786   7.602  0.3111 -2.4417 -1.9687
  135OSM   H11T14651   2.816   4.924   7.553 -1.7081  0.1117  0.5487
  135OSM   C12S14652   2.887   4.803   7.716 -0.2425 -0.4665  0.0872
  135OSM   H12S14653   2.840   4.869   7.791 -2.7832 -3.1987  1.0740
  135OSM   H12T14654   2.994   4.832   7.700 -0.2959 -1.2405 -2.0995
  135OSM   C13S14655   2.892   4.665   7.779  0.3278 -0.0861  0.6754
  135OSM   H13S14656   2.963   4.611   7.713 -0.2611  2.0480 -1.9296
  135OSM   H13T14657   2.798   4.608   7.790  1.0245 -1.5337 -0.4734
  135OSM   C14S14658   2.941   4.663   7.922  0.4840 -0.9147 -0.1000
  135OSM   H14S14659   3.034   4.721   7.937 -0.5992  0.2584  2.6155
  135OSM   H14T14660   2.964   4.559   7.954  0.4776 -1.3275 -1.3535
  135OSM   C15S14661   2.835   4.720   8.025  0.7361 -0.0206  0.2259
  135OSM   H15S14662   2.776   4.632   8.058  0.3224  0.8664  1.9287
  135OSM   H15T14663   2.768   4.778   7.957  0.6601 -1.1826 -0.7203
  135OSM   C16S14664   2.895   4.791   8.145  0.0016  0.0302  0.2865
  135OSM   H16S14665   2.948   4.883   8.113 -0.2288  0.2242  0.4648
  135OSM   H16T14666   2.969   4.725   8.196  0.8152 -0.0343 -0.9329
  135OSM   C17S14667   2.780   4.843   8.241 -0.8023 -0.7867  0.5914
  135OSM   H17S14668   2.735   4.750   8.282 -2.0168 -0.4010  0.1830
  135OSM   H17T14669   2.709   4.902   8.180 -1.0203  0.0080  1.5813
  135OSM   C18S14670   2.825   4.930   8.357 -0.1375 -0.1791 -0.2605
  135OSM   H18S14671   2.874   4.874   8.439  0.3409  1.0188  0.2921
  135OSM   H18T14672   2.742   4.994   8.395 -0.3849 -0.4291 -0.3743
  135OSM   H18U14673   2.892   5.011   8.321  1.1515  0.0911  2.4806
  135OSM    C1F14674   3.271   5.083   6.746  0.0612 -0.6242 -0.4055
  135OSM     OF14675   3.252   5.200   6.720 -0.1052 -0.6811 -0.1155
  135OSM    C2F14676   3.402   5.028   6.788  0.1305 -0.5647  0.1693
  135OSM    H2F14677   3.496   5.060   6.737 -0.2505  0.5766  0.1511
  135OSM    H2G14678   3.396   4.917   6.784 -0.5767 -0.5421  0.3706
  135OSM    C3F14679   3.431   5.067   6.939 -0.6243  0.3995 -0.2965
  135OSM    H3F14680   3.439   5.178   6.933 -1.1386  0.5329  1.1119
  135OSM    H3G14681   3.530   5.023   6.961 -0.1522 -0.5396 -3.6491
  135OSM    C4F14682   3.321   5.023   7.039 -0.0981  0.2175  0.5813
  135OSM    H4F14683   3.320   4.916   7.010 -0.2608  0.2710  0.3888
  135OSM    H4G14684   3.228   5.082   7.027 -0.1749  0.1256  0.7228
  135OSM    C5F14685   3.382   5.025   7.181 -0.0603  0.1320  0.3696
  135OSM    H5F14686   3.383   5.134   7.205 -0.4013 -0.1225  1.6347
  135OSM    H5G14687   3.481   4.975   7.175  2.1750  4.2159 -0.5226
  135OSM    C6F14688   3.292   4.948   7.283  0.0268 -0.4356  0.4457
  135OSM    H6F14689   3.303   4.844   7.248 -1.3402 -0.1288 -1.0023
  135OSM    H6G14690   3.185   4.976   7.286  0.2103  0.3472  0.1407
  135OSM    C7F14691   3.332   4.967   7.434  0.5277  0.3115  0.5564
  135OSM    H7F14692   3.298   5.067   7.467  0.2621  1.0980 -1.8998
  135OSM    H7G14693   3.443   4.970   7.428  0.6435 -1.6289  1.0757
  135OSM    C8F14694   3.295   4.861   7.541  1.1153  0.7801  0.3516
  135OSM    H8F14695   3.224   4.785   7.503 -0.2833  1.4278  1.5763
  135OSM    H8G14696   3.241   4.919   7.619 -1.9474  0.0223 -1.0667
  135OSM    C9F14697   3.415   4.790   7.597 -0.2351 -0.9693 -0.5188
  135OSM    H9F14698   3.446   4.699   7.545  0.0540 -2.1225  1.5657
  135OSM   C10F14699   3.491   4.828   7.701  0.1870 -0.5739 -0.3752
  135OSM   H10F14700   3.575   4.758   7.713 -0.6018 -1.5668 -0.4402
  135OSM   C11F14701   3.483   4.956   7.786 -1.0277  0.4377 -0.0533
  135OSM   H11F14702   3.408   5.035   7.762 -0.5187  0.9289 -0.0450
  135OSM   H11G14703   3.580   5.011   7.787 -0.4413 -0.5482  2.1855
  135OSM   C12F14704   3.463   4.910   7.935  0.1430  0.0275 -0.6571
  135OSM   H12F14705   3.467   5.002   7.997  1.5318  0.0510 -0.7618
  135OSM   H12G14706   3.542   4.842   7.972  0.3825  1.0351  0.7618
  135OSM   C13F14707   3.323   4.866   7.962  0.6329  0.1338 -0.7896
  135OSM   H13F14708   3.302   4.779   7.896 -0.3251 -0.6042  0.4342
  135OSM   H13G14709   3.246   4.942   7.937  0.3126 -0.0268 -0.3200
  135OSM   C14F14710   3.305   4.818   8.107 -0.7083 -0.7213 -0.4810
  135OSM   H14F14711   3.345   4.715   8.120 -0.8060 -0.7912 -0.7270
  135OSM   H14G14712   3.195   4.815   8.122 -1.2976  0.8439 -3.5873
  135OSM   C15F14713   3.353   4.915   8.218 -0.1168 -0.1426 -0.9306
  135OSM   H15F14714   3.312   5.018   8.218  0.1650  0.0104  1.5882
  135OSM   H15G14715   3.463   4.925   8.211 -0.0036  0.1335  0.9181
  135OSM   C16F14716   3.309   4.858   8.360 -0.1976  0.0006  0.3562
  135OSM   H16F14717   3.198   4.853   8.364 -0.2001 -0.4405 -0.1447
  135OSM   H16G14718   3.338   4.927   8.442 -0.1271 -2.8236  2.8784
  135OSM   C17F14719   3.380   4.724   8.394 -0.3523 -0.5035  0.0809
  135OSM   H17F14720   3.485   4.746   8.367 -0.2068  1.7431  2.1020
  135OSM   H17G14721   3.349   4.642   8.325  0.4264 -0.4024 -0.3986
  135OSM   C18F14722   3.355   4.691   8.541 -0.4134 -0.2387 -0.1238
  135OSM   H18F14723   3.372   4.776   8.610 -1.0763  0.4775 -0.8175
  135OSM   H18G14724   3.417   4.603   8.567 -0.4006 -0.3563 -0.5418
  135OSM   H18H14725   3.250   4.656   8.538 -0.6444  0.4686 -1.1842
  136OSM      N14726   0.437   4.125   6.068  0.1274  0.0688 -0.1328
  136OSM    C1514727   0.366   4.205   6.185 -0.2412 -0.8591 -0.7526
  136OSM   H15A14728   0.441   4.270   6.229 -1.5215 -0.2171  0.5691
  136OSM   H15B14729   0.322   4.143   6.262  0.4891 -0.3532  0.0984
  136OSM   H15C14730   0.279   4.261   6.154  0.8322  1.2911 -0.1043
  136OSM    C1414731   0.326   4.051   6.008  0.0859 -0.1184  0.4863
  136OSM   H14A14732   0.352   4.010   5.911 -2.2437 -1.6383  0.4332
  136OSM   H14B14733   0.232   4.101   5.987  0.4416 -0.2111 -1.5014
  136OSM   H14C14734   0.307   3.964   6.069 -0.5432 -1.6611 -1.7711
  136OSM    C1314735   0.487   4.225   5.974  0.0774  0.8504  0.6868
  136OSM   H13A14736   0.547   4.181   5.896  0.1085  2.4423 -0.2239
  136OSM   H13B14737   0.548   4.302   6.019  1.5665  1.7750 -2.6595
  136OSM   H13C14738   0.399   4.266   5.928 -0.7708 -1.2991  0.2574
  136OSM    C1214739   0.551   4.040   6.118 -0.1344 -0.4454  1.1839
  136OSM   H12A14740   0.631   4.105   6.152  0.5711  0.5526 -1.9795
  136OSM   H12B14741   0.591   3.994   6.029 -2.1945  1.2911 -0.7551
  136OSM    C1114742   0.519   3.929   6.226 -1.0190 -0.0314 -0.0343
  136OSM   H11A14743   0.517   3.981   6.324  2.1221  2.2045 -0.9846
  136OSM   H11B14744   0.616   3.876   6.221 -1.1160 -0.1295 -1.6356
  136OSM      P14745   0.422   3.724   6.090  0.4143  0.0656 -0.0331
  136OSM    O1314746   0.288   3.726   6.024  0.7157  0.2568 -0.2522
  136OSM    O1414747   0.537   3.741   6.001 -0.5961  1.1198 -0.3523
  136OSM    O1114748   0.448   3.584   6.165  0.3451 -0.0236 -0.5059
  136OSM    O1214749   0.413   3.840   6.199 -0.2340 -0.2455  0.3730
  136OSM    C1S14750   0.562   3.554   6.246  0.2301  0.2225  0.1948
  136OSM    H1S14751   0.643   3.622   6.211 -1.2011  1.6394 -0.4800
  136OSM    H1T14752   0.586   3.446   6.233 -1.8799 -0.5601  2.0957
  136OSM     NF14753   0.655   3.560   6.477  0.1759  0.6066  0.0164
  136OSM    HNF14754   0.631   3.495   6.548 -2.1305  0.6792 -0.6336
  136OSM    C2S14755   0.536   3.583   6.393 -0.2853 -0.4259 -0.8674
  136OSM    H2S14756   0.501   3.688   6.404 -0.1081 -0.4871  0.5038
  136OSM    C3S14757   0.419   3.487   6.440 -0.7683 -0.2470  0.4606
  136OSM    H3S14758   0.446   3.381   6.419 -2.5076 -0.6717  0.2021
  136OSM     O314759   0.310   3.491   6.356  0.5558 -0.5635  0.3595
  136OSM    HO314760   0.340   3.524   6.271  0.3558 -3.2097 -0.8689
  136OSM    C4S14761   0.384   3.504   6.580  0.0439  0.1313  0.5493
  136OSM    H4S14762   0.445   3.439   6.646 -0.6787  0.4311  1.5412
  136OSM    C5S14763   0.288   3.583   6.630  0.5455  0.3943 -0.4920
  136OSM    H5S14764   0.223   3.639   6.562  0.4640  1.8615  0.7350
  136OSM    C6S14765   0.244   3.595   6.776 -0.2900  0.5677 -0.6780
  136OSM    H6S14766   0.166   3.521   6.803  1.4155 -1.0669  0.0347
  136OSM    H6T14767   0.202   3.698   6.787  0.8612  1.0900 -0.9898
  136OSM    C7S14768   0.362   3.572   6.873 -0.4023  0.1002  0.0174
  136OSM    H7S14769   0.444   3.646   6.856  1.5722 -2.2449 -1.3317
  136OSM    H7T14770   0.408   3.471   6.865 -0.5719  0.0852 -0.8758
  136OSM    C8S14771   0.328   3.588   7.027 -0.7660  0.7485  0.0015
  136OSM    H8S14772   0.252   3.509   7.041 -2.3037  2.3220  0.9505
  136OSM    H8T14773   0.280   3.684   7.057 -1.8224  1.0349 -2.3300
  136OSM    C9S14774   0.446   3.573   7.118 -0.4202 -0.2337  0.2412
  136OSM    H9S14775   0.520   3.656   7.122  0.3157 -0.8876  0.4362
  136OSM    H9T14776   0.491   3.478   7.084 -0.4236  0.2490 -1.1479
  136OSM   C10S14777   0.402   3.549   7.268  0.3475 -0.2311 -0.3822
  136OSM   H10S14778   0.403   3.441   7.295  0.9669 -0.7077 -2.1544
  136OSM   H10T14779   0.299   3.592   7.271 -0.8128 -2.6278 -2.0291
  136OSM   C11S14780   0.480   3.624   7.370 -0.1617 -0.4232 -0.6658
  136OSM   H11S14781   0.505   3.730   7.349  0.1689 -0.1398  0.9871
  136OSM   H11T14782   0.579   3.579   7.394 -0.3584 -0.8194 -0.5862
  136OSM   C12S14783   0.405   3.628   7.507 -0.6515  0.2881  0.5487
  136OSM   H12S14784   0.372   3.523   7.516  0.6337 -0.2790 -0.9368
  136OSM   H12T14785   0.314   3.693   7.504 -1.0379 -0.1966  1.4872
  136OSM   C13S14786   0.497   3.657   7.630  0.0125 -0.2400  0.4492
  136OSM   H13S14787   0.524   3.765   7.629 -2.4183  0.4334  1.0739
  136OSM   H13T14788   0.596   3.607   7.617  0.5759  0.8223  0.5745
  136OSM   C14S14789   0.427   3.638   7.767  0.0648  0.6250  0.0782
  136OSM   H14S14790   0.405   3.530   7.774 -3.1468  1.0963 -1.1045
  136OSM   H14T14791   0.332   3.696   7.763 -0.7411 -0.6159  0.6150
  136OSM   C15S14792   0.510   3.686   7.889  0.3058 -0.1032  1.2595
  136OSM   H15S14793   0.534   3.792   7.868 -1.7493 -0.1378 -1.8946
  136OSM   H15T14794   0.597   3.617   7.898  0.3865 -0.2528 -0.3542
  136OSM   C16S14795   0.425   3.665   8.018  0.0582 -0.8348  0.1566
  136OSM   H16S14796   0.410   3.558   8.043 -0.5250 -0.3590  1.9448
  136OSM   H16T14797   0.320   3.700   8.002  0.8031  1.2555 -0.5543
  136OSM   C17S14798   0.480   3.748   8.142  0.1885 -0.5132  1.0291
  136OSM   H17S14799   0.408   3.751   8.227  0.0852  0.1465  0.9232
  136OSM   H17T14800   0.491   3.849   8.097 -2.5667 -1.0769 -1.1918
  136OSM   C18S14801   0.611   3.699   8.201 -0.0855  0.2149 -0.0860
  136OSM   H18S14802   0.643   3.597   8.170 -1.1828  0.4362 -2.1028
  136OSM   H18T14803   0.598   3.711   8.311 -0.4287  0.5919 -0.1676
  136OSM   H18U14804   0.687   3.774   8.169  2.0347 -0.6098  2.5948
  136OSM    C1F14805   0.776   3.624   6.466 -0.1343 -0.4470 -0.3353
  136OSM     OF14806   0.782   3.719   6.389 -0.0933  0.2776 -0.8554
  136OSM    C2F14807   0.897   3.566   6.543 -0.1320 -0.1144  0.1013
  136OSM    H2F14808   0.980   3.551   6.471 -0.1457 -0.6507  0.1944
  136OSM    H2G14809   0.853   3.471   6.580 -1.0801 -0.2007 -1.1796
  136OSM    C3F14810   0.936   3.650   6.666  0.3031  0.5215  0.6282
  136OSM    H3F14811   0.968   3.753   6.637 -0.4778  0.6220  0.0759
  136OSM    H3G14812   1.030   3.608   6.706  0.4843  0.5866  0.2796
  136OSM    C4F14813   0.828   3.667   6.774 -0.3869  0.6479  0.5627
  136OSM    H4F14814   0.773   3.570   6.775  1.8990 -0.7519 -0.7223
  136OSM    H4G14815   0.759   3.753   6.769  0.2026  1.2571  2.1418
  136OSM    C5F14816   0.894   3.678   6.919  0.9187  0.2655  0.2113
  136OSM    H5F14817   0.949   3.775   6.918  1.8942 -0.2718  0.2294
  136OSM    H5G14818   0.970   3.597   6.921  1.6650  0.9103 -0.8415
  136OSM    C6F14819   0.801   3.664   7.042 -0.2492 -0.7728 -0.3668
  136OSM    H6F14820   0.851   3.600   7.118  0.0261  0.9139  0.9398
  136OSM    H6G14821   0.709   3.614   7.006  0.6195 -2.1660 -0.7339
  136OSM    C7F14822   0.761   3.800   7.104  0.9347 -0.4129 -0.6220
  136OSM    H7F14823   0.696   3.772   7.190  1.2281  0.9746  0.0768
  136OSM    H7G14824   0.706   3.856   7.025  2.3239  1.0734 -0.5570
  136OSM    C8F14825   0.892   3.867   7.162  0.6579 -0.0247  0.7183
  136OSM    H8F14826   0.946   3.917   7.078 -4.0375  2.2668 -1.2828
  136OSM    H8G14827   0.967   3.790   7.193  1.4734 -0.6172 -2.3923
  136OSM    C9F14828   0.860   3.979   7.257  0.4440  0.6167 -0.4186
  136OSM    H9F14829   0.854   4.081   7.216  0.0338  1.4379  1.5533
  136OSM   C10F14830   0.837   3.962   7.391 -0.7475 -0.0160  0.4803
  136OSM   H10F14831   0.807   4.042   7.460  0.1681  1.7632 -1.0836
  136OSM   C11F14832   0.844   3.836   7.466 -0.5572 -0.0021  0.2432
  136OSM   H11F14833   0.894   3.749   7.418  0.3079 -1.0126  2.7795
  136OSM   H11G14834   0.740   3.802   7.485 -0.5009  0.2438  1.0200
  136OSM   C12F14835   0.918   3.851   7.606  0.0983  0.3036 -0.8485
  136OSM   H12F14836   1.014   3.906   7.599  1.5648 -1.7341  1.2588
  136OSM   H12G14837   0.936   3.743   7.625 -0.1790  0.1988 -1.1684
  136OSM   C13F14838   0.827   3.923   7.707  0.2980  0.1663  0.7223
  136OSM   H13F14839   0.734   3.865   7.719  0.8112 -0.8690 -0.1547
  136OSM   H13G14840   0.805   4.025   7.669  0.7893  0.4455  1.1658
  136OSM   C14F14841   0.884   3.955   7.844 -0.2993  1.2783 -0.6119
  136OSM   H14F14842   0.820   4.032   7.891 -0.1996  0.9809  0.0138
  136OSM   H14G14843   0.978   4.014   7.829 -1.4880  3.3064 -0.3979
  136OSM   C15F14844   0.920   3.830   7.932  0.3422  0.2335  0.4112
  136OSM   H15F14845   0.975   3.769   7.858 -0.9796  1.7189 -1.9024
  136OSM   H15G14846   0.824   3.781   7.961 -2.2212  2.3572 -3.4770
  136OSM   C16F14847   1.016   3.863   8.044 -0.0566  0.5517  0.6554
  136OSM   H16F14848   1.104   3.907   7.993 -1.5500 -0.2137 -2.8581
  136OSM   H16G14849   1.039   3.765   8.089  1.1928  0.1202 -0.8418
  136OSM   C17F14850   0.947   3.958   8.146 -0.1781 -0.0894  0.7746
  136OSM   H17F14851   0.849   3.911   8.165 -0.5086  0.6277  0.8861
  136OSM   H17G14852   0.933   4.045   8.078  2.8186  0.9886  1.3482
  136OSM   C18F14853   1.031   3.986   8.262 -0.6411  0.3340  0.4060
  136OSM   H18F14854   1.136   3.965   8.233  0.3823  4.3825  0.5687
  136OSM   H18G14855   1.006   3.920   8.348 -1.4660  0.3518  0.1893
  136OSM   H18H14856   1.006   4.090   8.292 -3.4672  0.0945 -0.7845
  137OSM      N14857   6.206   1.519   6.688 -0.3192  0.1071 -0.5279
  137OSM    C1514858   6.099   1.440   6.763  0.1384  0.0916 -0.2691
  137OSM   H15A14859   6.047   1.372   6.696  0.5077 -0.3967 -0.0714
  137OSM   H15B14860   6.023   1.500   6.808 -2.0113 -1.9321 -0.9737
  137OSM   H15C14861   6.146   1.375   6.836  2.6099 -0.2045 -1.9790
  137OSM    C1414862   6.276   1.620   6.771  0.2393  0.2990 -0.1537
  137OSM   H14A14863   6.333   1.572   6.849 -0.2740 -2.2951 -1.2602
  137OSM   H14B14864   6.201   1.678   6.823  1.7755  0.1628  2.3926
  137OSM   H14C14865   6.340   1.681   6.710 -0.7324  1.1213 -0.3695
  137OSM    C1314866   6.299   1.420   6.619 -0.0518 -0.6146 -0.5764
  137OSM   H13A14867   6.341   1.347   6.687 -0.1199 -0.7205 -0.6468
  137OSM   H13B14868   6.378   1.466   6.563  0.2284  1.8350  1.6503
  137OSM   H13C14869   6.235   1.360   6.556 -0.9681 -1.5964  1.2138
  137OSM    C1214870   6.130   1.585   6.571  0.2966  0.3007 -1.0571
  137OSM   H12A14871   6.111   1.506   6.500  1.6892  0.2239 -1.3736
  137OSM   H12B14872   6.196   1.655   6.523  0.8936 -1.0623 -2.3125
  137OSM    C1114873   5.999   1.665   6.615  0.9113  0.1890 -0.2326
  137OSM   H11A14874   6.018   1.740   6.695  0.5204  0.2894 -0.2287
  137OSM   H11B14875   5.922   1.597   6.657  2.0010 -1.1936 -0.3812
  137OSM      P14876   5.811   1.802   6.473 -0.2235  0.1644  0.5452
  137OSM    O1314877   5.839   1.919   6.389  0.7686 -0.5141  0.4167
  137OSM    O1414878   5.712   1.713   6.415 -0.2209 -0.2084  0.1984
  137OSM    O1114879   5.771   1.841   6.624 -0.8717  0.5150  0.1557
  137OSM    O1214880   5.948   1.732   6.498 -1.1487  0.5468  0.1565
  137OSM    C1S14881   5.674   1.766   6.694  0.7618 -0.2253 -0.3810
  137OSM    H1S14882   5.704   1.659   6.700 -1.1147 -0.7576  0.1654
  137OSM    H1T14883   5.573   1.772   6.650  0.6610 -0.8321 -0.2497
  137OSM     NF14884   5.547   1.778   6.913  0.2373  0.0904 -0.6800
  137OSM    HNF14885   5.478   1.841   6.946 -2.9267 -3.2485 -0.2456
  137OSM    C2S14886   5.664   1.831   6.841  0.0778 -0.5648 -0.2451
  137OSM    H2S14887   5.755   1.795   6.894 -1.0926  1.2134  3.3278
  137OSM    C3S14888   5.676   1.987   6.842 -0.1204 -0.4676  0.0963
  137OSM    H3S14889   5.584   2.034   6.801  0.5089  1.4917  0.7923
  137OSM     O314890   5.790   2.037   6.768 -0.5427 -0.0286 -0.4592
  137OSM    HO314891   5.802   1.964   6.708 -0.8364 -0.2084 -0.3054
  137OSM    C4S14892   5.687   2.041   6.985  0.3582  0.1550 -0.5197
  137OSM    H4S14893   5.596   2.073   7.038  0.5338  1.1489 -0.7990
  137OSM    C5S14894   5.797   2.077   7.048 -0.4314 -0.0079  0.1617
  137OSM    H5S14895   5.888   2.080   6.986  1.2180 -3.9670  2.0572
  137OSM    C6S14896   5.807   2.136   7.188 -0.1849 -0.5872  0.1233
  137OSM    H6S14897   5.787   2.245   7.192  0.7636 -0.4166  0.2462
  137OSM    H6T14898   5.906   2.120   7.234 -0.2688  0.3806  0.6686
  137OSM    C7S14899   5.709   2.087   7.295 -0.8686 -0.6226  0.0323
  137OSM    H7S14900   5.714   1.976   7.297 -0.5322 -0.6150  1.8488
  137OSM    H7T14901   5.605   2.117   7.270 -0.9211  0.4193  1.3737
  137OSM    C8S14902   5.759   2.130   7.437  0.4832  0.4874  0.3048
  137OSM    H8S14903   5.753   2.239   7.453 -0.3094  0.7230 -1.4151
  137OSM    H8T14904   5.866   2.099   7.449  0.2941  0.2162  1.5020
  137OSM    C9S14905   5.689   2.054   7.554 -1.5685  0.8915 -0.3322
  137OSM    H9S14906   5.692   1.946   7.527  1.7151 -0.1245  3.2526
  137OSM    H9T14907   5.583   2.085   7.566 -0.9877  2.3807  1.3000
  137OSM   C10S14908   5.772   2.063   7.692 -0.2638 -0.1248  0.1453
  137OSM   H10S14909   5.855   1.989   7.688 -1.1385 -1.3145  2.2263
  137OSM   H10T14910   5.703   2.021   7.768  0.8036 -0.3160  1.0340
  137OSM   C11S14911   5.834   2.200   7.728 -0.0536 -0.4769 -0.4448
  137OSM   H11S14912   5.749   2.271   7.717 -2.4173 -2.6037  2.4123
  137OSM   H11T14913   5.907   2.218   7.647  0.9732  0.2113  0.5920
  137OSM   C12S14914   5.910   2.194   7.862  0.4724  0.4956 -0.5304
  137OSM   H12S14915   6.001   2.256   7.862  0.4098  0.5916 -0.2030
  137OSM   H12T14916   5.945   2.088   7.864  0.1377  0.3865 -0.2303
  137OSM   C13S14917   5.826   2.243   7.977  0.1236 -0.0292 -0.3072
  137OSM   H13S14918   5.740   2.173   7.991 -0.0226 -0.6567 -3.5932
  137OSM   H13T14919   5.789   2.346   7.960  0.5454 -0.2641 -3.0043
  137OSM   C14S14920   5.901   2.247   8.104 -0.0994 -0.4968  0.5034
  137OSM   H14S14921   5.965   2.335   8.085 -0.9642 -0.0031 -0.2220
  137OSM   H14T14922   5.958   2.156   8.129 -1.5457 -2.1968 -2.0141
  137OSM   C15S14923   5.806   2.288   8.216  0.1394 -0.2057 -0.6603
  137OSM   H15S14924   5.733   2.207   8.235 -0.4401  0.8932  2.4549
  137OSM   H15T14925   5.747   2.379   8.192 -0.2721 -0.1598  0.4689
  137OSM   C16S14926   5.878   2.317   8.351 -0.1287  0.4210  0.2006
  137OSM   H16S14927   5.805   2.365   8.420 -0.3276 -0.1521  0.3938
  137OSM   H16T14928   5.955   2.391   8.322 -2.1551  2.0958 -1.1842
  137OSM   C17S14929   5.936   2.197   8.427  0.0329  0.4622 -0.4371
  137OSM   H17S14930   5.993   2.133   8.356  1.2627  0.1218  0.8127
  137OSM   H17T14931   5.849   2.138   8.462 -0.5158  2.8181  2.5161
  137OSM   C18S14932   6.024   2.242   8.543 -0.3085  0.1235  0.1740
  137OSM   H18S14933   5.969   2.244   8.640  1.1764  1.1330  1.0299
  137OSM   H18T14934   6.071   2.340   8.524  1.5508 -0.1034  2.9610
  137OSM   H18U14935   6.108   2.171   8.556  0.1088  0.5036 -0.4114
  137OSM    C1F14936   5.537   1.649   6.937  0.0786  0.4246  0.4664
  137OSM     OF14937   5.634   1.575   6.949  0.3762 -0.0212  0.4972
  137OSM    C2F14938   5.397   1.598   6.957 -0.4558  0.4623  1.1923
  137OSM    H2F14939   5.374   1.535   6.869  0.3651  3.0485 -1.0056
  137OSM    H2G14940   5.321   1.677   6.973  0.3459  0.8332  3.6079
  137OSM    C3F14941   5.397   1.503   7.087  0.0101  0.2330  0.9955
  137OSM    H3F14942   5.471   1.421   7.080 -0.8658 -0.7855  3.0159
  137OSM    H3G14943   5.290   1.472   7.084 -0.3902  1.5344  1.2715
  137OSM    C4F14944   5.426   1.573   7.219 -0.7106  0.9216  0.5551
  137OSM    H4F14945   5.519   1.634   7.210 -0.6467  0.8641  0.8102
  137OSM    H4G14946   5.427   1.492   7.295 -1.6876 -1.8480 -2.1823
  137OSM    C5F14947   5.317   1.662   7.271 -0.2455  1.1426  0.1975
  137OSM    H5F14948   5.227   1.596   7.278 -0.5706  1.7225  2.0441
  137OSM    H5G14949   5.295   1.740   7.195 -2.2157  0.6868  0.2309
  137OSM    C6F14950   5.342   1.728   7.407  0.1664 -0.1806 -0.1350
  137OSM    H6F14951   5.277   1.816   7.425 -0.2063 -0.0950 -1.7657
  137OSM    H6G14952   5.449   1.749   7.385 -0.2185  0.0874 -1.9344
  137OSM    C7F14953   5.329   1.631   7.518 -0.4493 -0.5564 -0.7055
  137OSM    H7F14954   5.401   1.547   7.506 -2.4888 -2.1072 -2.8885
  137OSM    H7G14955   5.235   1.573   7.513 -0.0404 -1.4511  1.0963
  137OSM    C8F14956   5.332   1.690   7.663 -0.1032  0.1485 -0.2997
  137OSM    H8F14957   5.324   1.602   7.729  0.4852 -0.2556 -0.7537
  137OSM    H8G14958   5.241   1.752   7.675  0.0291  0.3483 -0.3170
  137OSM    C9F14959   5.453   1.772   7.695 -0.3855 -0.3573 -0.2508
  137OSM    H9F14960   5.494   1.845   7.623 -1.5353 -0.7417 -1.3267
  137OSM   C10F14961   5.517   1.774   7.816  0.0058  0.3527 -0.4077
  137OSM   H10F14962   5.603   1.842   7.823 -0.6536  1.2490 -0.8220
  137OSM   C11F14963   5.467   1.686   7.934 -0.0442 -0.2119 -0.2821
  137OSM   H11F14964   5.551   1.672   8.004  0.5273  0.1487 -0.8793
  137OSM   H11G14965   5.428   1.586   7.907  0.1358 -0.4969  0.5174
  137OSM   C12F14966   5.355   1.756   8.017  0.3216  0.3624 -0.1146
  137OSM   H12F14967   5.262   1.769   7.958 -1.3055 -1.0386  1.9887
  137OSM   H12G14968   5.392   1.856   8.049  2.5987 -0.6262  0.5120
  137OSM   C13F14969   5.321   1.692   8.154 -0.0802 -0.2156  0.2068
  137OSM   H13F14970   5.418   1.661   8.200  1.4869  5.3197  1.3446
  137OSM   H13G14971   5.272   1.597   8.123 -1.3589  0.1560  1.0225
  137OSM   C14F14972   5.236   1.775   8.251  0.4425 -0.1182 -1.0357
  137OSM   H14F14973   5.164   1.838   8.194 -0.3505  1.6199  1.7248
  137OSM   H14G14974   5.307   1.848   8.295 -0.4618  0.1015  0.0952
  137OSM   C15F14975   5.161   1.694   8.359 -0.2087  1.0595  0.0085
  137OSM   H15F14976   5.108   1.609   8.311  0.5235 -1.0093  2.6743
  137OSM   H15G14977   5.085   1.751   8.416 -1.9041 -1.9784  0.9569
  137OSM   C16F14978   5.252   1.620   8.461 -0.1196 -0.1633 -0.1212
  137OSM   H16F14979   5.330   1.582   8.392  1.3602  0.5935  1.0783
  137OSM   H16G14980   5.193   1.544   8.516  0.4396 -0.7190 -0.2715
  137OSM   C17F14981   5.309   1.717   8.564 -0.6002  0.4202  0.1983
  137OSM   H17F14982   5.227   1.766   8.621  1.0070  3.0360  0.4225
  137OSM   H17G14983   5.368   1.791   8.506  2.6405 -0.7759  1.7135
  137OSM   C18F14984   5.393   1.650   8.679 -0.0924 -0.5807  0.0204
  137OSM   H18F14985   5.329   1.604   8.757 -0.0404 -0.0433  0.3810
  137OSM   H18G14986   5.450   1.732   8.727 -1.2273 -0.1061  0.6046
  137OSM   H18H14987   5.465   1.571   8.647  1.1664 -0.6524  2.7886
  138OSM      N14988   4.703   3.231   5.969  0.0016 -0.2112 -0.4090
  138OSM    C1514989   4.570   3.188   6.032  0.4946 -0.4256 -0.2538
  138OSM   H15A14990   4.555   3.081   6.020  0.8106 -0.8365  2.2900
  138OSM   H15B14991   4.490   3.237   5.979  0.6225  1.4355  1.1594
  138OSM   H15C14992   4.568   3.209   6.138  1.7348 -0.7991 -0.1360
  138OSM    C1414993   4.689   3.204   5.817  0.4204 -0.1699  0.1031
  138OSM   H14A14994   4.598   3.240   5.771 -0.9864 -2.2413  1.1082
  138OSM   H14B14995   4.688   3.097   5.802  0.6051 -0.2976  0.9242
  138OSM   H14C14996   4.772   3.245   5.761 -1.3765  1.2061 -1.6765
  138OSM    C1314997   4.705   3.379   6.001  0.2417 -0.0549  0.5475
  138OSM   H13A14998   4.797   3.419   5.962 -1.1929  1.5607 -1.4212
  138OSM   H13B14999   4.681   3.406   6.103 -0.3808  0.2236  0.3365
  138OSM   H13C15000   4.625   3.426   5.945 -0.5639 -0.9724  0.8947
  138OSM    C1215001   4.829   3.161   6.031  0.9354 -0.0418  0.5251
  138OSM   H12A15002   4.814   3.057   6.007  1.3606  0.6536 -3.2996
  138OSM   H12B15003   4.837   3.189   6.135 -0.2258  1.2648  0.2831
  138OSM    C1115004   4.965   3.202   5.968  1.3251 -0.5166  0.1853
  138OSM   H11A15005   4.977   3.144   5.874 -2.3976 -1.8101  0.3418
  138OSM   H11B15006   5.043   3.172   6.041  1.3649 -0.3732  0.2016
  138OSM      P15007   5.051   3.438   6.052  0.2165 -0.1075 -0.4262
  138OSM    O1315008   5.202   3.439   6.045  0.1725 -0.1011 -0.3589
  138OSM    O1415009   4.985   3.567   6.038 -0.0810  0.1476 -0.1394
  138OSM    O1115010   5.006   3.369   6.192 -0.3081 -0.4207 -0.3832
  138OSM    O1215011   4.986   3.343   5.937 -0.1791 -0.0542  0.5290
  138OSM    C1S15012   5.105   3.350   6.299 -0.5992 -0.4322  0.0115
  138OSM    H1S15013   5.185   3.427   6.299 -1.7391  0.8912  2.8330
  138OSM    H1T15014   5.157   3.252   6.310 -0.4554 -0.3535  0.0421
  138OSM     NF15015   5.126   3.421   6.527 -0.9179 -0.5824 -0.0929
  138OSM    HNF15016   5.128   3.379   6.617 -1.2837 -0.6140 -0.1003
  138OSM    C2S15017   5.031   3.376   6.430 -0.3080 -0.5586  0.0213
  138OSM    H2S15018   4.960   3.461   6.425 -0.1072 -0.4525 -1.5011
  138OSM    C3S15019   4.950   3.246   6.467  0.9308 -0.3008  0.3218
  138OSM    H3S15020   5.019   3.158   6.463 -2.4259 -3.0995 -1.1186
  138OSM     O315021   4.850   3.208   6.371 -0.1434  0.0100  0.1785
  138OSM    HO315022   4.851   3.278   6.305  1.7639  0.4898  0.6585
  138OSM    C4S15023   4.881   3.247   6.610  0.0674  0.8806  0.3763
  138OSM    H4S15024   4.920   3.183   6.690 -1.8612 -0.4021  0.3639
  138OSM    C5S15025   4.771   3.307   6.644 -0.2292 -0.0314  0.3650
  138OSM    H5S15026   4.719   3.362   6.565  3.0450 -0.0913 -2.0453
  138OSM    C6S15027   4.714   3.295   6.780  0.1952  0.0453  0.2403
  138OSM    H6S15028   4.623   3.360   6.786 -0.4648 -0.5295 -2.3667
  138OSM    H6T15029   4.782   3.350   6.848 -1.3640  0.3294  1.6594
  138OSM    C7S15030   4.691   3.161   6.850 -0.3114  0.3511 -0.4722
  138OSM    H7S15031   4.784   3.100   6.860 -1.5337 -1.5011  0.1165
  138OSM    H7T15032   4.631   3.102   6.778 -1.4080  0.7024  0.1362
  138OSM    C8S15033   4.627   3.173   6.984  0.4311  0.2034  0.3867
  138OSM    H8S15034   4.566   3.080   6.993  4.4557 -3.1333 -2.4111
  138OSM    H8T15035   4.557   3.258   6.995  0.2722  0.3319 -1.3485
  138OSM    C9S15036   4.729   3.166   7.097  0.7881 -0.5378  0.9683
  138OSM    H9S15037   4.783   3.262   7.110  1.1168 -0.5342 -0.2450
  138OSM    H9T15038   4.798   3.080   7.081  2.0634  0.6404 -0.1640
  138OSM   C10S15039   4.666   3.134   7.233 -0.8553  0.0171 -0.3263
  138OSM   H10S15040   4.620   3.033   7.239 -0.9207  0.0423 -0.4060
  138OSM   H10T15041   4.589   3.208   7.264 -2.4291 -2.2086  1.5539
  138OSM   C11S15042   4.763   3.139   7.349  0.0909  0.4248  0.6165
  138OSM   H11S15043   4.805   3.242   7.347 -0.8360  0.7985 -0.4287
  138OSM   H11T15044   4.847   3.066   7.341  0.2998  0.7878 -0.8307
  138OSM   C12S15045   4.682   3.100   7.479 -0.2444  0.0912  0.6531
  138OSM   H12S15046   4.657   2.992   7.476 -0.7697  0.1895 -2.6816
  138OSM   H12T15047   4.587   3.158   7.479  1.0494  2.3250  0.4948
  138OSM   C13S15048   4.762   3.120   7.607  0.3910 -0.5085  0.5999
  138OSM   H13S15049   4.767   3.225   7.641 -0.1999 -1.2133  3.0094
  138OSM   H13T15050   4.865   3.079   7.606  0.2469 -0.8787  0.4076
  138OSM   C14S15051   4.688   3.057   7.726  0.0237 -0.6907 -0.1154
  138OSM   H14S15052   4.623   2.974   7.689 -0.1946  0.1532 -1.7414
  138OSM   H14T15053   4.610   3.121   7.773  0.6039 -0.3253  0.3471
  138OSM   C15S15054   4.787   3.011   7.832 -0.0155 -0.7229 -0.0193
  138OSM   H15S15055   4.824   3.099   7.888  1.1096 -1.4131  0.3780
  138OSM   H15T15056   4.874   2.954   7.792  2.5577  1.5681  1.8704
  138OSM   C16S15057   4.724   2.912   7.927 -0.0055  0.3858  0.0359
  138OSM   H16S15058   4.667   2.831   7.878 -1.8536 -1.6047  4.8586
  138OSM   H16T15059   4.648   2.954   7.996  0.6520 -1.2294  1.8191
  138OSM   C17S15060   4.831   2.852   8.015 -0.2894  0.4634  0.7684
  138OSM   H17S15061   4.895   2.938   8.048  1.1845  0.0663 -0.8554
  138OSM   H17T15062   4.894   2.778   7.960 -0.6784  0.4283  0.3622
  138OSM   C18S15063   4.781   2.771   8.131 -0.1158  0.7337 -0.8032
  138OSM   H18S15064   4.743   2.674   8.092 -1.8404  0.2741  1.7555
  138OSM   H18T15065   4.700   2.825   8.185  0.5906  0.8059  0.2114
  138OSM   H18U15066   4.865   2.749   8.200  1.1288  2.9895 -1.5123
  138OSM    C1F15067   5.204   3.528   6.522  1.1065  1.0339  0.4708
  138OSM     OF15068   5.180   3.612   6.437 -0.1448  0.1966 -0.1094
  138OSM    C2F15069   5.315   3.542   6.622 -0.4646  0.5133 -0.0556
  138OSM    H2F15070   5.404   3.498   6.571  0.1937  3.1908 -1.4057
  138OSM    H2G15071   5.289   3.473   6.706 -1.5800 -0.1009 -0.8820
  138OSM    C3F15072   5.329   3.691   6.658 -0.1859 -0.3504  0.1682
  138OSM    H3F15073   5.229   3.736   6.675  0.0386 -0.0209  0.6276
  138OSM    H3G15074   5.395   3.749   6.590  2.1543 -1.9680  0.9187
  138OSM    C4F15075   5.405   3.710   6.787  0.0072  0.5210  0.0352
  138OSM    H4F15076   5.514   3.709   6.765 -0.0304  2.1577 -0.4233
  138OSM    H4G15077   5.391   3.621   6.851  0.4290  1.1679  1.0571
  138OSM    C5F15078   5.372   3.839   6.855  0.3564 -0.1367 -0.0030
  138OSM    H5F15079   5.262   3.841   6.874  0.6147  1.4359  1.5329
  138OSM    H5G15080   5.396   3.927   6.792  0.7043  0.5926  1.1274
  138OSM    C6F15081   5.456   3.853   6.982 -0.4978 -0.8442  0.2714
  138OSM    H6F15082   5.455   3.960   7.013 -0.9523 -0.4578 -1.0310
  138OSM    H6G15083   5.564   3.835   6.963 -0.2057  0.2851  0.7664
  138OSM    C7F15084   5.396   3.771   7.098  0.8453 -0.6355 -0.6482
  138OSM    H7F15085   5.392   3.663   7.072 -1.7841 -1.5264  2.6139
  138OSM    H7G15086   5.290   3.801   7.107  1.3790  1.4289 -0.9455
  138OSM    C8F15087   5.469   3.790   7.230  0.0418 -0.0964  0.1165
  138OSM    H8F15088   5.456   3.894   7.265 -0.6128 -0.4922  1.1190
  138OSM    H8G15089   5.579   3.781   7.226 -0.0334 -0.5924 -1.2458
  138OSM    C9F15090   5.417   3.695   7.335 -0.3313  0.3754  0.1821
  138OSM    H9F15091   5.410   3.590   7.303 -0.2069  0.2874  0.4412
  138OSM   C10F15092   5.383   3.730   7.460  0.5270  0.1272 -0.0698
  138OSM   H10F15093   5.358   3.647   7.527  0.5219  0.9222  0.9235
  138OSM   C11F15094   5.387   3.866   7.517  1.4972 -0.1325  0.0984
  138OSM   H11F15095   5.289   3.915   7.501  0.4531 -1.9109  0.8383
  138OSM   H11G15096   5.473   3.917   7.468 -0.6014  3.0833 -0.5414
  138OSM   C12F15097   5.402   3.873   7.668  0.7798  0.0336  0.1258
  138OSM   H12F15098   5.414   3.982   7.685 -0.6513  0.2143  0.0656
  138OSM   H12G15099   5.498   3.831   7.705 -0.1957 -0.6531  1.9897
  138OSM   C13F15100   5.276   3.827   7.741 -0.5635 -0.1910 -0.8306
  138OSM   H13F15101   5.278   3.716   7.750 -1.4705 -0.1634 -0.1686
  138OSM   H13G15102   5.183   3.849   7.684 -1.0611 -0.0613  0.0111
  138OSM   C14F15103   5.269   3.891   7.876  0.6054 -0.2930  0.4529
  138OSM   H14F15104   5.174   3.865   7.926  0.5709  0.6227  0.8777
  138OSM   H14G15105   5.272   4.001   7.859  0.5564 -0.5771 -1.7441
  138OSM   C15F15106   5.386   3.870   7.974  0.0810  0.1706 -0.6113
  138OSM   H15F15107   5.473   3.923   7.929 -1.3651  0.6554 -3.0138
  138OSM   H15G15108   5.422   3.767   7.994  0.2062  0.3625  0.2148
  138OSM   C16F15109   5.353   3.933   8.111  0.3470 -0.0816  0.7795
  138OSM   H16F15110   5.252   3.894   8.135  0.3341 -1.7733 -1.6440
  138OSM   H16G15111   5.348   4.043   8.096  2.4657 -0.2668 -2.3013
  138OSM   C17F15112   5.455   3.906   8.216  0.2929  0.2796 -0.3063
  138OSM   H17F15113   5.561   3.920   8.184  0.0953 -1.0469 -1.6924
  138OSM   H17G15114   5.456   3.797   8.233 -0.1144  0.5194  1.4477
  138OSM   C18F15115   5.426   3.981   8.352 -0.1058 -0.0343 -0.2084
  138OSM   H18F15116   5.464   3.942   8.449  2.7710 -1.1960 -1.6835
  138OSM   H18G15117   5.317   4.000   8.364  0.1797  0.3864  2.2878
  138OSM   H18H15118   5.469   4.083   8.344 -0.0288 -0.1665 -1.9766
  139OSM      N15119   4.356   6.655   6.201  0.4195 -0.0821 -0.3273
  139OSM    C1515120   4.491   6.719   6.190  0.3901  0.6502  0.0506
  139OSM   H15A15121   4.569   6.659   6.237 -2.2466 -1.2008  2.3839
  139OSM   H15B15122   4.498   6.817   6.234  2.4801  0.1852  0.8973
  139OSM   H15C15123   4.508   6.736   6.085  0.8816  0.6812  0.1330
  139OSM    C1415124   4.340   6.529   6.117  0.2189  0.0230  0.1043
  139OSM   H14A15125   4.405   6.454   6.160 -1.1916  0.6465  3.6593
  139OSM   H14B15126   4.374   6.555   6.018  2.6310  0.0449  0.8749
  139OSM   H14C15127   4.238   6.493   6.123  0.5793 -0.8640  1.3704
  139OSM    C1315128   4.345   6.606   6.340  0.8764  0.6023 -0.6299
  139OSM   H13A15129   4.437   6.575   6.388 -0.2957  1.0573  2.1255
  139OSM   H13B15130   4.286   6.516   6.347  2.6066 -0.5380  0.0844
  139OSM   H13C15131   4.310   6.680   6.410  0.8000 -0.2551  0.2651
  139OSM    C1215132   4.249   6.754   6.175 -0.2726  0.3941  0.5589
  139OSM   H12A15133   4.279   6.804   6.084  0.6565  0.7643  1.0557
  139OSM   H12B15134   4.255   6.828   6.253 -0.7159  1.6381 -0.5434
  139OSM    C1115135   4.110   6.691   6.154  0.3489  0.0841 -0.1235
  139OSM   H11A15136   4.114   6.628   6.063  0.0659 -1.0823  0.6537
  139OSM   H11B15137   4.047   6.778   6.127 -0.8340 -0.7670 -0.1684
  139OSM      P15138   3.991   6.693   6.393  0.4245 -0.0956 -0.5311
  139OSM    O1315139   3.934   6.824   6.355 -0.1523 -0.3704 -0.4543
  139OSM    O1415140   3.898   6.593   6.457 -0.3498  0.1447  0.0960
  139OSM    O1115141   4.115   6.716   6.488  0.4270  0.4880  0.6668
  139OSM    O1215142   4.055   6.625   6.268 -0.4135 -0.1400  0.0447
  139OSM    C1S15143   4.141   6.840   6.565  0.7847  0.2887  0.3409
  139OSM    H1S15144   4.064   6.915   6.536 -0.2992 -0.8044  0.3342
  139OSM    H1T15145   4.244   6.873   6.537  2.0647 -2.7531  1.1029
  139OSM     NF15146   4.164   6.945   6.778 -0.1653 -0.8342 -0.0607
  139OSM    HNF15147   4.256   6.958   6.815  0.0648  2.6473 -1.5040
  139OSM    C2S15148   4.122   6.818   6.718 -0.1746  0.2523  0.0338
  139OSM    H2S15149   4.016   6.786   6.734  0.9228 -3.9239 -0.0150
  139OSM    C3S15150   4.201   6.695   6.762  0.0720  0.0242  0.8306
  139OSM    H3S15151   4.303   6.703   6.719 -0.5340 -0.4592 -0.7456
  139OSM     O315152   4.163   6.575   6.693  0.8126 -0.0036 -0.1485
  139OSM    HO315153   4.127   6.610   6.611 -1.2425  1.7800  1.4028
  139OSM    C4S15154   4.190   6.674   6.914  0.3462  0.7226 -0.0596
  139OSM    H4S15155   4.263   6.734   6.970  2.1704  0.1230 -1.6983
  139OSM    C5S15156   4.113   6.578   6.975 -0.0272 -0.0568  0.0507
  139OSM    H5S15157   4.063   6.501   6.914 -2.9855  0.2351  1.8848
  139OSM    C6S15158   4.093   6.556   7.120 -0.4343  0.4011 -0.3266
  139OSM    H6S15159   4.107   6.448   7.143  0.2261  0.7989  1.2360
  139OSM    H6T15160   3.989   6.581   7.151  0.2853  0.8144  1.9239
  139OSM    C7S15161   4.176   6.630   7.226  0.0470  0.3272  0.1293
  139OSM    H7S15162   4.154   6.738   7.214  2.6834  0.8271 -0.7859
  139OSM    H7T15163   4.285   6.631   7.205 -0.0001  0.7108 -0.1179
  139OSM    C8S15164   4.149   6.585   7.367  0.7675  0.2544  0.8092
  139OSM    H8S15165   4.189   6.481   7.373  0.2566 -0.1162 -1.2838
  139OSM    H8T15166   4.040   6.585   7.390  0.2011 -0.1359 -1.5767
  139OSM    C9S15167   4.220   6.674   7.476 -1.0595  0.1241 -0.5398
  139OSM    H9S15168   4.182   6.778   7.471  2.5164  1.7231  1.9979
  139OSM    H9T15169   4.328   6.690   7.458 -1.4610  1.9178 -1.6409
  139OSM   C10S15170   4.209   6.618   7.620  0.2300 -0.2894 -0.8407
  139OSM   H10S15171   4.282   6.669   7.687 -2.3151  0.5078  1.5324
  139OSM   H10T15172   4.225   6.509   7.629  0.0827 -0.1643  2.5057
  139OSM   C11S15173   4.075   6.651   7.685 -0.1066  0.3153 -0.2617
  139OSM   H11S15174   4.004   6.576   7.643 -1.0345 -0.2832  2.1903
  139OSM   H11T15175   4.055   6.752   7.645  0.1927 -0.1195 -1.5631
  139OSM   C12S15176   4.059   6.648   7.844 -0.5681 -0.0439 -0.0023
  139OSM   H12S15177   3.956   6.674   7.877 -0.8590 -0.3771 -0.6344
  139OSM   H12T15178   4.117   6.733   7.888 -2.8143  1.2420  0.6499
  139OSM   C13S15179   4.100   6.515   7.894 -0.0918 -0.2660 -0.2488
  139OSM   H13S15180   4.196   6.487   7.847  2.2888 -0.2591  4.0598
  139OSM   H13T15181   4.032   6.436   7.855  0.3225 -0.5541 -0.3858
  139OSM   C14S15182   4.117   6.505   8.047  0.1217  0.1724 -0.0813
  139OSM   H14S15183   4.025   6.539   8.098 -0.2156  1.1997 -1.3046
  139OSM   H14T15184   4.196   6.576   8.078 -0.8552  1.1682  0.1911
  139OSM   C15S15185   4.153   6.367   8.104 -0.0896  0.4559 -0.4872
  139OSM   H15S15186   4.247   6.323   8.065  0.5894 -0.7125  2.2233
  139OSM   H15T15187   4.067   6.300   8.081 -0.6914  0.7220  0.8758
  139OSM   C16S15188   4.169   6.364   8.254 -0.5876  0.2020 -0.6287
  139OSM   H16S15189   4.086   6.421   8.301  1.0994  1.8181  0.5206
  139OSM   H16T15190   4.255   6.428   8.283 -1.6442  0.8426  1.2297
  139OSM   C17S15191   4.177   6.222   8.324  0.4243  0.1271 -0.4205
  139OSM   H17S15192   4.254   6.173   8.261  0.9586  2.6127 -1.8556
  139OSM   H17T15193   4.072   6.187   8.324  0.4255  0.0774 -1.5913
  139OSM   C18S15194   4.224   6.227   8.473  0.1277  0.8381  0.6256
  139OSM   H18S15195   4.165   6.309   8.519 -1.4753  0.4720 -0.7079
  139OSM   H18T15196   4.330   6.260   8.484 -0.3153  1.7338  2.4911
  139OSM   H18U15197   4.215   6.128   8.522  1.0060 -0.2336 -1.2553
  139OSM    C1F15198   4.080   7.046   6.775  0.4100  0.6251  0.4336
  139OSM     OF15199   3.962   7.039   6.726  0.3497  0.2526 -0.4619
  139OSM    C2F15200   4.127   7.174   6.831  0.4738 -0.4222 -0.7571
  139OSM    H2F15201   4.094   7.257   6.765 -1.3685  0.0392  0.6651
  139OSM    H2G15202   4.238   7.180   6.834  0.3901  1.1140 -0.1970
  139OSM    C3F15203   4.065   7.203   6.969  0.7533 -0.0845 -0.8442
  139OSM    H3F15204   3.956   7.184   6.975  0.4666  1.7530  1.0875
  139OSM    H3G15205   4.087   7.306   7.005 -0.2161  0.0887 -0.7242
  139OSM    C4F15206   4.137   7.109   7.073  0.3450  0.6284 -0.5092
  139OSM    H4F15207   4.247   7.106   7.056  0.4734  0.7229  0.2478
  139OSM    H4G15208   4.096   7.006   7.069  1.9524 -0.1706  1.5521
  139OSM    C5F15209   4.124   7.166   7.217 -0.8270 -0.1239 -0.4001
  139OSM    H5F15210   4.027   7.163   7.271  1.9698  2.3046  5.5370
  139OSM    H5G15211   4.157   7.272   7.219 -0.0527 -0.3717  0.4677
  139OSM    C6F15212   4.211   7.089   7.320 -0.1769  0.7872  0.1785
  139OSM    H6F15213   4.316   7.088   7.282 -1.1169  1.9063 -2.7432
  139OSM    H6G15214   4.175   6.988   7.348 -0.2394  0.9685  0.7781
  139OSM    C7F15215   4.212   7.168   7.455 -0.1288  0.5316 -0.3534
  139OSM    H7F15216   4.113   7.177   7.504  0.5906  0.5138  1.1953
  139OSM    H7G15217   4.239   7.270   7.421 -0.5216  1.3993  1.7435
  139OSM    C8F15218   4.303   7.105   7.561 -0.6382 -0.1016  0.2744
  139OSM    H8F15219   4.283   6.995   7.563  1.3889 -0.5398 -0.9063
  139OSM    H8G15220   4.273   7.146   7.660  3.2930  1.4239  1.0047
  139OSM    C9F15221   4.452   7.134   7.535  0.1517  0.3619  0.3859
  139OSM    H9F15222   4.497   7.078   7.452 -0.5324  1.0706 -0.4920
  139OSM   C10F15223   4.534   7.224   7.594 -0.4288  0.0052  1.0162
  139OSM   H10F15224   4.639   7.240   7.565 -0.9262  1.1089 -0.2788
  139OSM   C11F15225   4.502   7.326   7.706 -0.0203 -0.3172  0.3579
  139OSM   H11F15226   4.397   7.315   7.739 -0.3005 -2.1525 -1.0158
  139OSM   H11G15227   4.519   7.426   7.660  0.5059 -0.3462  0.4775
  139OSM   C12F15228   4.588   7.314   7.837 -0.4069 -0.1422 -0.2934
  139OSM   H12F15229   4.549   7.378   7.918  1.5997 -0.0806  0.6603
  139OSM   H12G15230   4.694   7.338   7.814 -0.0760  0.5148  1.7812
  139OSM   C13F15231   4.582   7.170   7.897  0.1752 -0.5560  0.6027
  139OSM   H13F15232   4.629   7.092   7.834 -0.7929  0.1859 -1.1211
  139OSM   H13G15233   4.476   7.142   7.918 -0.3141  1.1120  0.4970
  139OSM   C14F15234   4.661   7.161   8.032 -0.4619 -0.9231 -0.0653
  139OSM   H14F15235   4.611   7.237   8.096  2.6887  1.8587 -0.6377
  139OSM   H14G15236   4.758   7.213   8.017 -0.0764 -1.5896  0.0730
  139OSM   C15F15237   4.680   7.012   8.088  0.4669 -0.3551 -0.5669
  139OSM   H15F15238   4.703   6.953   7.997  0.0025 -0.9422 -0.3046
  139OSM   H15G15239   4.576   6.988   8.119 -0.2869  0.8538 -2.0512
  139OSM   C16F15240   4.786   6.975   8.199  0.3531 -0.2002  0.3496
  139OSM   H16F15241   4.888   7.008   8.168  0.2992 -0.3448  0.0136
  139OSM   H16G15242   4.788   6.870   8.236  0.1180 -0.5299 -0.5366
  139OSM   C17F15243   4.746   7.063   8.321  0.3007  0.3831  0.2998
  139OSM   H17F15244   4.747   7.170   8.295  1.0911 -0.0483 -1.5345
  139OSM   H17G15245   4.835   7.053   8.387  1.1933  1.1981 -0.7587
  139OSM   C18F15246   4.614   7.034   8.392  0.0774  0.1092 -0.2689
  139OSM   H18F15247   4.595   7.102   8.477 -1.6946 -0.7940  0.1187
  139OSM   H18G15248   4.618   6.925   8.417 -1.2752  0.2531  0.6565
  139OSM   H18H15249   4.531   7.057   8.323 -1.0587  2.9716  1.8420
  140OSM      N15250   5.476   0.044   6.194 -0.1493  0.0399 -0.0060
  140OSM    C1515251   5.440  -0.007   6.059 -0.4884 -0.0352  0.1606
  140OSM   H15A15252   5.334   0.002   6.046 -0.4833 -0.1827  0.0117
  140OSM   H15B15253   5.469  -0.109   6.041 -0.3948  0.0964 -0.4579
  140OSM   H15C15254   5.489   0.051   5.982 -0.1466 -0.2281  0.2298
  140OSM    C1415255   5.623   0.045   6.204 -0.4924 -1.1659  0.1492
  140OSM   H14A15256   5.657   0.118   6.276  0.4380  0.2797 -1.6450
  140OSM   H14B15257   5.663   0.085   6.112 -3.3755  2.8189  0.3875
  140OSM   H14C15258   5.675  -0.050   6.199  1.0871 -0.3640  0.6382
  140OSM    C1315259   5.414   0.180   6.207  0.3136  0.5178 -0.4484
  140OSM   H13A15260   5.449   0.205   6.306  2.6580 -1.9839 -0.5370
  140OSM   H13B15261   5.306   0.187   6.211  0.3654  0.9082  0.3369
  140OSM   H13C15262   5.458   0.252   6.140  1.0254  1.1411  0.6715
  140OSM    C1215263   5.427  -0.040   6.311 -0.2463  0.9988  0.8832
  140OSM   H12A15264   5.445   0.016   6.401  1.5294  3.1121 -0.6698
  140OSM   H12B15265   5.481  -0.133   6.320 -1.5356  0.3165  1.8824
  140OSM    C1115266   5.271  -0.078   6.323 -0.1459  0.2025 -0.3023
  140OSM   H11A15267   5.261  -0.170   6.384 -0.2137 -2.0072 -3.4258
  140OSM   H11B15268   5.233  -0.110   6.224  1.0367 -0.7228 -0.4861
  140OSM      P15269   5.218   0.091   6.520  0.0186  0.5145 -0.2456
  140OSM    O1315270   5.356   0.147   6.543  0.0076  0.5474  0.0098
  140OSM    O1415271   5.112   0.189   6.534 -0.0887  0.5317 -0.3983
  140OSM    O1115272   5.192  -0.031   6.618 -0.0888  0.7700  0.4617
  140OSM    O1215273   5.198   0.032   6.372 -0.4404 -0.3554 -0.0872
  140OSM    C1S15274   5.299  -0.111   6.665  0.7869 -0.1673  0.0518
  140OSM    H1S15275   5.400  -0.069   6.642  1.5476 -1.8069  0.2473
  140OSM    H1T15276   5.298  -0.208   6.609  0.0264 -0.9338  1.3540
  140OSM     NF15277   5.390  -0.226   6.863 -0.6731 -0.3800  0.3391
  140OSM    HNF15278   5.363  -0.323   6.863 -1.5528 -0.1463  0.5397
  140OSM    C2S15279   5.275  -0.144   6.812 -0.5933 -0.3690 -0.0264
  140OSM    H2S15280   5.275  -0.042   6.855  1.3788  0.8486 -2.6447
  140OSM    C3S15281   5.135  -0.222   6.845  1.1991  1.1611  0.0856
  140OSM    H3S15282   5.139  -0.317   6.788 -1.5169  1.9741 -1.6577
  140OSM     O315283   5.021  -0.159   6.790 -0.2910  0.0506  0.5284
  140OSM    HO315284   5.062  -0.096   6.731  0.1622  0.6294  1.4244
  140OSM    C4S15285   5.101  -0.230   6.991  1.1579 -0.3198 -0.1259
  140OSM    H4S15286   5.048  -0.143   7.033  0.9846 -0.8636  0.7916
  140OSM    C5S15287   5.135  -0.323   7.081 -0.1085  0.3352 -0.4275
  140OSM    H5S15288   5.200  -0.407   7.052  0.0192  0.5363 -0.7261
  140OSM    C6S15289   5.100  -0.322   7.227 -0.2099 -0.0481  0.2379
  140OSM    H6S15290   4.996  -0.358   7.243 -0.5297  1.1389  0.9765
  140OSM    H6T15291   5.102  -0.219   7.268  2.0887  0.8757 -1.9636
  140OSM    C7S15292   5.190  -0.410   7.306 -0.7632 -0.6179 -0.7376
  140OSM    H7S15293   5.290  -0.409   7.257 -1.1265 -2.7157 -1.6400
  140OSM    H7T15294   5.156  -0.516   7.305  0.5029 -1.1472  1.7851
  140OSM    C8S15295   5.230  -0.371   7.444  0.2569 -0.3055 -0.5979
  140OSM    H8S15296   5.208  -0.262   7.454 -1.4288 -0.5484 -1.3823
  140OSM    H8T15297   5.337  -0.394   7.462 -0.2702 -2.6991 -0.2919
  140OSM    C9S15298   5.157  -0.460   7.552  0.7971  0.2657 -0.0577
  140OSM    H9S15299   5.222  -0.460   7.643  0.6851  1.2312  0.0328
  140OSM    H9T15300   5.148  -0.565   7.518 -4.2347  0.6310 -0.6558
  140OSM   C10S15301   5.021  -0.403   7.593 -0.4266 -0.7770  0.2888
  140OSM   H10S15302   4.948  -0.397   7.509  0.3422 -0.3594 -0.3651
  140OSM   H10T15303   5.035  -0.297   7.624  0.4529 -0.2832 -1.6282
  140OSM   C11S15304   4.956  -0.480   7.718  0.2389 -0.6092  0.2657
  140OSM   H11S15305   4.918  -0.576   7.676 -0.6143 -1.0471  1.9704
  140OSM   H11T15306   4.867  -0.422   7.751 -0.4145 -1.4093 -0.0513
  140OSM   C12S15307   5.047  -0.506   7.835  0.7936 -0.2785 -0.2466
  140OSM   H12S15308   5.107  -0.415   7.854  0.6403  0.0463 -1.2975
  140OSM   H12T15309   5.124  -0.585   7.821  0.6756 -0.4672  0.1399
  140OSM   C13S15310   4.958  -0.545   7.953  0.0705 -0.1941  0.3507
  140OSM   H13S15311   4.913  -0.642   7.924 -1.3023  0.7828 -0.9024
  140OSM   H13T15312   4.882  -0.466   7.970  0.6633  0.0923  1.8828
  140OSM   C14S15313   5.030  -0.574   8.083  0.2518  0.1625 -0.5783
  140OSM   H14S15314   5.135  -0.605   8.062  0.3632  0.1440 -0.0006
  140OSM   H14T15315   4.990  -0.670   8.123  1.6426 -0.3124 -0.2627
  140OSM   C15S15316   5.034  -0.446   8.172  0.6213 -0.5758 -0.9657
  140OSM   H15S15317   4.930  -0.417   8.198  1.8604  1.7599  1.8558
  140OSM   H15T15318   5.080  -0.365   8.111 -2.0745 -0.1642 -2.6748
  140OSM   C16S15319   5.118  -0.459   8.297  0.1666 -0.1062 -0.3214
  140OSM   H16S15320   5.212  -0.516   8.275  1.2181  1.0720  0.9361
  140OSM   H16T15321   5.058  -0.515   8.372  0.8636 -0.1877  0.1879
  140OSM   C17S15322   5.162  -0.326   8.368 -0.3259  0.0877  0.8889
  140OSM   H17S15323   5.243  -0.283   8.305 -1.3773  0.5998 -0.1630
  140OSM   H17T15324   5.208  -0.357   8.464  1.2025 -0.3442  0.0555
  140OSM   C18S15325   5.059  -0.217   8.385  1.0638 -0.9014  0.3416
  140OSM   H18S15326   5.012  -0.185   8.290  0.6497  2.7255  1.6156
  140OSM   H18T15327   5.104  -0.136   8.446  2.3733 -2.4504  1.5290
  140OSM   H18U15328   4.974  -0.269   8.435  0.4138 -1.3125 -1.1343
  140OSM    C1F15329   5.513  -0.181   6.887 -0.1032 -0.2553  0.1111
  140OSM     OF15330   5.533  -0.060   6.881 -0.2465  0.4111 -0.1656
  140OSM    C2F15331   5.621  -0.284   6.925  0.2382 -0.1622  0.6593
  140OSM    H2F15332   5.695  -0.295   6.843  1.5616  0.9532  1.6500
  140OSM    H2G15333   5.561  -0.376   6.939 -0.1097  0.0136  0.3525
  140OSM    C3F15334   5.691  -0.253   7.056  0.0001  0.2635  0.5703
  140OSM    H3F15335   5.717  -0.145   7.048 -1.0685  0.5731  1.0902
  140OSM    H3G15336   5.781  -0.317   7.068 -2.1931 -3.5771 -1.5444
  140OSM    C4F15337   5.608  -0.267   7.177 -0.2761  0.0382 -0.2431
  140OSM    H4F15338   5.595  -0.374   7.204 -0.2878  0.2588  0.6734
  140OSM    H4G15339   5.511  -0.220   7.151  0.9456  1.8981 -1.7186
  140OSM    C5F15340   5.658  -0.188   7.304  0.2944 -0.5503  0.1023
  140OSM    H5F15341   5.574  -0.189   7.377 -1.3959 -1.4467 -1.7802
  140OSM    H5G15342   5.656  -0.082   7.271 -1.9914 -0.6205 -0.1350
  140OSM    C6F15343   5.790  -0.230   7.375 -0.0210  0.3964  0.9167
  140OSM    H6F15344   5.867  -0.258   7.301 -2.2355 -2.1351 -0.6075
  140OSM    H6G15345   5.771  -0.325   7.429 -1.1595 -0.0517 -0.2255
  140OSM    C7F15346   5.852  -0.115   7.464 -0.0910  0.3399  0.0280
  140OSM    H7F15347   5.835  -0.022   7.406  3.2586  0.1582 -1.4883
  140OSM    H7G15348   5.958  -0.147   7.473 -0.2650 -0.2923 -0.1258
  140OSM    C8F15349   5.784  -0.107   7.608  0.2687  1.0659  0.0771
  140OSM    H8F15350   5.675  -0.115   7.586  0.4615 -0.0852 -0.5693
  140OSM    H8G15351   5.801  -0.004   7.647  1.3876  0.5077  1.1141
  140OSM    C9F15352   5.847  -0.195   7.716 -0.0992 -0.1167 -0.2398
  140OSM    H9F15353   5.954  -0.177   7.733 -0.5324  2.2362  0.3752
  140OSM   C10F15354   5.781  -0.285   7.787 -0.2246  0.3616 -0.8811
  140OSM   H10F15355   5.827  -0.332   7.876 -0.2520  1.8970 -0.0307
  140OSM   C11F15356   5.627  -0.314   7.794 -0.2798  1.0155 -0.1632
  140OSM   H11F15357   5.608  -0.418   7.760 -1.4358  0.1140  2.8402
  140OSM   H11G15358   5.579  -0.246   7.721  1.1575  1.6404 -0.5531
  140OSM   C12F15359   5.545  -0.287   7.926 -0.9124 -0.4966 -0.0698
  140OSM   H12F15360   5.437  -0.286   7.898 -0.7686  1.6094 -0.6895
  140OSM   H12G15361   5.577  -0.187   7.962  1.6173 -0.6712 -1.5489
  140OSM   C13F15362   5.580  -0.392   8.037  0.5997 -0.3184 -0.0469
  140OSM   H13F15363   5.689  -0.385   8.058  0.5613 -0.4443  0.1994
  140OSM   H13G15364   5.552  -0.496   8.009 -1.5848 -0.8896  3.5712
  140OSM   C14F15365   5.511  -0.364   8.163 -0.0266 -0.7266  0.9909
  140OSM   H14F15366   5.405  -0.354   8.131  0.4834  1.0917 -0.2462
  140OSM   H14G15367   5.551  -0.268   8.200  1.2827 -0.6160 -0.5974
  140OSM   C15F15368   5.528  -0.459   8.282  0.4297 -0.5963  0.0597
  140OSM   H15F15369   5.465  -0.550   8.273 -1.0173  0.2423  1.3027
  140OSM   H15G15370   5.486  -0.403   8.367 -0.1770  3.0721 -2.4127
  140OSM   C16F15371   5.665  -0.511   8.326  0.2021  0.8380  0.1131
  140OSM   H16F15372   5.714  -0.413   8.345 -0.0956  0.7104  1.6322
  140OSM   H16G15373   5.717  -0.556   8.238 -0.9256  0.5357 -0.4165
  140OSM   C17F15374   5.676  -0.589   8.449  0.5244 -0.5694 -0.1390
  140OSM   H17F15375   5.625  -0.687   8.439 -1.4406  0.4220 -0.4500
  140OSM   H17G15376   5.627  -0.530   8.530  1.1540 -0.8924  0.4928
  140OSM   C18F15377   5.822  -0.609   8.507 -0.4997 -0.0462  0.2439
  140OSM   H18F15378   5.811  -0.671   8.599 -2.4050 -2.0567 -1.2276
  140OSM   H18G15379   5.878  -0.515   8.524 -0.8305  0.4299 -1.2090
  140OSM   H18H15380   5.882  -0.668   8.434  0.9891 -0.0286  1.4014
  141OSM      N15381   3.735   3.564   5.925 -0.7960  0.0227 -0.1886
  141OSM    C1515382   3.842   3.621   5.844 -0.1058  0.0974 -0.2990
  141OSM   H15A15383   3.879   3.716   5.881  3.6102 -1.2147 -0.2198
  141OSM   H15B15384   3.808   3.643   5.744 -3.2869 -2.6814  0.0120
  141OSM   H15C15385   3.928   3.556   5.852 -0.2944 -0.5372 -2.8288
  141OSM    C1415386   3.612   3.639   5.908  1.0868  0.2948 -0.2854
  141OSM   H14A15387   3.540   3.608   5.982  0.1338  0.3995 -1.1432
  141OSM   H14B15388   3.566   3.619   5.812  0.1770  0.7564  0.0456
  141OSM   H14C15389   3.633   3.745   5.914  0.3194  0.5019 -1.1183
  141OSM    C1315390   3.720   3.420   5.895  0.2402 -0.1519 -0.2608
  141OSM   H13A15391   3.657   3.376   5.971 -1.2664  1.5308 -0.4746
  141OSM   H13B15392   3.812   3.363   5.893  0.1341 -0.4330  1.3679
  141OSM   H13C15393   3.662   3.410   5.805 -2.7683  0.2346  1.4939
  141OSM    C1215394   3.775   3.579   6.076  0.2871 -0.0728  0.0867
  141OSM   H12A15395   3.777   3.684   6.104  0.4113  0.4327 -1.6564
  141OSM   H12B15396   3.876   3.542   6.085  0.0616 -0.7067  0.0266
  141OSM    C1115397   3.708   3.508   6.193  0.0947  0.5984 -0.0623
  141OSM   H11A15398   3.744   3.556   6.287  1.3565  2.0912 -1.2428
  141OSM   H11B15399   3.740   3.402   6.190  0.2769  0.6328  0.5014
  141OSM      P15400   3.467   3.403   6.234 -0.5033  0.2446 -0.2774
  141OSM    O1315401   3.335   3.463   6.215 -0.2873 -0.4210 -0.5604
  141OSM    O1415402   3.491   3.284   6.152 -0.4494 -0.4513 -0.4312
  141OSM    O1115403   3.506   3.354   6.384  0.8203 -0.0378  0.1378
  141OSM    O1215404   3.568   3.521   6.194  0.5012  0.0934 -0.7514
  141OSM    C1S15405   3.549   3.444   6.482 -0.7261 -0.0042  0.0834
  141OSM    H1S15406   3.487   3.536   6.479  1.4547  1.5378  0.0000
  141OSM    H1T15407   3.656   3.474   6.473 -0.8246 -0.0385 -1.4364
  141OSM     NF15408   3.553   3.509   6.721 -0.0101 -0.4928 -0.1561
  141OSM    HNF15409   3.643   3.533   6.758  1.1655  0.3528 -3.2409
  141OSM    C2S15410   3.541   3.396   6.630 -0.4095 -0.3880 -0.1249
  141OSM    H2S15411   3.439   3.350   6.633 -0.6099 -0.0119 -0.9668
  141OSM    C3S15412   3.655   3.287   6.637  0.9116  0.3098  0.1765
  141OSM    H3S15413   3.749   3.346   6.638  1.7266 -0.9599  1.9489
  141OSM     O315414   3.660   3.197   6.524  0.2364  0.8468  0.0085
  141OSM    HO315415   3.605   3.237   6.456  0.0803 -1.5963 -1.4198
  141OSM    C4S15416   3.648   3.208   6.765 -0.4088 -0.6926  0.2435
  141OSM    H4S15417   3.580   3.121   6.762 -1.3788 -0.0262  1.5290
  141OSM    C5S15418   3.729   3.234   6.870 -0.6642  0.2867  0.5369
  141OSM    H5S15419   3.808   3.310   6.863  0.3417 -0.7297  0.6518
  141OSM    C6S15420   3.727   3.144   6.988 -0.1922  0.3106 -0.2878
  141OSM    H6S15421   3.815   3.078   6.967 -1.0082 -0.1338 -2.6038
  141OSM    H6T15422   3.630   3.091   6.996 -0.6393  0.9912 -1.0996
  141OSM    C7S15423   3.761   3.219   7.119  0.0300 -0.1887  0.1460
  141OSM    H7S15424   3.667   3.277   7.129  0.3392  0.2155  0.7646
  141OSM    H7T15425   3.847   3.287   7.103 -2.0209  2.7349  0.7979
  141OSM    C8S15426   3.780   3.116   7.233  0.5036 -0.0968 -0.4585
  141OSM    H8S15427   3.871   3.056   7.208  0.0314 -0.0955 -2.3392
  141OSM    H8T15428   3.691   3.050   7.240 -0.2306  0.8874 -0.3751
  141OSM    C9S15429   3.795   3.188   7.370  0.5846 -0.9478 -0.1070
  141OSM    H9S15430   3.712   3.256   7.399  1.0175 -0.2397 -0.5081
  141OSM    H9T15431   3.877   3.262   7.357  0.5769 -0.6768  1.2480
  141OSM   C10S15432   3.843   3.087   7.479  0.4747 -0.8909  0.4869
  141OSM   H10S15433   3.935   3.040   7.438  0.1400 -0.4063 -0.8819
  141OSM   H10T15434   3.774   3.000   7.474  0.1876 -0.6161 -1.1221
  141OSM   C11S15435   3.865   3.142   7.621  0.2169  0.1628 -0.0089
  141OSM   H11S15436   3.782   3.215   7.634  0.2727  0.4943 -1.4215
  141OSM   H11T15437   3.964   3.191   7.627 -0.4886  1.6711 -0.3048
  141OSM   C12S15438   3.845   3.029   7.719  0.0845  0.8209  0.0859
  141OSM   H12S15439   3.892   2.932   7.692  1.4458  1.8634 -1.4755
  141OSM   H12T15440   3.738   2.999   7.728  1.1367 -3.1247  1.3702
  141OSM   C13S15441   3.899   3.068   7.855 -0.4397  0.7067 -0.9750
  141OSM   H13S15442   3.838   3.155   7.886 -0.4745  0.5211 -0.5208
  141OSM   H13T15443   4.005   3.097   7.843  0.3801 -2.7280 -3.7483
  141OSM   C14S15444   3.885   2.954   7.958  0.0830  0.5994 -0.0395
  141OSM   H14S15445   3.938   2.858   7.938  1.3040  0.6582  2.4815
  141OSM   H14T15446   3.782   2.914   7.966  0.5434 -0.2807  2.4094
  141OSM   C15S15447   3.922   2.987   8.113 -0.8943 -0.0581 -0.1797
  141OSM   H15S15448   3.840   3.039   8.166  0.2518  0.7762  0.8306
  141OSM   H15T15449   4.014   3.050   8.110 -0.6375 -0.4404 -0.4387
  141OSM   C16S15450   3.944   2.856   8.186  0.0692 -0.0489 -0.6268
  141OSM   H16S15451   4.026   2.788   8.155  0.0742 -0.9358  1.1904
  141OSM   H16T15452   3.852   2.793   8.177 -0.3597  0.3223  0.8312
  141OSM   C17S15453   3.950   2.872   8.339  0.0597  0.2314 -0.8304
  141OSM   H17S15454   3.936   2.777   8.395 -0.1323 -0.0870 -1.4148
  141OSM   H17T15455   3.857   2.931   8.354 -1.9270 -2.9113  0.1870
  141OSM   C18S15456   4.072   2.949   8.392  0.4746  0.2375 -0.0696
  141OSM   H18S15457   4.081   3.039   8.327  1.0981 -0.2062 -0.6151
  141OSM   H18T15458   4.163   2.887   8.376  0.3360 -0.6103  2.0884
  141OSM   H18U15459   4.067   2.965   8.502  0.8512 -0.4081  0.0486
  141OSM    C1F15460   3.448   3.593   6.742  0.0890 -0.3936  0.0080
  141OSM     OF15461   3.346   3.583   6.673  0.3513  0.2236  0.1428
  141OSM    C2F15462   3.482   3.704   6.834  0.1528 -0.3401 -0.1440
  141OSM    H2F15463   3.436   3.799   6.797  0.0692 -0.2456  0.1952
  141OSM    H2G15464   3.592   3.707   6.849 -0.0118 -0.4870  1.1570
  141OSM    C3F15465   3.410   3.681   6.975 -0.0118 -0.6770  0.6114
  141OSM    H3F15466   3.301   3.664   6.964 -0.3997  1.1559  1.3084
  141OSM    H3G15467   3.435   3.771   7.036  1.9798 -1.0809  0.4580
  141OSM    C4F15468   3.477   3.575   7.061  0.3166  0.5963 -0.1707
  141OSM    H4F15469   3.584   3.599   7.079  0.2207  0.8854  0.0235
  141OSM    H4G15470   3.479   3.475   7.013  0.6263  1.5689 -2.3209
  141OSM    C5F15471   3.414   3.571   7.202 -0.3758  0.5301 -1.1068
  141OSM    H5F15472   3.315   3.521   7.189  0.3167 -1.5068  0.7305
  141OSM    H5G15473   3.397   3.674   7.238  1.9589  0.7653 -0.4753
  141OSM    C6F15474   3.503   3.504   7.305  0.5025 -0.3477 -0.0140
  141OSM    H6F15475   3.599   3.560   7.310 -0.0848  0.6375  0.4723
  141OSM    H6G15476   3.539   3.401   7.280 -0.0933 -0.2985 -1.0842
  141OSM    C7F15477   3.457   3.527   7.447  0.4580 -0.1351 -0.0059
  141OSM    H7F15478   3.358   3.488   7.478  0.3544  2.1708  3.0796
  141OSM    H7G15479   3.442   3.636   7.459 -0.5561  0.0264 -2.4042
  141OSM    C8F15480   3.563   3.478   7.552 -0.4127 -0.2190 -0.1694
  141OSM    H8F15481   3.664   3.493   7.509  0.1466 -0.3612  1.0524
  141OSM    H8G15482   3.534   3.373   7.570 -0.0869 -0.3029 -0.1311
  141OSM    C9F15483   3.566   3.561   7.676  0.3290 -0.0360 -0.3952
  141OSM    H9F15484   3.618   3.658   7.666 -3.4018  2.3218  1.1475
  141OSM   C10F15485   3.518   3.533   7.800  0.0384 -0.3038  0.2423
  141OSM   H10F15486   3.525   3.613   7.874  0.4550  0.3726 -0.5128
  141OSM   C11F15487   3.450   3.406   7.848  0.5926  0.3314  0.3196
  141OSM   H11F15488   3.415   3.350   7.759 -1.3401  1.4894  0.2865
  141OSM   H11G15489   3.366   3.433   7.916 -0.2884 -0.6433 -0.3446
  141OSM   C12F15490   3.542   3.317   7.915 -0.6418  0.7625  0.1125
  141OSM   H12F15491   3.628   3.297   7.847 -1.0258 -0.5432 -0.0314
  141OSM   H12G15492   3.501   3.213   7.917  0.0103  0.4871 -0.2636
  141OSM   C13F15493   3.569   3.359   8.057 -0.1349 -0.2392 -0.3581
  141OSM   H13F15494   3.473   3.388   8.104 -0.5114  1.2337 -1.8995
  141OSM   H13G15495   3.642   3.443   8.062  0.2822 -0.6240 -0.0561
  141OSM   C14F15496   3.642   3.252   8.149  0.7886  0.5677  0.2044
  141OSM   H14F15497   3.744   3.220   8.120 -0.1562 -2.2622 -0.3528
  141OSM   H14G15498   3.575   3.163   8.153  1.2584  0.1953 -0.0056
  141OSM   C15F15499   3.653   3.314   8.289  0.2225 -0.5046  0.2164
  141OSM   H15F15500   3.555   3.355   8.323  0.7101 -0.7210  1.9607
  141OSM   H15G15501   3.732   3.392   8.283 -0.6457  0.3821 -0.2108
  141OSM   C16F15502   3.710   3.221   8.397  0.4449  0.5179  0.4737
  141OSM   H16F15503   3.805   3.177   8.360  1.2040  1.9063  0.6726
  141OSM   H16G15504   3.638   3.137   8.408  0.3008  0.5167 -0.4109
  141OSM   C17F15505   3.722   3.275   8.543  0.3226  0.3719  0.0724
  141OSM   H17F15506   3.627   3.332   8.554 -0.7819 -1.0856 -1.3153
  141OSM   H17G15507   3.807   3.346   8.538 -1.4546  3.0162  3.3387
  141OSM   C18F15508   3.746   3.167   8.655 -0.7149  0.6032  0.8369
  141OSM   H18F15509   3.777   3.208   8.754 -1.2055  0.6930  0.9557
  141OSM   H18G15510   3.832   3.109   8.617 -1.2134 -0.9560  1.9659
  141OSM   H18H15511   3.660   3.097   8.662 -1.1085  0.0076 -5.1902
  142OSM      N15512   4.734   4.429   6.124 -0.1875 -0.1837  0.2223
  142OSM    C1515513   4.767   4.297   6.061  0.0182  0.7413  0.1285
  142OSM   H15A15514   4.733   4.217   6.126  0.3417  0.8538  0.4409
  142OSM   H15B15515   4.871   4.292   6.035 -0.1703  0.9692 -0.6985
  142OSM   H15C15516   4.710   4.284   5.970  0.5535 -1.7764  0.0797
  142OSM    C1415517   4.748   4.537   6.017 -0.3122 -0.5455 -0.4917
  142OSM   H14A15518   4.703   4.631   6.044  2.6682  1.6975 -2.6796
  142OSM   H14B15519   4.706   4.512   5.921  1.8060 -0.3777 -1.5144
  142OSM   H14C15520   4.847   4.567   5.988  0.1581 -1.1557  0.4394
  142OSM    C1315521   4.587   4.421   6.164 -1.1922 -0.0624  0.5385
  142OSM   H13A15522   4.576   4.357   6.251 -1.2808 -2.7029 -1.2857
  142OSM   H13B15523   4.521   4.384   6.087 -0.2675  0.5836 -0.5853
  142OSM   H13C15524   4.545   4.518   6.185  1.2193  1.2006 -0.1492
  142OSM    C1215525   4.812   4.448   6.251 -0.2447  0.0969  0.0284
  142OSM   H12A15526   4.917   4.438   6.228 -0.4143 -0.2527 -0.6180
  142OSM   H12B15527   4.799   4.358   6.309 -0.5862  2.5377  4.1249
  142OSM    C1115528   4.797   4.573   6.337  0.2134  0.7653  0.1651
  142OSM   H11A15529   4.867   4.572   6.423 -0.0665  3.3429  0.4924
  142OSM   H11B15530   4.695   4.584   6.379  0.5090  2.9753  0.4425
  142OSM      P15531   4.705   4.799   6.232 -0.1326  0.5744  0.2264
  142OSM    O1315532   4.766   4.910   6.157 -0.1676  0.4682 -0.2541
  142OSM    O1415533   4.590   4.735   6.164  0.2077 -0.0865 -0.3596
  142OSM    O1115534   4.655   4.851   6.376  0.2416 -0.3128  0.6157
  142OSM    O1215535   4.823   4.689   6.261  0.6322 -0.4054  0.0137
  142OSM    C1S15536   4.739   4.853   6.490 -0.4771 -0.1398 -0.6061
  142OSM    H1S15537   4.800   4.943   6.470  1.2700 -1.4555 -1.4983
  142OSM    H1T15538   4.810   4.768   6.508  1.1903  1.3717  0.2798
  142OSM     NF15539   4.745   4.935   6.724  0.4038 -0.4151 -0.2033
  142OSM    HNF15540   4.783   4.878   6.796 -0.4077 -0.3547  0.2819
  142OSM    C2S15541   4.657   4.871   6.624  0.0424  0.3300  0.1938
  142OSM    H2S15542   4.574   4.936   6.590 -1.5551 -2.6991 -2.1597
  142OSM    C3S15543   4.590   4.738   6.669 -0.7071 -0.2430  0.2538
  142OSM    H3S15544   4.669   4.662   6.686  0.1563 -0.0154 -2.4106
  142OSM     O315545   4.501   4.684   6.574 -0.0164  0.3147  0.7051
  142OSM    HO315546   4.517   4.730   6.491  0.8547 -1.0217  0.0838
  142OSM    C4S15547   4.517   4.758   6.800 -0.2145 -0.1453  0.4563
  142OSM    H4S15548   4.578   4.714   6.880 -1.3964 -1.5421  0.6371
  142OSM    C5S15549   4.390   4.794   6.835 -0.4215  0.1042 -0.8341
  142OSM    H5S15550   4.310   4.810   6.762 -2.2373  1.1620  1.2597
  142OSM    C6S15551   4.347   4.800   6.980  0.1533 -0.3656  0.6227
  142OSM    H6S15552   4.252   4.857   6.974  1.8638  2.8752  1.5302
  142OSM    H6T15553   4.424   4.854   7.040  0.3934  0.6221 -0.5387
  142OSM    C7S15554   4.317   4.670   7.052  0.7352  0.2153 -0.3845
  142OSM    H7S15555   4.402   4.600   7.037  0.9476  0.9808 -3.6971
  142OSM    H7T15556   4.235   4.621   6.995  0.8598 -1.5838  0.9012
  142OSM    C8S15557   4.267   4.683   7.197  0.3372  0.6144  0.4716
  142OSM    H8S15558   4.176   4.745   7.212  0.3711  0.3022  2.1651
  142OSM    H8T15559   4.338   4.734   7.265  0.4768  2.5015 -1.0096
  142OSM    C9S15560   4.227   4.544   7.245  0.1879  0.5692 -0.5151
  142OSM    H9S15561   4.308   4.471   7.229 -2.5056 -2.2386 -2.5613
  142OSM    H9T15562   4.137   4.508   7.190  0.2472 -1.0424  0.3872
  142OSM   C10S15563   4.186   4.539   7.395  0.3445 -0.2295  0.3731
  142OSM   H10S15564   4.173   4.433   7.423 -0.4657 -0.1921  0.1850
  142OSM   H10T15565   4.090   4.592   7.416 -0.0085  0.0712 -1.7894
  142OSM   C11S15566   4.299   4.594   7.487  0.0762 -0.0009  0.8222
  142OSM   H11S15567   4.288   4.705   7.492 -1.5984 -0.1397  0.7283
  142OSM   H11T15568   4.399   4.569   7.446 -1.7861 -3.1133 -2.3941
  142OSM   C12S15569   4.300   4.530   7.626  0.5272 -0.7218 -0.1615
  142OSM   H12S15570   4.406   4.535   7.657  1.4645 -2.4933 -2.7553
  142OSM   H12T15571   4.266   4.425   7.617 -3.4125  0.2654  1.1487
  142OSM   C13S15572   4.208   4.615   7.717  0.1319  0.0191  0.0568
  142OSM   H13S15573   4.113   4.613   7.660  0.2244 -3.1582 -0.1423
  142OSM   H13T15574   4.244   4.720   7.720  0.4225 -0.0624 -0.5057
  142OSM   C14S15575   4.195   4.552   7.855 -0.5956 -0.4421  0.3593
  142OSM   H14S15576   4.175   4.443   7.849  0.3986 -0.7514  2.0243
  142OSM   H14T15577   4.112   4.608   7.904  1.1801  2.7746 -0.0859
  142OSM   C15S15578   4.328   4.578   7.934  0.2066  0.9529 -0.2171
  142OSM   H15S15579   4.364   4.680   7.910 -0.7237  1.0210 -1.4256
  142OSM   H15T15580   4.416   4.526   7.893 -1.6173  1.3860 -5.4836
  142OSM   C16S15581   4.309   4.560   8.089  0.2108 -0.1120  0.6367
  142OSM   H16S15582   4.206   4.594   8.113  0.1779  0.3476 -0.1217
  142OSM   H16T15583   4.388   4.627   8.130  1.3348 -0.0492 -1.4813
  142OSM   C17S15584   4.342   4.425   8.150 -0.6693  0.5968  0.0379
  142OSM   H17S15585   4.427   4.384   8.093 -0.0974  3.0376 -0.9963
  142OSM   H17T15586   4.257   4.355   8.138  1.8545 -2.5463 -0.8229
  142OSM   C18S15587   4.381   4.423   8.300 -0.1800 -0.2621 -0.6384
  142OSM   H18S15588   4.465   4.493   8.322 -1.3691  1.8190 -2.2866
  142OSM   H18T15589   4.412   4.324   8.338 -1.8209  0.2160  2.3066
  142OSM   H18U15590   4.289   4.453   8.355  0.8532  2.0827 -0.0425
  142OSM    C1F15591   4.774   5.067   6.714  0.1431  0.0683 -0.6769
  142OSM     OF15592   4.759   5.137   6.616 -0.2379 -0.5649  0.6953
  142OSM    C2F15593   4.838   5.129   6.835  0.1562 -0.5742 -0.2679
  142OSM    H2F15594   4.779   5.083   6.918 -0.6059  1.3807  0.3384
  142OSM    H2G15595   4.818   5.238   6.840 -0.5652 -0.6889 -0.4816
  142OSM    C3F15596   4.990   5.100   6.847 -0.2516  0.4362  0.8477
  142OSM    H3F15597   5.023   5.146   6.751 -3.1343  0.0651 -0.4196
  142OSM    H3G15598   5.006   4.991   6.833  0.9543  0.8783 -1.8624
  142OSM    C4F15599   5.051   5.138   6.978 -0.8310 -0.1809 -0.0893
  142OSM    H4F15600   4.979   5.093   7.050 -1.5338  4.2099  2.3109
  142OSM    H4G15601   5.049   5.248   6.994 -1.4488 -0.3977  1.4970
  142OSM    C5F15602   5.199   5.082   7.004  0.7407  0.0827  0.1713
  142OSM    H5F15603   5.273   5.125   6.934  0.0550 -0.5734 -0.9952
  142OSM    H5G15604   5.196   4.973   6.979  2.2359  0.0062  0.2773
  142OSM    C6F15605   5.245   5.089   7.150 -0.4122 -0.5636 -0.5374
  142OSM    H6F15606   5.179   5.030   7.217 -1.6180 -1.5018 -2.4479
  142OSM    H6G15607   5.253   5.195   7.182  0.2742 -0.7041 -0.2317
  142OSM    C7F15608   5.390   5.039   7.161  0.7314 -0.4528  0.7035
  142OSM    H7F15609   5.454   5.065   7.073 -0.3575  1.4881  0.4294
  142OSM    H7G15610   5.382   4.929   7.152  3.9456 -0.7515  0.2128
  142OSM    C8F15611   5.461   5.071   7.296  0.0510  0.0119 -0.3389
  142OSM    H8F15612   5.442   5.180   7.299 -1.0406 -0.1512 -0.7175
  142OSM    H8G15613   5.570   5.055   7.291 -0.0414 -0.2954 -3.2387
  142OSM    C9F15614   5.399   4.986   7.401  0.0524 -0.4842 -0.7427
  142OSM    H9F15615   5.348   4.894   7.368 -1.4515  0.0127  0.1083
  142OSM   C10F15616   5.388   5.026   7.533  0.0125 -0.3565  0.6775
  142OSM   H10F15617   5.335   4.958   7.601 -3.0491  1.1605 -0.0201
  142OSM   C11F15618   5.443   5.156   7.596  0.7099 -0.8210  0.0265
  142OSM   H11F15619   5.362   5.210   7.650  1.2607 -0.7736  0.8315
  142OSM   H11G15620   5.498   5.218   7.522  2.3298 -0.4197  1.4989
  142OSM   C12F15621   5.539   5.132   7.714 -0.5499 -0.1064  0.4008
  142OSM   H12F15622   5.575   5.230   7.754  0.9341 -0.2765 -0.4351
  142OSM   H12G15623   5.632   5.076   7.690  0.2217  0.1548  2.5432
  142OSM   C13F15624   5.471   5.058   7.836  0.2650  0.4057 -0.0198
  142OSM   H13F15625   5.435   4.962   7.794  2.0071 -0.6911  0.8660
  142OSM   H13G15626   5.383   5.121   7.860 -0.2145  0.2071 -1.2120
  142OSM   C14F15627   5.560   5.021   7.956  0.0217 -0.2961 -0.3608
  142OSM   H14F15628   5.623   4.938   7.919  1.4246  0.9857 -0.9306
  142OSM   H14G15629   5.499   4.997   8.046 -0.3123 -1.3987 -0.8603
  142OSM   C15F15630   5.657   5.135   7.993  0.1587  0.4658  0.3290
  142OSM   H15F15631   5.606   5.232   8.008  0.1703  0.2749  1.7296
  142OSM   H15G15632   5.720   5.143   7.902 -0.2840  1.0840  0.0750
  142OSM   C16F15633   5.747   5.108   8.119 -0.3547 -0.2100 -0.5588
  142OSM   H16F15634   5.824   5.187   8.109  1.2606 -1.8107 -1.3135
  142OSM   H16G15635   5.793   5.007   8.110  2.5286  1.0636 -1.2905
  142OSM   C17F15636   5.675   5.142   8.247 -0.8787 -0.5360 -1.1060
  142OSM   H17F15637   5.592   5.072   8.268 -0.0054 -1.7345 -1.5424
  142OSM   H17G15638   5.638   5.247   8.244 -0.7031 -0.4179  0.2064
  142OSM   C18F15639   5.758   5.127   8.385  0.0045  0.0049  0.6249
  142OSM   H18F15640   5.847   5.193   8.396  0.6939 -1.0098  1.2577
  142OSM   H18G15641   5.795   5.022   8.381 -2.8128 -1.0158 -1.4418
  142OSM   H18H15642   5.688   5.150   8.468 -1.2763  0.7270 -0.6189
  143OSM      N15643   6.196   0.881   6.381  0.2474 -0.6918  0.1447
  143OSM    C1515644   6.252   0.743   6.411 -0.0874 -0.7774 -0.1885
  143OSM   H15A15645   6.343   0.762   6.467 -1.6295  0.8702  1.9096
  143OSM   H15B15646   6.275   0.699   6.315 -3.3005 -4.1075  0.3732
  143OSM   H15C15647   6.195   0.680   6.477  0.3117 -1.4066 -0.4298
  143OSM    C1415648   6.212   0.971   6.501 -0.3327  0.6759 -0.4563
  143OSM   H14A15649   6.316   0.975   6.530 -0.8541  0.4533  1.6041
  143OSM   H14B15650   6.156   0.928   6.583  1.5121 -0.6586  0.1775
  143OSM   H14C15651   6.174   1.071   6.490  2.6422  1.8510 -0.8776
  143OSM    C1315652   6.271   0.933   6.268  0.1387  0.1488 -0.0359
  143OSM   H13A15653   6.233   0.878   6.183  0.7928  0.5458 -0.5973
  143OSM   H13B15654   6.375   0.904   6.276  0.4472  1.4093  0.8401
  143OSM   H13C15655   6.265   1.041   6.256 -1.9049  0.2156  1.1503
  143OSM    C1215656   6.044   0.878   6.347  0.7161  0.6159  0.3853
  143OSM   H12A15657   6.027   0.824   6.255 -4.3149 -1.5625  2.2032
  143OSM   H12B15658   5.999   0.977   6.342  0.4738  0.5888  1.6965
  143OSM    C1115659   5.948   0.807   6.446  0.1615  0.2551 -0.2649
  143OSM   H11A15660   5.840   0.816   6.423  0.0001 -0.9553 -0.0738
  143OSM   H11B15661   5.979   0.863   6.537  1.3262 -0.1473 -0.3915
  143OSM      P15662   5.889   0.546   6.429 -0.1368 -0.1575  0.0323
  143OSM    O1315663   5.746   0.592   6.415  0.0227  0.2970 -0.4282
  143OSM    O1415664   5.952   0.482   6.316  0.1951 -0.0081 -0.5766
  143OSM    O1115665   5.903   0.452   6.549 -0.3764  1.0670  0.0919
  143OSM    O1215666   5.985   0.668   6.470  0.1604  0.3238  0.0080
  143OSM    C1S15667   6.032   0.441   6.617 -0.0271  0.1039  0.8518
  143OSM    H1S15668   6.125   0.461   6.559  1.0690 -2.4391  1.5788
  143OSM    H1T15669   6.053   0.336   6.646  1.9228  0.6397  1.5613
  143OSM     NF15670   6.165   0.504   6.835 -0.0348 -0.1512 -0.0345
  143OSM    HNF15671   6.163   0.449   6.918  1.4966  0.0630  0.1668
  143OSM    C2S15672   6.042   0.525   6.759  0.6991  0.1461  0.4060
  143OSM    H2S15673   6.033   0.632   6.730  1.4586 -0.3579 -1.8775
  143OSM    C3S15674   5.919   0.489   6.839 -0.4014  0.5771 -0.3258
  143OSM    H3S15675   5.913   0.379   6.851 -1.1590  0.8604  2.4426
  143OSM     O315676   5.801   0.544   6.776 -0.0737  0.4136  0.1513
  143OSM    HO315677   5.828   0.511   6.690 -0.2468 -0.5075  0.4385
  143OSM    C4S15678   5.914   0.548   6.977 -0.6571  0.2587  0.0753
  143OSM    H4S15679   5.954   0.481   7.056  1.8784  0.2298 -1.1293
  143OSM    C5S15680   5.868   0.664   7.018 -0.3415  0.2268 -0.4540
  143OSM    H5S15681   5.817   0.736   6.954  0.4687  0.8968 -0.3723
  143OSM    C6S15682   5.879   0.697   7.164 -0.4029 -0.4026 -0.3568
  143OSM    H6S15683   5.880   0.611   7.234  0.9036 -0.1355 -0.0187
  143OSM    H6T15684   5.797   0.763   7.198 -0.7397  0.4047 -2.5397
  143OSM    C7S15685   6.013   0.778   7.204  0.2031  0.9714 -0.2874
  143OSM    H7S15686   6.005   0.875   7.151  2.6404  0.6685 -1.3490
  143OSM    H7T15687   6.102   0.724   7.166 -1.1618 -0.7631 -1.2208
  143OSM    C8S15688   6.029   0.797   7.357  0.1227 -0.6717 -0.5685
  143OSM    H8S15689   6.123   0.853   7.376 -0.9358  1.8562 -2.2726
  143OSM    H8T15690   6.036   0.698   7.408  3.1385  0.2545  1.0978
  143OSM    C9S15691   5.918   0.881   7.426 -0.0241  0.1832  0.1896
  143OSM    H9S15692   5.815   0.848   7.401 -0.4064  2.1319 -0.9839
  143OSM    H9T15693   5.932   0.987   7.396  0.6264 -0.2730 -1.2132
  143OSM   C10S15694   5.919   0.881   7.582 -0.2310 -0.6584 -0.1332
  143OSM   H10S15695   5.914   0.776   7.615  0.7193 -1.0008 -1.0191
  143OSM   H10T15696   5.826   0.938   7.605  1.1278  1.2389  0.9148
  143OSM   C11S15697   6.038   0.947   7.635 -0.1346 -0.5296  0.3614
  143OSM   H11S15698   6.057   1.048   7.593 -0.1912 -0.0040  1.5621
  143OSM   H11T15699   6.123   0.884   7.601 -0.8280 -1.6199  0.5693
  143OSM   C12S15700   6.049   0.960   7.789 -0.1116 -0.7346 -0.0943
  143OSM   H12S15701   6.136   1.021   7.823 -1.1672 -0.2666  1.8999
  143OSM   H12T15702   6.058   0.865   7.846  0.8730  0.1883  1.3942
  143OSM   C13S15703   5.935   1.039   7.848  0.2919  0.0937  0.9927
  143OSM   H13S15704   5.846   0.981   7.814  2.4024 -2.2567 -0.9030
  143OSM   H13T15705   5.925   1.140   7.802 -1.5230 -0.1744  0.7194
  143OSM   C14S15706   5.930   1.026   7.998 -0.0276 -1.1342 -0.2641
  143OSM   H14S15707   5.957   0.931   8.050  0.9587 -2.1313 -2.4458
  143OSM   H14T15708   5.827   1.056   8.026  0.2298 -0.5157  0.0337
  143OSM   C15S15709   6.014   1.135   8.067 -0.0497 -0.4507 -1.1269
  143OSM   H15S15710   5.994   1.237   8.031  3.0913  1.9718  3.0665
  143OSM   H15T15711   6.120   1.110   8.044  0.2140 -1.0633  0.5861
  143OSM   C16S15712   5.995   1.142   8.218  0.4118 -0.3809  0.8805
  143OSM   H16S15713   5.989   1.036   8.251 -0.6551 -0.6590 -0.1602
  143OSM   H16T15714   5.896   1.190   8.234  0.0585 -0.0471 -1.9078
  143OSM   C17S15715   6.110   1.209   8.302  0.2021 -0.4003  0.1162
  143OSM   H17S15716   6.116   1.316   8.273 -0.1596 -0.5585 -0.5692
  143OSM   H17T15717   6.207   1.168   8.267  1.5958  3.2524 -0.6831
  143OSM   C18S15718   6.083   1.203   8.451 -0.0843  0.1695 -0.4470
  143OSM   H18S15719   6.150   1.274   8.503 -0.6471  1.4537 -1.4165
  143OSM   H18T15720   6.110   1.102   8.488 -1.2687 -1.0788 -2.7189
  143OSM   H18U15721   5.981   1.239   8.472  0.0786  0.4598 -0.1413
  143OSM    C1F15722   6.277   0.571   6.792 -0.0165  1.1102 -0.1726
  143OSM     OF15723   6.281   0.638   6.687 -0.0475  0.3281  0.0233
  143OSM    C2F15724   6.390   0.561   6.894  0.2705  0.1563  1.0269
  143OSM    H2F15725   6.443   0.657   6.877 -1.1344  0.5701 -1.3854
  143OSM    H2G15726   6.461   0.481   6.864  0.7166  1.6619 -2.3821
  143OSM    C3F15727   6.337   0.549   7.041  0.0927 -0.3739  0.3396
  143OSM    H3F15728   6.292   0.448   7.050  0.5390 -0.5435  0.7363
  143OSM    H3G15729   6.255   0.620   7.062  0.3280 -0.0350  0.1211
  143OSM    C4F15730   6.441   0.554   7.150 -0.0400  0.4823  0.2660
  143OSM    H4F15731   6.507   0.642   7.140 -1.8419  1.7056 -1.4978
  143OSM    H4G15732   6.506   0.470   7.118 -0.0086  1.2740 -1.8680
  143OSM    C5F15733   6.390   0.538   7.299  0.2237 -0.8242  0.0501
  143OSM    H5F15734   6.310   0.461   7.291  0.5967 -1.2206  0.0952
  143OSM    H5G15735   6.350   0.636   7.334 -0.9398 -0.8239 -1.2245
  143OSM    C6F15736   6.486   0.485   7.400 -0.1702  0.0305  0.0959
  143OSM    H6F15737   6.581   0.543   7.390  0.0296 -0.5081 -1.4404
  143OSM    H6G15738   6.516   0.378   7.400 -2.4432 -0.7041 -1.9078
  143OSM    C7F15739   6.446   0.521   7.547  0.4516  0.2504 -0.5096
  143OSM    H7F15740   6.428   0.630   7.539 -0.0210  0.1608 -0.7358
  143OSM    H7G15741   6.532   0.507   7.616  0.3637  2.2573  0.0766
  143OSM    C8F15742   6.316   0.454   7.608 -0.7451 -0.1646 -0.1577
  143OSM    H8F15743   6.223   0.505   7.574 -0.3120  0.3190 -0.6388
  143OSM    H8G15744   6.330   0.470   7.716  0.4261  0.7158 -0.4269
  143OSM    C9F15745   6.321   0.302   7.580 -0.9756 -0.4730 -0.3908
  143OSM    H9F15746   6.319   0.278   7.472  2.1896 -0.3425 -0.5597
  143OSM   C10F15747   6.346   0.200   7.661  0.3400 -0.3937  0.1509
  143OSM   H10F15748   6.341   0.096   7.626  0.1958 -0.2840 -0.1547
  143OSM   C11F15749   6.379   0.220   7.807  0.2880 -0.4042 -1.2773
  143OSM   H11F15750   6.392   0.323   7.845  0.0857 -0.5989 -0.6594
  143OSM   H11G15751   6.474   0.172   7.840  0.0539  0.7816  1.4031
  143OSM   C12F15752   6.279   0.164   7.908  0.2209 -1.0953  0.3393
  143OSM   H12F15753   6.290   0.053   7.911 -0.1516 -1.1253  1.1674
  143OSM   H12G15754   6.173   0.187   7.884  0.3756 -0.8749 -0.1239
  143OSM   C13F15755   6.302   0.216   8.053 -0.6929 -0.3445 -0.7546
  143OSM   H13F15756   6.337   0.320   8.040 -0.8025 -0.3267 -0.9130
  143OSM   H13G15757   6.390   0.158   8.090 -0.7919 -1.2977 -1.9261
  143OSM   C14F15758   6.178   0.213   8.131 -0.0886  0.6493  0.0297
  143OSM   H14F15759   6.127   0.116   8.110  2.2886 -0.5466 -0.5340
  143OSM   H14G15760   6.113   0.298   8.101  1.6152  1.6795 -0.8576
  143OSM   C15F15761   6.201   0.218   8.282 -0.1455 -0.6649  0.6759
  143OSM   H15F15762   6.278   0.143   8.310  0.9908  0.9641  2.1053
  143OSM   H15G15763   6.107   0.197   8.337  0.2543  1.0836  2.1447
  143OSM   C16F15764   6.263   0.350   8.333 -0.1447 -0.5140 -0.0545
  143OSM   H16F15765   6.185   0.429   8.322  0.9083  0.4548 -0.7620
  143OSM   H16G15766   6.346   0.379   8.265 -0.9142 -1.3088 -1.3796
  143OSM   C17F15767   6.300   0.355   8.482 -0.2948  0.3958  0.6492
  143OSM   H17F15768   6.231   0.302   8.551 -0.9071 -0.0243 -0.2723
  143OSM   H17G15769   6.289   0.463   8.506 -2.3303  0.5906 -0.8522
  143OSM   C18F15770   6.441   0.306   8.508  0.2292  0.2166 -0.4767
  143OSM   H18F15771   6.506   0.333   8.423 -1.7180 -1.2222 -2.5204
  143OSM   H18G15772   6.449   0.197   8.527 -2.2647  0.0510 -0.0330
  143OSM   H18H15773   6.483   0.345   8.604  0.2491 -1.7015  0.3468
  144OSM      N15774   4.895   5.761   6.121  0.2509  0.3114  0.6867
  144OSM    C1515775   5.015   5.828   6.066 -0.5596 -0.4341 -0.6427
  144OSM   H15A15776   5.028   5.813   5.960 -1.8086  3.4002 -1.5329
  144OSM   H15B15777   5.106   5.796   6.113 -0.0023  1.5007 -0.2831
  144OSM   H15C15778   5.007   5.936   6.075 -0.7155 -0.3885 -1.2247
  144OSM    C1415779   4.788   5.785   6.019 -0.8026 -0.8104  0.0166
  144OSM   H14A15780   4.685   5.760   6.042 -0.7877  0.3091  1.4922
  144OSM   H14B15781   4.814   5.755   5.919  0.2430 -1.5039  0.4800
  144OSM   H14C15782   4.795   5.893   6.019 -1.4252 -0.7074  2.4873
  144OSM    C1315783   4.913   5.612   6.139 -0.5961  0.2671 -0.0708
  144OSM   H13A15784   4.827   5.550   6.160  0.1718 -0.8027 -0.0124
  144OSM   H13B15785   4.981   5.589   6.220 -1.7283 -1.5362  0.4309
  144OSM   H13C15786   4.963   5.575   6.051 -0.5982 -1.6993  0.7190
  144OSM    C1215787   4.845   5.821   6.257  0.3014  0.6306  0.6597
  144OSM   H12A15788   4.774   5.752   6.299  0.8035  0.2508  0.9075
  144OSM   H12B15789   4.793   5.915   6.244  1.6745  1.1330 -1.8655
  144OSM    C1115790   4.959   5.859   6.346 -0.5766  1.0204 -0.4673
  144OSM   H11A15791   5.042   5.786   6.357 -0.9395  0.4817 -1.2509
  144OSM   H11B15792   4.915   5.873   6.447  1.4378  1.6113  0.3941
  144OSM      P15793   5.100   6.074   6.405  0.1214 -0.2219  0.0633
  144OSM    O1315794   5.237   6.022   6.439 -0.0851  0.6527 -0.7130
  144OSM    O1415795   5.103   6.205   6.344  0.7295 -0.2077  0.5103
  144OSM    O1115796   5.021   6.091   6.541 -0.1818  0.6683  0.1868
  144OSM    O1215797   5.022   5.979   6.307 -0.1416 -0.1425 -0.3914
  144OSM    C1S15798   4.888   6.144   6.548 -0.0406 -0.1076  0.3664
  144OSM    H1S15799   4.818   6.083   6.487  1.8734  0.5994 -2.7420
  144OSM    H1T15800   4.897   6.245   6.503 -1.9689 -0.0754 -0.0478
  144OSM     NF15801   4.697   6.212   6.716  0.7510  0.2161 -0.2848
  144OSM    HNF15802   4.692   6.299   6.764  0.1822 -0.1114  0.2516
  144OSM    C2S15803   4.835   6.152   6.699 -0.3494 -0.8163  0.7953
  144OSM    H2S15804   4.833   6.047   6.736  0.5634 -1.3319 -0.5223
  144OSM    C3S15805   4.940   6.230   6.792  0.7171  0.1479 -0.0238
  144OSM    H3S15806   4.937   6.340   6.774  3.7368  0.4039  0.5181
  144OSM     O315807   5.079   6.197   6.768 -0.6933  0.2869  0.4522
  144OSM    HO315808   5.070   6.152   6.684  1.8305 -1.5937  1.0675
  144OSM    C4S15809   4.905   6.221   6.940 -0.4848 -0.0366  0.0323
  144OSM    H4S15810   4.842   6.303   6.978  2.7111  2.7371 -0.2135
  144OSM    C5S15811   4.934   6.124   7.033  0.0038 -0.1322  0.1569
  144OSM    H5S15812   4.989   6.033   7.004 -2.6933 -1.2675 -1.9061
  144OSM    C6S15813   4.877   6.127   7.170 -0.2014 -0.3002  0.2069
  144OSM    H6S15814   4.773   6.088   7.177 -0.3378 -0.2605 -1.2814
  144OSM    H6T15815   4.890   6.231   7.204  1.7108 -0.7550  0.9854
  144OSM    C7S15816   4.976   6.032   7.243  0.1447  0.0344  0.1145
  144OSM    H7S15817   5.085   6.049   7.231  0.6611 -0.9202  2.7311
  144OSM    H7T15818   4.972   5.925   7.214 -1.2052  0.7175 -2.5664
  144OSM    C8S15819   4.938   6.035   7.388 -0.5796  0.3674 -0.1966
  144OSM    H8S15820   4.829   6.018   7.404 -0.8035  2.3485  0.6591
  144OSM    H8T15821   4.958   6.134   7.434 -0.9462 -0.6146  2.2293
  144OSM    C9S15822   5.011   5.937   7.481 -1.0492  0.2129 -0.4417
  144OSM    H9S15823   5.120   5.960   7.481 -1.3051  1.5520  0.5010
  144OSM    H9T15824   5.009   5.834   7.439 -2.3328  0.1502 -0.2651
  144OSM   C10S15825   4.966   5.946   7.623  0.5146 -0.9671 -0.9898
  144OSM   H10S15826   4.857   5.927   7.628  0.1728  0.5016 -2.0430
  144OSM   H10T15827   4.978   6.045   7.672 -2.7782 -0.2111 -1.5001
  144OSM   C11S15828   5.043   5.848   7.706  0.4600 -0.0402 -0.0889
  144OSM   H11S15829   5.148   5.882   7.714  1.0073 -1.6850  0.1510
  144OSM   H11T15830   5.057   5.750   7.655 -1.3383 -0.9035  0.9767
  144OSM   C12S15831   4.967   5.830   7.835  0.5532 -0.1096  0.6381
  144OSM   H12S15832   4.885   5.756   7.818 -0.1325  0.2833  2.0679
  144OSM   H12T15833   4.926   5.929   7.864  0.9520  0.2033  0.1470
  144OSM   C13S15834   5.046   5.768   7.950 -0.3007  0.3218  0.4155
  144OSM   H13S15835   4.987   5.736   8.039 -0.1866  0.9249  0.7108
  144OSM   H13T15836   5.121   5.845   7.978  0.8278 -0.8791  0.8691
  144OSM   C14S15837   5.122   5.641   7.895 -0.8580  0.2810 -0.1700
  144OSM   H14S15838   5.203   5.668   7.825  1.7528 -1.4689  1.9769
  144OSM   H14T15839   5.052   5.570   7.844 -0.3476 -2.0754  2.1751
  144OSM   C15S15840   5.196   5.568   8.009 -0.0969  0.6305  0.4376
  144OSM   H15S15841   5.145   5.583   8.106  1.3431 -0.1659  1.3664
  144OSM   H15T15842   5.297   5.611   8.027  0.9331 -0.8290 -1.3692
  144OSM   C16S15843   5.231   5.422   7.965  0.2987  0.5326 -0.2290
  144OSM   H16S15844   5.334   5.404   8.002  0.1551  1.4706  0.7099
  144OSM   H16T15845   5.233   5.408   7.855  1.0498 -1.8359  0.0273
  144OSM   C17S15846   5.145   5.317   8.029  0.1785  0.4879  0.8096
  144OSM   H17S15847   5.170   5.218   7.985 -2.3929 -0.6124  1.6168
  144OSM   H17T15848   5.037   5.340   8.011  0.7556  2.6089 -0.3286
  144OSM   C18S15849   5.157   5.312   8.181 -0.5040 -0.2668 -0.4440
  144OSM   H18S15850   5.263   5.292   8.208 -0.6182 -1.0976 -0.5922
  144OSM   H18T15851   5.101   5.225   8.220  0.1919 -0.6151 -0.1997
  144OSM   H18U15852   5.136   5.411   8.226  2.0378  0.2253 -0.2113
  144OSM    C1F15853   4.591   6.158   6.654 -0.5355 -0.5196 -0.2478
  144OSM     OF15854   4.597   6.047   6.608  0.3902 -0.0881  0.3335
  144OSM    C2F15855   4.472   6.235   6.649 -0.1458 -0.3668 -0.0284
  144OSM    H2F15856   4.419   6.227   6.552 -0.1957  1.5047 -0.1926
  144OSM    H2G15857   4.487   6.344   6.663 -1.9322 -0.0302 -0.4898
  144OSM    C3F15858   4.367   6.196   6.758  0.2853  0.6715  0.4758
  144OSM    H3F15859   4.357   6.087   6.745 -0.3388  0.7989 -0.1850
  144OSM    H3G15860   4.274   6.245   6.721 -0.2294  1.4615  2.6222
  144OSM    C4F15861   4.395   6.231   6.907  0.0702  0.1384 -0.1307
  144OSM    H4F15862   4.403   6.342   6.908 -0.6423  0.1975 -0.0145
  144OSM    H4G15863   4.488   6.179   6.939 -0.4881 -1.4767 -1.0558
  144OSM    C5F15864   4.276   6.200   7.005 -0.5917  0.0334  0.6929
  144OSM    H5F15865   4.248   6.094   6.988  0.1497  0.0001 -0.4521
  144OSM    H5G15866   4.196   6.273   6.979  1.8781  2.1182 -1.8253
  144OSM    C6F15867   4.310   6.220   7.156 -1.0288 -0.3822  0.8507
  144OSM    H6F15868   4.312   6.330   7.171  3.8565  0.3983 -2.9592
  144OSM    H6G15869   4.415   6.197   7.186 -0.5996  0.4738  0.0467
  144OSM    C7F15870   4.205   6.151   7.236  0.5713  0.0762 -0.2591
  144OSM    H7F15871   4.199   6.047   7.196  1.0717 -0.8945  2.0032
  144OSM    H7G15872   4.103   6.187   7.209  0.6557  2.6104  2.3451
  144OSM    C8F15873   4.228   6.132   7.387 -0.1114 -0.6671 -0.7922
  144OSM    H8F15874   4.193   6.223   7.439  1.0944 -0.3292 -0.5515
  144OSM    H8G15875   4.338   6.124   7.400 -0.1068 -2.1746 -1.5225
  144OSM    C9F15876   4.153   6.015   7.443  0.0429 -0.3972 -0.2635
  144OSM    H9F15877   4.090   5.960   7.371 -1.8790  2.5809 -1.0360
  144OSM   C10F15878   4.139   5.992   7.577 -0.1030  0.3238  0.1085
  144OSM   H10F15879   4.081   5.903   7.607  2.4539 -1.4902  0.0519
  144OSM   C11F15880   4.211   6.079   7.675  0.1388  0.1964  0.6698
  144OSM   H11F15881   4.185   6.183   7.644  0.0530 -0.3708 -1.2788
  144OSM   H11G15882   4.320   6.061   7.666  0.1070  0.4168 -0.1722
  144OSM   C12F15883   4.171   6.065   7.817 -0.7596 -0.3998  0.4801
  144OSM   H12F15884   4.062   6.084   7.832 -0.5068  1.5978  0.1019
  144OSM   H12G15885   4.226   6.141   7.876 -1.4218 -0.4020  1.1117
  144OSM   C13F15886   4.212   5.925   7.870  0.4726 -0.5542 -0.2192
  144OSM   H13F15887   4.322   5.927   7.859  0.6586  1.4209  1.3431
  144OSM   H13G15888   4.173   5.847   7.802  0.7968 -2.6796  1.9239
  144OSM   C14F15889   4.166   5.897   8.013  0.0722  0.2773  0.4017
  144OSM   H14F15890   4.208   5.974   8.082  1.9950 -0.8198  0.5075
  144OSM   H14G15891   4.217   5.801   8.038  0.4308  0.3041 -0.2133
  144OSM   C15F15892   4.011   5.879   8.042 -0.6811  0.5395  0.2154
  144OSM   H15F15893   3.972   5.795   7.982 -2.0787  1.5696 -0.3736
  144OSM   H15G15894   3.967   5.978   8.014  0.8689  1.2252  0.0884
  144OSM   C16F15895   3.978   5.869   8.187  0.6437  0.3334  0.0339
  144OSM   H16F15896   4.011   5.964   8.234  1.1991 -0.3047  0.9526
  144OSM   H16G15897   4.040   5.788   8.230 -0.9743 -1.9822 -1.7291
  144OSM   C17F15898   3.835   5.838   8.231  0.2753 -0.8058  0.2031
  144OSM   H17F15899   3.812   5.730   8.225  2.6643 -1.2917 -2.0362
  144OSM   H17G15900   3.770   5.894   8.160  2.0377 -1.5264 -2.1088
  144OSM   C18F15901   3.812   5.894   8.367 -0.4685  0.4264  0.5906
  144OSM   H18F15902   3.714   5.858   8.405 -0.7174  1.0482  0.5477
  144OSM   H18G15903   3.817   6.004   8.361 -0.9032  0.4355  0.3728
  144OSM   H18H15904   3.891   5.856   8.435 -1.0802 -0.7357  0.6886
  145SAPE     N15905   2.206   2.853  10.835 -0.0179  0.2025 -1.0772
  145SAPE   HN115906   2.115   2.830  10.880  0.1788 -0.4080 -0.9837
  145SAPE   HN215907   2.260   2.767  10.814 -3.1105 -1.9090 -1.1980
  145SAPE   HN315908   2.263   2.913  10.897 -0.6325  0.2170 -0.5110
  145SAPE   C1215909   2.180   2.929  10.709 -0.5006 -0.0277  0.3476
  145SAPE  H12A15910   2.279   2.959  10.669 -1.6860  3.4125 -0.3424
  145SAPE  H12B15911   2.127   3.024  10.729 -1.6645 -0.8296  1.1987
  145SAPE   C1115912   2.120   2.836  10.602 -0.1598  0.4972 -0.1772
  145SAPE  H11A15913   2.171   2.737  10.602 -0.6074  0.1894 -2.7784
  145SAPE  H11B15914   2.130   2.876  10.499  0.5092 -0.1024 -0.3550
  145SAPE     P15915   1.862   2.887  10.596 -0.1011 -0.2568  0.0002
  145SAPE   O1315916   1.739   2.820  10.639 -0.4280  0.2763 -0.3010
  145SAPE   O1415917   1.879   3.025  10.648 -0.0522 -0.1060  0.1818
  145SAPE   O1215918   1.986   2.798  10.631  0.1839  0.2247 -0.2828
  145SAPE   O1115919   1.859   2.895  10.441 -0.0579 -0.0200  0.0772
  145SAPE    C115920   1.838   2.798  10.345 -0.0965  0.2646  0.6594
  145SAPE    HA15921   1.758   2.728  10.377 -1.1863  0.4910 -1.4321
  145SAPE    HB15922   1.813   2.848  10.250  2.9592  2.5615  0.9120
  145SAPE    C215923   1.970   2.712  10.312 -0.1605  0.9353 -0.5236
  145SAPE    HS15924   2.025   2.704  10.408  2.6573  2.9583 -1.8382
  145SAPE   O2115925   2.039   2.778  10.206  0.4776  0.0673  0.0159
  145SAPE   C2115926   2.169   2.767  10.207  0.2416  0.2307 -0.8969
  145SAPE   O2215927   2.231   2.722  10.299  0.7764 -0.0302  0.3169
  145SAPE   C2215928   2.219   2.804  10.067 -0.2009 -0.0916  0.0684
  145SAPE   H2R15929   2.173   2.902  10.041  1.4661  0.7249  0.0956
  145SAPE   H2S15930   2.330   2.813  10.070  0.0562 -2.0683 -1.4478
  145SAPE    C315931   1.931   2.568  10.268  0.1658  0.5449  0.0402
  145SAPE    HX15932   1.873   2.587  10.176  0.4396  1.4908  0.0580
  145SAPE    HY15933   1.856   2.528  10.340  0.5169 -0.9511 -0.3888
  145SAPE   O3115934   2.031   2.470  10.247  0.5162  0.3740 -0.0308
  145SAPE   C3115935   2.084   2.414  10.355  0.8210 -0.1936 -0.1022
  145SAPE   O3215936   2.041   2.417  10.470  0.5340  0.0533 -0.1608
  145SAPE   C3215937   2.205   2.321  10.321 -0.0338 -0.8164  0.3826
  145SAPE   H2X15938   2.231   2.254  10.406 -0.0142 -1.6556 -0.2728
  145SAPE   H2Y15939   2.300   2.378  10.330  0.9060 -2.5911  3.1852
  145SAPE   C2315940   2.181   2.697   9.966  0.6250 -0.2015  0.2973
  145SAPE   H3R15941   2.201   2.599  10.014  3.6123  0.5577  0.7685
  145SAPE   H3S15942   2.247   2.695   9.876 -1.4325 -0.9131 -1.2778
  145SAPE   C2415943   2.033   2.688   9.915 -0.5425 -0.3145 -0.2934
  145SAPE   H4R15944   1.973   2.663  10.005  2.0862  1.0283  2.0019
  145SAPE   H4S15945   2.037   2.594   9.856 -0.0816 -0.3362 -0.2320
  145SAPE   C2515946   1.988   2.809   9.835 -0.7600 -0.1458 -1.1063
  145SAPE   H5R15947   1.939   2.878   9.905  1.2136  0.3263 -0.1090
  145SAPE   C2615948   2.012   2.817   9.702  0.3208  0.1811 -0.0241
  145SAPE   H6R15949   1.989   2.903   9.637  1.7398 -0.5024 -1.4944
  145SAPE   C2715950   2.084   2.720   9.619 -0.1363  0.1168  0.7349
  145SAPE   H7R15951   2.021   2.703   9.528 -1.4241  1.7163  1.2787
  145SAPE   H7S15952   2.093   2.618   9.660  0.8293  0.5240  1.5762
  145SAPE   C2815953   2.219   2.771   9.588  0.6811  0.5586  0.0450
  145SAPE   H8R15954   2.275   2.798   9.679 -1.5695  2.4100  1.0079
  145SAPE   C2915955   2.268   2.798   9.468 -0.4947 -0.3588  0.0961
  145SAPE   H9R15956   2.376   2.815   9.467 -0.4269 -0.1134  3.1598
  145SAPE  C21015957   2.205   2.781   9.337  0.3945  0.1671 -0.5426
  145SAPE  H10R15958   2.159   2.680   9.329 -0.7368  0.7070 -1.1303
  145SAPE  H10S15959   2.288   2.780   9.264  1.1779  0.1148  0.3321
  145SAPE  C21115960   2.090   2.884   9.311  0.6490 -0.0051  0.6185
  145SAPE  H11R15961   2.016   2.882   9.392 -0.2781 -2.8878 -0.1691
  145SAPE  C21215962   2.070   2.970   9.213  0.1287  0.8404  0.3713
  145SAPE  H12R15963   1.988   3.043   9.215 -1.3618 -0.7563  0.5653
  145SAPE  C21315964   2.166   2.979   9.108  0.5388 -0.3754  0.3605
  145SAPE  H13R15965   2.180   2.887   9.047  3.3274  1.3620 -1.9188
  145SAPE  H13S15966   2.271   3.000   9.138  0.4056  0.3946  0.3177
  145SAPE  C21415967   2.121   3.077   9.003 -0.4060  0.1929  0.0033
  145SAPE  H14R15968   2.203   3.146   8.978  1.7484 -1.5879  1.7803
  145SAPE  C21515969   2.016   3.053   8.925 -0.0953  0.2252 -0.2830
  145SAPE  H15R15970   2.002   3.124   8.843  3.0034  1.1637 -0.0996
  145SAPE  C21615971   1.910   2.946   8.929 -0.4136 -0.3561 -0.3605
  145SAPE  H16R15972   1.826   2.981   8.993 -0.9030  0.4797 -1.4294
  145SAPE  H16S15973   1.942   2.845   8.964 -0.0329  0.8353  3.1296
  145SAPE  C21715974   1.844   2.935   8.795  0.8704  0.2832 -0.0898
  145SAPE  H17R15975   1.920   2.936   8.715  2.1125 -2.0316  0.9558
  145SAPE  H17S15976   1.782   3.023   8.768 -0.5044 -0.4701  0.4714
  145SAPE  C21815977   1.754   2.816   8.790  0.0546  0.5604  0.3348
  145SAPE  H18R15978   1.713   2.818   8.893 -0.8590  2.6765 -0.0122
  145SAPE  H18S15979   1.808   2.721   8.771 -0.1165  0.9058 -2.2556
  145SAPE  C21915980   1.641   2.834   8.685  0.2212  0.5207 -0.9220
  145SAPE  H19R15981   1.679   2.877   8.589  2.3551  0.4557 -0.1526
  145SAPE  H19S15982   1.558   2.903   8.709  0.1254  0.3716 -0.8298
  145SAPE  C22015983   1.579   2.700   8.644 -0.0829 -0.3065  0.2869
  145SAPE  H20R15984   1.534   2.653   8.734 -0.8886  0.9629  0.5826
  145SAPE  H20S15985   1.663   2.642   8.599  0.6780  1.6782 -1.0341
  145SAPE  H20T15986   1.504   2.721   8.564 -0.9618  3.2735  1.8474
  145SAPE   C3315987   2.195   2.242  10.192  0.3460 -0.4225  0.3462
  145SAPE   H3X15988   2.090   2.209  10.174 -0.1802  0.9716  0.7064
  145SAPE   H3Y15989   2.252   2.147  10.197  1.4491  0.2527  0.9211
  145SAPE   C3415990   2.253   2.326  10.074 -0.4237 -0.2063 -0.4485
  145SAPE   H4X15991   2.342   2.390  10.090  0.7067 -2.0062  0.8405
  145SAPE   H4Y15992   2.173   2.390  10.031 -0.5953  1.2209  1.8316
  145SAPE   C3515993   2.283   2.234   9.953  0.5782 -0.2746  0.9944
  145SAPE   H5X15994   2.207   2.157   9.929  0.6262  0.2402 -0.9412
  145SAPE   H5Y15995   2.383   2.194   9.980  1.7505 -0.0870 -2.6014
  145SAPE   C3615996   2.304   2.314   9.824  0.1505 -0.1747 -0.4707
  145SAPE   H6X15997   2.388   2.386   9.838 -1.1865  1.8672 -2.2808
  145SAPE   H6Y15998   2.209   2.369   9.807 -0.2066 -0.1314  1.4203
  145SAPE   C3715999   2.342   2.230   9.703 -0.2579 -0.3829  0.8584
  145SAPE   H7X16000   2.284   2.136   9.704 -1.8317  0.5650  1.3020
  145SAPE   H7Y16001   2.447   2.196   9.715  0.2698 -0.4942 -2.8610
  145SAPE   C3816002   2.337   2.307   9.560  0.6035 -1.2185 -0.1201
  145SAPE   H8X16003   2.236   2.346   9.539  0.4207 -1.5580  0.1130
  145SAPE   H8Y16004   2.346   2.233   9.478 -3.8112 -0.5207 -1.5063
  145SAPE   C3916005   2.454   2.409   9.545  0.9599  0.1323  0.6260
  145SAPE   H9X16006   2.554   2.366   9.569  0.9896  0.4938  1.1786
  145SAPE   H9Y16007   2.436   2.490   9.619 -0.3929  2.7716 -2.3691
  145SAPE  C31016008   2.463   2.483   9.410 -0.2424 -0.4519  0.7143
  145SAPE  H10X16009   2.368   2.536   9.390  0.6382  0.3067 -1.8395
  145SAPE  H10Y16010   2.469   2.416   9.322 -2.7596  2.2091 -1.6861
  145SAPE  C31116011   2.583   2.585   9.404  0.2483  0.5007  0.0809
  145SAPE  H11X16012   2.670   2.543   9.457  1.0236  0.0328 -1.5212
  145SAPE  H11Y16013   2.546   2.678   9.454 -1.5138 -0.2412  0.2365
  145SAPE  C31216014   2.624   2.622   9.257 -0.5756  0.3679 -0.3454
  145SAPE  H12X16015   2.638   2.527   9.203 -3.0012 -0.1825 -0.0951
  145SAPE  H12Y16016   2.725   2.667   9.275 -1.4688  1.5827  2.0472
  145SAPE  C31316017   2.539   2.709   9.176 -0.8545 -0.1809  0.1640
  145SAPE  H13X16018   2.529   2.812   9.215 -2.2034  0.3578 -1.4667
  145SAPE  H13Y16019   2.439   2.660   9.177 -1.1185  0.2745 -1.3121
  145SAPE  C31416020   2.594   2.723   9.033 -0.4326  0.0671 -0.3372
  145SAPE  H14X16021   2.612   2.629   8.978  0.8347 -1.2204  2.1396
  145SAPE  H14Y16022   2.690   2.780   9.035 -0.0021 -0.6641 -0.0758
  145SAPE  C31516023   2.495   2.816   8.960  0.0282 -0.3139 -0.3183
  145SAPE  H15X16024   2.506   2.910   9.018  1.5837 -0.4734 -0.3265
  145SAPE  H15Y16025   2.396   2.766   8.969 -0.5367  0.9020  0.6376
  145SAPE  C31616026   2.519   2.839   8.819 -0.2638  0.2399  0.4336
  145SAPE  H16X16027   2.515   2.739   8.770 -0.7769  0.9462 -1.0317
  145SAPE  H16Y16028   2.616   2.888   8.796 -2.0134  2.3985 -3.3306
  145SAPE  C31716029   2.422   2.923   8.737  0.4669  0.7106  0.3291
  145SAPE  H17X16030   2.399   3.023   8.778 -1.7215 -0.1474  1.3761
  145SAPE  H17Y16031   2.321   2.876   8.738  1.3008 -1.1651  0.7606
  145SAPE  C31816032   2.464   2.935   8.588  0.0795  0.1099  0.2441
  145SAPE  H18X16033   2.390   3.003   8.541  0.6360  1.3194  1.0378
  145SAPE  H18Y16034   2.456   2.833   8.547 -0.5123 -0.6054  2.0117
  145SAPE  H18Z16035   2.566   2.980   8.588  0.0529  0.5345  3.8828
  146SAPE     N16036   0.413   2.618  10.845 -0.4482 -0.1648 -0.4561
  146SAPE   HN116037   0.374   2.558  10.920 -0.9117  0.7323  0.0367
  146SAPE   HN216038   0.484   2.682  10.887 -0.1483 -2.1606  2.3271
  146SAPE   HN316039   0.335   2.674  10.805 -0.2788 -0.6490 -1.5046
  146SAPE   C1216040   0.487   2.537  10.739  0.7443  0.5273 -0.3775
  146SAPE  H12A16041   0.408   2.485  10.680  1.3596  0.4530 -1.1475
  146SAPE  H12B16042   0.540   2.458  10.798  0.3502  1.1396  0.8210
  146SAPE   C1116043   0.580   2.623  10.659 -0.2344 -0.1812 -0.0175
  146SAPE  H11A16044   0.521   2.690  10.594  2.4920  3.7491  1.1837
  146SAPE  H11B16045   0.643   2.557  10.595  2.0531  1.1212  0.7521
  146SAPE     P16046   0.823   2.667  10.749  0.2075  0.3896  0.1971
  146SAPE   O1316047   0.893   2.752  10.844 -0.3211  0.1065 -0.2624
  146SAPE   O1416048   0.812   2.525  10.780 -0.1514  0.3252  0.2030
  146SAPE   O1216049   0.674   2.714  10.728  0.0826 -0.3633 -0.3347
  146SAPE   O1116050   0.869   2.688  10.603 -0.2431  0.2221 -0.4592
  146SAPE    C116051   0.851   2.803  10.530  0.7035  0.5228  0.1908
  146SAPE    HA16052   0.757   2.798  10.472  1.1561  1.1275 -0.6152
  146SAPE    HB16053   0.834   2.893  10.592  1.5069  0.5853  0.3301
  146SAPE    C216054   0.975   2.832  10.433  0.7290  0.2113  0.3926
  146SAPE    HS16055   0.945   2.924  10.379  0.0784 -0.3087 -0.1479
  146SAPE   O2116056   1.004   2.733  10.341 -0.3441  0.7188 -0.6640
  146SAPE   C2116057   0.915   2.697  10.254 -0.2115  0.1626  0.2865
  146SAPE   O2216058   0.820   2.763  10.218  0.0844  0.5835 -0.0390
  146SAPE   C2216059   0.959   2.570  10.191 -0.4028  0.4034 -0.0396
  146SAPE   H2R16060   1.037   2.595  10.116 -1.1571 -1.9965 -1.7441
  146SAPE   H2S16061   1.014   2.501  10.258  0.3173 -1.0667 -2.0820
  146SAPE    C316062   1.105   2.862  10.531  0.4511  0.0264  0.8668
  146SAPE    HX16063   1.120   2.769  10.589  0.6122 -0.7535 -0.3817
  146SAPE    HY16064   1.081   2.943  10.603 -1.1989 -0.8476  1.3273
  146SAPE   O3116065   1.226   2.882  10.450 -0.1541 -0.4747  0.5041
  146SAPE   C3116066   1.343   2.873  10.511  0.4738  0.7932 -0.5590
  146SAPE   O3216067   1.350   2.877  10.632 -0.3263 -0.2395  0.3107
  146SAPE   C3216068   1.459   2.868  10.407 -0.4218  0.1927 -0.3609
  146SAPE   H2X16069   1.413   2.842  10.309 -2.6195 -1.6384  1.0431
  146SAPE   H2Y16070   1.522   2.782  10.437  0.1558  0.9488  0.6500
  146SAPE   C2316071   0.857   2.499  10.096 -0.2594 -0.2753 -0.4814
  146SAPE   H3R16072   0.787   2.575  10.055 -2.7560 -0.4845  2.9156
  146SAPE   H3S16073   0.794   2.439  10.165  1.1914  0.0149  1.1694
  146SAPE   C2416074   0.922   2.402   9.993  0.1266 -0.7934 -0.3366
  146SAPE   H4R16075   0.842   2.329   9.970 -1.4519  0.3455  1.2537
  146SAPE   H4S16076   1.012   2.344  10.024  0.2957 -1.7275 -2.4396
  146SAPE   C2516077   0.968   2.486   9.876 -0.0211  0.2062 -0.5441
  146SAPE   H5R16078   1.016   2.582   9.901  0.6631  0.2181 -1.7835
  146SAPE   C2616079   0.956   2.461   9.747  0.5986 -0.3145  0.6959
  146SAPE   H6R16080   0.987   2.535   9.671 -1.3071  0.6406  0.7915
  146SAPE   C2716081   0.887   2.337   9.688 -0.1435 -0.4146  0.3022
  146SAPE   H7R16082   0.847   2.257   9.754 -1.0042 -0.6462 -0.4763
  146SAPE   H7S16083   0.959   2.283   9.623  1.8148  0.2100  1.8564
  146SAPE   C2816084   0.774   2.376   9.602 -0.1021 -0.2463 -0.4139
  146SAPE   H8R16085   0.675   2.397   9.645  0.7590  0.5860  1.2755
  146SAPE   C2916086   0.777   2.374   9.472 -0.2976 -0.4757  0.0788
  146SAPE   H9R16087   0.682   2.413   9.431 -0.2495  2.8232  2.6822
  146SAPE  C21016088   0.899   2.349   9.389 -0.3605  0.2559  0.8507
  146SAPE  H10R16089   0.938   2.245   9.389 -0.1920  0.2477 -1.5502
  146SAPE  H10S16090   0.990   2.405   9.418 -0.0192 -0.8041  1.8824
  146SAPE  C21116091   0.887   2.379   9.241 -0.0471 -0.4641  0.2148
  146SAPE  H11R16092   0.838   2.300   9.181  1.1424 -2.5780  1.8716
  146SAPE  C21216093   0.928   2.492   9.183  0.2368 -0.2681  0.1811
  146SAPE  H12R16094   0.921   2.486   9.074 -3.6330  0.1793  0.3008
  146SAPE  C21316095   0.995   2.611   9.247 -0.5629  0.6891 -0.0197
  146SAPE  H13R16096   0.976   2.608   9.356 -0.3008 -3.7772  0.0809
  146SAPE  H13S16097   0.938   2.699   9.209 -1.3486  0.4035  0.4938
  146SAPE  C21416098   1.147   2.620   9.226  0.0352  0.7568 -0.0929
  146SAPE  H14R16099   1.198   2.625   9.324 -1.8941  1.9115  0.9050
  146SAPE  C21516100   1.212   2.631   9.111 -0.4579 -1.0059  0.0269
  146SAPE  H15R16101   1.322   2.634   9.119 -0.4016 -2.1257 -0.1244
  146SAPE  C21616102   1.158   2.650   8.973 -0.1493 -0.1214  0.6116
  146SAPE  H16R16103   1.049   2.672   8.969  0.0008  0.4978 -0.3438
  146SAPE  H16S16104   1.160   2.553   8.919 -1.7584  1.1364 -1.9122
  146SAPE  C21716105   1.235   2.755   8.894 -0.4408 -0.2487  0.7224
  146SAPE  H17R16106   1.342   2.726   8.880 -0.1315  0.8281  0.8322
  146SAPE  H17S16107   1.235   2.851   8.949 -0.5219  0.6916 -0.8453
  146SAPE  C21816108   1.178   2.771   8.752 -0.0225 -0.1027 -0.1095
  146SAPE  H18R16109   1.069   2.784   8.768 -0.6523 -2.7808 -1.6432
  146SAPE  H18S16110   1.192   2.681   8.688 -2.9443 -0.5987 -0.1977
  146SAPE  C21916111   1.230   2.891   8.680  0.2562 -0.2522 -0.0722
  146SAPE  H19R16112   1.333   2.858   8.654  0.1111  0.4157 -1.5974
  146SAPE  H19S16113   1.233   2.982   8.743  2.6725  0.0060 -0.4919
  146SAPE  C22016114   1.165   2.930   8.548  0.0761  0.2734 -0.3974
  146SAPE  H20R16115   1.216   3.020   8.506 -0.6797  1.0348  0.2611
  146SAPE  H20S16116   1.061   2.957   8.575 -0.2590 -2.7688  1.8648
  146SAPE  H20T16117   1.178   2.859   8.465  3.7028 -0.1254  0.3496
  146SAPE   C3316118   1.540   2.997  10.403 -0.6795 -0.2461 -0.1928
  146SAPE   H3X16119   1.637   2.984  10.351  0.3957  0.2811  1.5689
  146SAPE   H3Y16120   1.573   3.019  10.507 -0.2967 -0.1988 -0.3257
  146SAPE   C3416121   1.476   3.109  10.331  0.2626  0.2950 -0.3722
  146SAPE   H4X16122   1.547   3.194  10.342 -1.3265  1.4196  1.9326
  146SAPE   H4Y16123   1.389   3.123  10.398 -1.1175  1.4246 -2.2928
  146SAPE   C3516124   1.424   3.089  10.192  0.6389  0.0535  0.3846
  146SAPE   H5X16125   1.346   3.010  10.187  0.8028 -0.2474  2.1086
  146SAPE   H5Y16126   1.512   3.050  10.137  0.4819  0.4356 -0.1497
  146SAPE   C3616127   1.376   3.218  10.121  0.2958 -0.1089 -0.0491
  146SAPE   H6X16128   1.451   3.299  10.135  2.0711 -1.6064 -0.4283
  146SAPE   H6Y16129   1.280   3.257  10.161  1.0976 -0.2299  2.1116
  146SAPE   C3716130   1.342   3.186   9.969  0.2288 -0.1969 -1.3144
  146SAPE   H7X16131   1.253   3.120   9.956 -0.7153  1.0407 -1.3915
  146SAPE   H7Y16132   1.440   3.146   9.939  0.3274 -1.1516  0.1467
  146SAPE   C3816133   1.326   3.308   9.885  0.3776  0.0038 -0.2280
  146SAPE   H8X16134   1.422   3.364   9.888  0.0649  0.7434 -2.2341
  146SAPE   H8Y16135   1.249   3.369   9.935  0.1706 -1.9703  2.0303
  146SAPE   C3916136   1.290   3.279   9.729  0.1498 -0.0262  0.0567
  146SAPE   H9X16137   1.183   3.255   9.744  0.3154 -0.3212  0.7886
  146SAPE   H9Y16138   1.338   3.180   9.713  0.3594  0.1855 -0.6659
  146SAPE  C31016139   1.313   3.382   9.623 -0.0430  0.4396  0.1843
  146SAPE  H10X16140   1.420   3.413   9.625 -0.3108  1.7277 -2.0894
  146SAPE  H10Y16141   1.253   3.472   9.646 -1.0367  0.7299 -3.0042
  146SAPE  C31116142   1.264   3.337   9.487 -0.2581 -0.2277 -0.4425
  146SAPE  H11X16143   1.154   3.323   9.481 -0.5766  0.6337  2.0491
  146SAPE  H11Y16144   1.306   3.234   9.484 -0.1855 -0.1786 -1.4753
  146SAPE  C31216145   1.314   3.424   9.367  0.2531  0.2726 -0.3569
  146SAPE  H12X16146   1.423   3.442   9.375  0.0125  1.3475  1.0454
  146SAPE  H12Y16147   1.272   3.524   9.393  3.2744  1.0714  2.0627
  146SAPE  C31316148   1.246   3.393   9.235  0.6734 -0.1269  0.4500
  146SAPE  H13X16149   1.137   3.376   9.247  0.6062 -1.2753 -1.4454
  146SAPE  H13Y16150   1.300   3.300   9.206  0.3481 -0.3110  0.4336
  146SAPE  C31416151   1.272   3.491   9.127 -0.4331 -0.1765  1.0497
  146SAPE  H14X16152   1.376   3.528   9.131 -0.7228  1.2128 -1.6914
  146SAPE  H14Y16153   1.205   3.577   9.149  1.2676  1.1610  1.1605
  146SAPE  C31516154   1.244   3.437   8.983 -0.2718 -0.1269 -0.1815
  146SAPE  H15X16155   1.138   3.410   8.962 -0.4351 -0.3409  0.8915
  146SAPE  H15Y16156   1.310   3.348   8.970 -0.3350 -0.3897  1.1960
  146SAPE  C31616157   1.290   3.535   8.878  0.0605 -0.3724 -0.4685
  146SAPE  H16X16158   1.399   3.557   8.877  0.1393 -0.7701 -0.8245
  146SAPE  H16Y16159   1.230   3.626   8.899  1.0994 -0.0399  1.3401
  146SAPE  C31716160   1.273   3.487   8.735 -0.6536 -0.2635 -0.1818
  146SAPE  H17X16161   1.169   3.453   8.713 -0.8021  0.1263 -0.1023
  146SAPE  H17Y16162   1.321   3.387   8.730 -2.0642 -1.0711  1.1159
  146SAPE  C31816163   1.313   3.590   8.630  0.2986 -0.8092 -0.4890
  146SAPE  H18X16164   1.284   3.559   8.527  0.3076  0.6930 -0.9675
  146SAPE  H18Y16165   1.414   3.630   8.654  0.4193 -2.7741  2.8903
  146SAPE  H18Z16166   1.242   3.672   8.656  0.7728 -0.6458  0.3442
  147SAPE     N16167   5.718   5.999  10.965 -0.1435 -0.1237 -0.3271
  147SAPE   HN116168   5.805   6.032  10.919  0.4102  0.4983  1.1209
  147SAPE   HN216169   5.750   5.913  11.014  0.3271  0.3246  0.1527
  147SAPE   HN316170   5.651   5.973  10.889 -0.6604  0.4577 -0.0717
  147SAPE   C1216171   5.647   6.095  11.054  0.2368  0.5702  0.3547
  147SAPE  H12A16172   5.715   6.109  11.140  3.0475 -1.5813 -1.3553
  147SAPE  H12B16173   5.545   6.061  11.082  0.6029  0.0743  1.1179
  147SAPE   C1116174   5.623   6.230  10.977 -0.0472 -0.2454  0.0729
  147SAPE  H11A16175   5.573   6.300  11.047  0.0254 -0.9403  0.8424
  147SAPE  H11B16176   5.558   6.217  10.888  1.9578  0.3912 -1.5861
  147SAPE     P16177   5.752   6.412  10.826 -0.1922 -0.0342  0.4580
  147SAPE   O1316178   5.705   6.533  10.903  0.3795 -0.5386  0.2082
  147SAPE   O1416179   5.894   6.419  10.781  0.3804 -0.8429 -0.5835
  147SAPE   O1216180   5.748   6.292  10.935  0.1622 -0.6417 -0.4410
  147SAPE   O1116181   5.651   6.382  10.701  0.1685  0.3993 -0.2436
  147SAPE    C116182   5.665   6.260  10.626 -0.4674 -0.1061  0.2928
  147SAPE    HA16183   5.732   6.184  10.672  1.5427  0.0918 -2.0860
  147SAPE    HB16184   5.564   6.213  10.624 -0.0932 -0.9530  0.6881
  147SAPE    C216185   5.711   6.288  10.480 -0.1405 -0.3041 -0.3402
  147SAPE    HS16186   5.810   6.335  10.492 -1.1867  1.6784  1.2290
  147SAPE   O2116187   5.620   6.377  10.416 -0.4801 -0.1625  0.7657
  147SAPE   C2116188   5.672   6.450  10.318  0.4953  0.4459  0.5895
  147SAPE   O2216189   5.784   6.472  10.286  0.0358  0.1249  0.2734
  147SAPE   C2216190   5.548   6.493  10.224 -0.0667 -0.0587 -0.8542
  147SAPE   H2R16191   5.457   6.468  10.282  0.1228 -0.8786 -0.8894
  147SAPE   H2S16192   5.541   6.600  10.196 -0.7938 -0.2621 -1.4750
  147SAPE    C316193   5.729   6.150  10.408 -0.6185 -0.3523 -0.0109
  147SAPE    HX16194   5.627   6.105  10.401 -1.5682  1.7887 -0.8414
  147SAPE    HY16195   5.795   6.091  10.475  1.6768  1.9687 -0.1050
  147SAPE   O3116196   5.788   6.174  10.283 -0.3649 -0.7712  0.6742
  147SAPE   C3116197   5.921   6.196  10.269 -0.1622  0.7158  0.6581
  147SAPE   O3216198   6.003   6.185  10.359 -0.7104  0.0193 -0.3929
  147SAPE   C3216199   5.951   6.227  10.117 -0.1374 -0.2204 -0.4458
  147SAPE   H2X16200   6.057   6.197  10.099  0.3360  1.3273 -0.3446
  147SAPE   H2Y16201   5.939   6.335  10.098 -1.5486 -0.2725  0.0505
  147SAPE   C2316202   5.557   6.420  10.087  0.0180  0.1002  0.7612
  147SAPE   H3R16203   5.544   6.310  10.099  4.9093 -0.7454  0.1483
  147SAPE   H3S16204   5.657   6.438  10.042 -0.8006  0.2094 -1.0613
  147SAPE   C2416205   5.455   6.479   9.985  0.0666 -0.5956 -0.1477
  147SAPE   H4R16206   5.468   6.589   9.998  1.1391 -0.9205  1.9532
  147SAPE   H4S16207   5.350   6.459  10.014 -0.1528  2.1269  1.2592
  147SAPE   C2516208   5.476   6.433   9.841 -0.0890 -0.0923 -0.0404
  147SAPE   H5R16209   5.560   6.362   9.833  0.4690  0.6290 -0.6163
  147SAPE   C2616210   5.415   6.492   9.737  0.0410 -0.7464  0.2104
  147SAPE   H6R16211   5.435   6.451   9.637  2.0043  2.8564 -1.0604
  147SAPE   C2716212   5.309   6.600   9.733  0.2083 -0.0706  0.4705
  147SAPE   H7R16213   5.245   6.598   9.824  0.6873  1.1894  0.8564
  147SAPE   H7S16214   5.243   6.592   9.644  0.1975 -1.0055  0.5515
  147SAPE   C2816215   5.382   6.729   9.727 -0.2782  0.0131 -0.8287
  147SAPE   H8R16216   5.405   6.776   9.824 -0.2132 -0.7432 -0.4688
  147SAPE   C2916217   5.427   6.786   9.609 -0.3920 -0.3054  0.4124
  147SAPE   H9R16218   5.495   6.871   9.620  1.5867 -1.7559  0.0956
  147SAPE  C21016219   5.413   6.736   9.469  0.3332  0.1720  0.1164
  147SAPE  H10R16220   5.435   6.627   9.473 -1.9991 -0.3844 -0.5898
  147SAPE  H10S16221   5.482   6.801   9.412  0.7457  3.1668  3.6704
  147SAPE  C21116222   5.268   6.735   9.420 -0.1720 -0.0177 -0.5834
  147SAPE  H11R16223   5.195   6.783   9.487  0.1173  1.8915 -1.5902
  147SAPE  C21216224   5.221   6.702   9.296  0.4340  0.0021  0.5412
  147SAPE  H12R16225   5.115   6.717   9.269  1.1989  2.2643 -1.5974
  147SAPE  C21316226   5.302   6.643   9.183  0.4215 -0.1187  0.4974
  147SAPE  H13R16227   5.391   6.590   9.222 -1.0514 -1.5664  2.0483
  147SAPE  H13S16228   5.348   6.726   9.124 -0.8342  0.0795 -0.2383
  147SAPE  C21416229   5.216   6.562   9.093 -0.0604 -0.4616 -0.4794
  147SAPE  H14R16230   5.141   6.507   9.152  0.1510 -1.4761 -1.1324
  147SAPE  C21516231   5.206   6.568   8.958 -0.2058  0.0572 -0.0636
  147SAPE  H15R16232   5.148   6.496   8.898 -0.3661  1.3852 -1.5789
  147SAPE  C21616233   5.292   6.645   8.867  0.8381 -0.0414  0.3178
  147SAPE  H16R16234   5.355   6.720   8.920 -1.2192  0.5249  2.0730
  147SAPE  H16S16235   5.232   6.706   8.796 -1.1124 -2.5582 -0.3100
  147SAPE  C21716236   5.394   6.554   8.804 -0.6318  0.2424 -0.2381
  147SAPE  H17R16237   5.337   6.475   8.751 -3.8929  1.1483  1.6200
  147SAPE  H17S16238   5.458   6.505   8.880  0.1493 -0.0986 -1.1022
  147SAPE  C21816239   5.496   6.637   8.719  0.2617 -0.7067  0.6393
  147SAPE  H18R16240   5.560   6.564   8.665 -0.4213 -0.1498 -0.9969
  147SAPE  H18S16241   5.549   6.705   8.789 -1.6517  0.4366  1.0327
  147SAPE  C21916242   5.429   6.717   8.605 -0.4264 -0.0629 -0.6024
  147SAPE  H19R16243   5.391   6.814   8.643 -0.2959  0.3195 -1.4221
  147SAPE  H19S16244   5.345   6.668   8.551 -2.5294  0.0247  2.3739
  147SAPE  C22016245   5.537   6.762   8.500  0.4449  0.4836 -0.0717
  147SAPE  H20R16246   5.622   6.816   8.547 -0.7249  1.6837  0.7835
  147SAPE  H20S16247   5.491   6.840   8.436  1.5825  0.1657 -1.3123
  147SAPE  H20T16248   5.562   6.671   8.442 -0.3570 -0.3555  0.8508
  147SAPE   C3316249   5.851   6.160  10.018  0.2985 -0.5050  0.1621
  147SAPE   H3X16250   5.743   6.178  10.037  0.2577  2.0724 -1.8186
  147SAPE   H3Y16251   5.872   6.051  10.014 -4.0901 -1.5160  0.2621
  147SAPE   C3416252   5.855   6.229   9.878  0.0184 -0.4443 -0.1859
  147SAPE   H4X16253   5.964   6.240   9.859 -0.1734  4.4968  0.1161
  147SAPE   H4Y16254   5.819   6.334   9.887 -1.9779 -1.1964  1.2749
  147SAPE   C3516255   5.783   6.154   9.763 -0.1033 -0.3079  0.8806
  147SAPE   H5X16256   5.674   6.144   9.784 -0.5442 -0.2342 -1.1527
  147SAPE   H5Y16257   5.836   6.060   9.739  1.0468  0.7711 -1.0197
  147SAPE   C3616258   5.793   6.246   9.636  0.5982  0.3924 -0.9969
  147SAPE   H6X16259   5.901   6.268   9.622  1.2031 -2.2875 -1.1784
  147SAPE   H6Y16260   5.750   6.345   9.661  0.8388 -0.0094  1.1513
  147SAPE   C3716261   5.718   6.192   9.516  0.5120 -0.1330 -0.0305
  147SAPE   H7X16262   5.609   6.181   9.535  0.8888 -2.3517  1.1372
  147SAPE   H7Y16263   5.760   6.092   9.491  0.8917  0.2237 -0.8831
  147SAPE   C3816264   5.728   6.281   9.395 -0.5528 -0.7427  0.3821
  147SAPE   H8X16265   5.832   6.318   9.391  0.0534 -2.4685 -1.7087
  147SAPE   H8Y16266   5.660   6.370   9.403 -0.8729 -1.0430  1.1009
  147SAPE   C3916267   5.690   6.222   9.258  0.4436  0.3895 -0.4577
  147SAPE   H9X16268   5.583   6.192   9.254  0.8770 -1.2045 -1.2245
  147SAPE   H9Y16269   5.744   6.126   9.242 -0.0444  0.1731 -0.8488
  147SAPE  C31016270   5.739   6.312   9.139  0.0965  0.1566 -0.8659
  147SAPE  H10X16271   5.828   6.375   9.163  0.6816 -1.2400  0.7871
  147SAPE  H10Y16272   5.659   6.388   9.126 -0.2378 -0.2891 -1.4294
  147SAPE  C31116273   5.768   6.242   9.007 -0.8243 -0.1792  0.0445
  147SAPE  H11X16274   5.680   6.202   8.952  0.1616 -0.8689 -1.1014
  147SAPE  H11Y16275   5.834   6.154   9.019 -3.3419 -2.3001 -0.8787
  147SAPE  C31216276   5.856   6.326   8.905  0.1524  0.4469  0.0630
  147SAPE  H12X16277   5.902   6.253   8.835  1.6563  1.1138  0.3412
  147SAPE  H12Y16278   5.944   6.362   8.962 -0.0218  1.2659 -0.1731
  147SAPE  C31316279   5.773   6.435   8.841 -0.9602  0.2115  0.1148
  147SAPE  H13X16280   5.708   6.485   8.916 -0.3317  2.2406 -0.6377
  147SAPE  H13Y16281   5.711   6.381   8.767  0.0674 -0.7370 -0.0773
  147SAPE  C31416282   5.875   6.521   8.763  0.3142  0.3554  0.1948
  147SAPE  H14X16283   5.808   6.584   8.699  0.5277  0.1417 -0.2432
  147SAPE  H14Y16284   5.942   6.465   8.695 -0.6847 -1.3535  0.5567
  147SAPE  C31516285   5.951   6.625   8.848 -0.1849 -0.1317 -0.2306
  147SAPE  H15X16286   6.022   6.574   8.918 -1.1658 -1.3181 -0.0568
  147SAPE  H15Y16287   5.878   6.681   8.910  0.3895  0.4866 -0.1085
  147SAPE  C31616288   6.039   6.722   8.775 -0.4157 -0.2189 -0.3006
  147SAPE  H16X16289   6.122   6.667   8.727  0.6843  4.0332 -3.9470
  147SAPE  H16Y16290   6.076   6.793   8.852  0.6795 -2.3851  1.2752
  147SAPE  C31716291   5.974   6.806   8.662 -0.2569  0.0372  0.6244
  147SAPE  H17X16292   5.866   6.797   8.685 -0.3780  0.2386  0.1440
  147SAPE  H17Y16293   5.999   6.761   8.564  1.0847  2.5318 -0.2613
  147SAPE  C31816294   6.008   6.955   8.671  0.3867  0.4094  0.2240
  147SAPE  H18X16295   6.117   6.974   8.677  0.0413  2.1439  3.5699
  147SAPE  H18Y16296   5.972   6.989   8.770  3.3220  0.3053  1.4353
  147SAPE  H18Z16297   5.961   7.018   8.591 -0.5520 -2.0337 -1.2520
  148SAPE     N16298   4.873   3.118  10.499  0.6920 -0.3254 -0.2436
  148SAPE   HN116299   4.900   3.207  10.451  0.0650 -0.1461 -0.2780
  148SAPE   HN216300   4.902   3.125  10.598 -1.2467 -0.7361  0.3903
  148SAPE   HN316301   4.937   3.045  10.464  0.0288 -1.6925  1.2681
  148SAPE   C1216302   4.725   3.087  10.499  0.0262 -0.4352  0.5636
  148SAPE  H12A16303   4.702   3.083  10.390 -0.3780  1.0908  0.5719
  148SAPE  H12B16304   4.666   3.172  10.540 -0.8761  0.2217 -1.9283
  148SAPE   C1116305   4.687   2.953  10.560  0.3851  0.6295 -0.5318
  148SAPE  H11A16306   4.578   2.936  10.558  0.3807 -0.0580  1.9077
  148SAPE  H11B16307   4.721   2.944  10.665 -1.1801  0.2198 -0.0387
  148SAPE     P16308   4.685   2.718  10.432  0.8741  0.0107 -0.0495
  148SAPE   O1316309   4.627   2.637  10.544  0.4055 -0.0405  0.3392
  148SAPE   O1416310   4.602   2.762  10.318 -0.2913 -0.4543  0.1089
  148SAPE   O1216311   4.755   2.843  10.492  0.3104  0.1120 -0.3232
  148SAPE   O1116312   4.812   2.643  10.371  0.1178  0.0675 -0.5063
  148SAPE    C116313   4.941   2.698  10.351 -0.3521 -0.2269 -0.6369
  148SAPE    HA16314   4.948   2.808  10.360 -2.5520 -0.0396 -0.7439
  148SAPE    HB16315   5.010   2.650  10.424 -0.4060 -0.4756 -0.7491
  148SAPE    C216316   4.971   2.645  10.208  0.4204 -0.0813  0.2317
  148SAPE    HS16317   5.074   2.676  10.179  0.0592  1.7087  0.7498
  148SAPE   O2116318   4.877   2.700  10.114 -0.0984 -0.3425 -0.0080
  148SAPE   C2116319   4.906   2.829  10.081  0.0770  0.0776 -0.5313
  148SAPE   O2216320   5.010   2.879  10.123 -0.2025 -0.4090  0.2538
  148SAPE   C2216321   4.800   2.880   9.987 -0.7125 -0.6155 -0.1884
  148SAPE   H2R16322   4.839   2.860   9.885 -1.2727  0.3771 -0.6200
  148SAPE   H2S16323   4.704   2.827  10.002 -0.4440 -1.7149 -2.0758
  148SAPE    C316324   4.960   2.492  10.199  0.2112  0.0137 -0.0651
  148SAPE    HX16325   4.865   2.457  10.246  1.1496  0.5713  2.4416
  148SAPE    HY16326   5.052   2.460  10.254  0.5578 -0.0785 -0.6922
  148SAPE   O3116327   4.966   2.441  10.060 -0.0881 -0.3011  0.0754
  148SAPE   C3116328   4.854   2.421   9.995 -0.3234  0.4447 -0.0815
  148SAPE   O3216329   4.744   2.430  10.046  0.3271 -0.0888  0.2292
  148SAPE   C3216330   4.887   2.385   9.849  0.5980  0.0075  0.4503
  148SAPE   H2X16331   4.941   2.288   9.854 -0.1414 -0.3609  1.7179
  148SAPE   H2Y16332   4.956   2.459   9.802 -1.1788  1.1890 -0.4107
  148SAPE   C2316333   4.775   3.037   9.991  0.2389  0.1349 -0.4898
  148SAPE   H3R16334   4.873   3.089   9.996  1.0405 -1.4256  0.9689
  148SAPE   H3S16335   4.729   3.063  10.089 -0.2742 -0.6204 -0.5267
  148SAPE   C2416336   4.697   3.079   9.871 -0.1748  0.3289  0.8341
  148SAPE   H4R16337   4.758   3.059   9.781  0.8497 -2.5732  2.0370
  148SAPE   H4S16338   4.668   3.185   9.888  1.7459  0.9574  0.3779
  148SAPE   C2516339   4.559   3.020   9.845  0.3624 -0.0940  0.0507
  148SAPE   H5R16340   4.519   2.950   9.919 -1.0830 -0.9211 -1.4430
  148SAPE   C2616341   4.494   3.035   9.731 -0.1695  0.3750 -0.0981
  148SAPE   H6R16342   4.395   2.989   9.725  0.5942 -1.6044  1.6013
  148SAPE   C2716343   4.535   3.108   9.608 -0.2784 -0.0213  0.2600
  148SAPE   H7R16344   4.646   3.120   9.605 -0.4381  1.6808 -0.0814
  148SAPE   H7S16345   4.508   3.215   9.621 -0.7189 -0.4520  3.8813
  148SAPE   C2816346   4.483   3.060   9.476  0.0033  0.1769 -0.2872
  148SAPE   H8R16347   4.389   3.105   9.442 -2.1396 -3.9398 -0.4067
  148SAPE   C2916348   4.528   2.956   9.410 -0.2571  0.5437  0.2275
  148SAPE   H9R16349   4.490   2.936   9.309  1.3710 -0.9522 -0.1421
  148SAPE  C21016350   4.629   2.859   9.454  0.0053  0.0075 -0.0206
  148SAPE  H10R16351   4.659   2.880   9.559 -1.7605  2.7867  0.0188
  148SAPE  H10S16352   4.725   2.885   9.404 -0.1093  3.2354  1.2068
  148SAPE  C21116353   4.600   2.711   9.428  0.1543 -0.4212  0.6383
  148SAPE  H11R16354   4.552   2.663   9.515  0.3356 -2.8269 -0.5003
  148SAPE  C21216355   4.611   2.645   9.306  0.1856  0.3764 -0.2454
  148SAPE  H12R16356   4.590   2.537   9.300  0.4308  0.3575 -0.8004
  148SAPE  C21316357   4.660   2.706   9.179  0.0275 -0.4904 -0.1393
  148SAPE  H13R16358   4.757   2.663   9.145  1.0436  0.8980  0.9225
  148SAPE  H13S16359   4.679   2.813   9.199 -2.2565 -0.0143 -0.1618
  148SAPE  C21416360   4.570   2.693   9.065  0.2332  0.2179  0.1371
  148SAPE  H14R16361   4.472   2.644   9.077 -0.3998  1.2827 -0.5770
  148SAPE  C21516362   4.602   2.721   8.934 -0.1315  0.3518  0.4606
  148SAPE  H15R16363   4.538   2.688   8.851  0.8765 -1.1272  0.2323
  148SAPE  C21616364   4.732   2.784   8.888 -0.1552  0.6013  0.6505
  148SAPE  H16R16365   4.816   2.778   8.960  0.4849  2.3615  0.0985
  148SAPE  H16S16366   4.720   2.893   8.870 -0.2739  0.3653 -0.8610
  148SAPE  C21716367   4.790   2.728   8.756 -0.9664  0.2037 -0.1058
  148SAPE  H17R16368   4.735   2.739   8.660  1.1496  2.5617 -1.1609
  148SAPE  H17S16369   4.798   2.620   8.781 -0.8712  0.4425  0.9576
  148SAPE  C21816370   4.933   2.779   8.713  0.2802  0.3127  0.3942
  148SAPE  H18R16371   5.014   2.766   8.788  0.8285 -1.7170 -0.5068
  148SAPE  H18S16372   4.923   2.888   8.693  2.3255  0.5033  0.1771
  148SAPE  C21916373   5.005   2.713   8.595  0.7480  0.6890 -0.8303
  148SAPE  H19R16374   5.095   2.770   8.565  1.2244 -0.2032 -1.1415
  148SAPE  H19S16375   4.943   2.715   8.504  2.6125 -2.0457 -2.3185
  148SAPE  C22016376   5.049   2.566   8.611  0.1083 -0.4176  0.0264
  148SAPE  H20R16377   5.147   2.567   8.663 -0.6549  0.5150  1.4997
  148SAPE  H20S16378   5.065   2.520   8.510  1.5983 -0.2717  0.1693
  148SAPE  H20T16379   4.966   2.508   8.657 -1.2229  0.4553 -1.1968
  148SAPE   C3316380   4.763   2.374   9.767  1.1237 -0.2614 -0.2332
  148SAPE   H3X16381   4.734   2.476   9.735  1.9912  0.0101 -0.1633
  148SAPE   H3Y16382   4.677   2.346   9.833  1.9054 -1.7931  0.1930
  148SAPE   C3416383   4.760   2.272   9.653 -0.0458  0.5528 -0.5623
  148SAPE   H4X16384   4.660   2.281   9.606 -0.2271  1.8332  0.0189
  148SAPE   H4Y16385   4.753   2.169   9.695 -0.2451  0.7746 -0.0486
  148SAPE   C3516386   4.879   2.289   9.555  0.6938  0.1187  0.0552
  148SAPE   H5X16387   4.965   2.250   9.614  0.7332  2.1798  1.4711
  148SAPE   H5Y16388   4.894   2.397   9.537  0.8806 -0.0864 -1.0994
  148SAPE   C3616389   4.851   2.213   9.430  0.5221  0.3947  0.4548
  148SAPE   H6X16390   4.787   2.124   9.446  2.4149 -1.0907  0.0974
  148SAPE   H6Y16391   4.953   2.188   9.394 -1.4174 -1.0316 -4.9699
  148SAPE   C3716392   4.792   2.295   9.312 -0.1851 -0.3918  0.5872
  148SAPE   H7X16393   4.844   2.390   9.289  0.0915 -1.0814 -2.0158
  148SAPE   H7Y16394   4.687   2.317   9.343 -0.2136 -0.2162  0.3679
  148SAPE   C3816395   4.796   2.221   9.179  0.7371 -0.1336  0.0372
  148SAPE   H8X16396   4.717   2.143   9.179  0.9586 -0.3951  2.0675
  148SAPE   H8Y16397   4.894   2.169   9.178  1.9385  1.8936  2.0816
  148SAPE   C3916398   4.781   2.308   9.049 -0.0300 -0.1230 -0.0903
  148SAPE   H9X16399   4.862   2.383   9.058 -0.8706  0.8746 -0.6543
  148SAPE   H9Y16400   4.694   2.376   9.053  0.6715  0.8188 -0.4706
  148SAPE  C31016401   4.806   2.229   8.919  0.5905 -0.2090  0.9214
  148SAPE  H10X16402   4.788   2.301   8.836 -0.2988 -1.1555  0.2758
  148SAPE  H10Y16403   4.716   2.166   8.903  0.7574  0.0173 -1.0616
  148SAPE  C31116404   4.933   2.148   8.910  0.6802  0.2879 -0.7745
  148SAPE  H11X16405   4.930   2.057   8.972  1.9606 -0.4720 -1.7611
  148SAPE  H11Y16406   5.018   2.207   8.952 -0.1168  1.1623 -0.3660
  148SAPE  C31216407   4.964   2.128   8.764 -0.9738 -0.6989  0.7405
  148SAPE  H12X16408   4.996   2.228   8.727 -2.8748  0.6728  2.5598
  148SAPE  H12Y16409   4.878   2.088   8.706  0.4963 -1.9233 -0.6609
  148SAPE  C31316410   5.085   2.037   8.748 -0.5276 -0.0217  0.0402
  148SAPE  H13X16411   5.089   2.015   8.639  0.4365  0.6168 -0.0681
  148SAPE  H13Y16412   5.065   1.940   8.797 -1.8457 -0.1455 -0.6941
  148SAPE  C31416413   5.212   2.105   8.803 -0.0636  0.1873 -0.2237
  148SAPE  H14X16414   5.204   2.106   8.914  0.0837  1.1051 -0.2095
  148SAPE  H14Y16415   5.214   2.209   8.764  0.4888 -0.7794 -2.9281
  148SAPE  C31516416   5.343   2.034   8.760 -0.1969  0.1686  0.2170
  148SAPE  H15X16417   5.341   2.012   8.651 -0.4959  1.0997  0.0263
  148SAPE  H15Y16418   5.379   1.939   8.804  1.9201  0.3834 -0.9276
  148SAPE  C31616419   5.460   2.137   8.766 -0.3317  0.4708 -0.1815
  148SAPE  H16X16420   5.481   2.178   8.867 -1.7988 -2.0272  1.2505
  148SAPE  H16Y16421   5.419   2.223   8.710  1.2979  0.8973 -0.7920
  148SAPE  C31716422   5.589   2.070   8.723 -1.2018 -0.9203 -0.4416
  148SAPE  H17X16423   5.568   2.036   8.619 -3.4544 -1.0435 -0.0002
  148SAPE  H17Y16424   5.599   1.985   8.793 -1.2104 -0.1207  0.5490
  148SAPE  C31816425   5.716   2.160   8.722 -0.0594  0.6925  0.1601
  148SAPE  H18X16426   5.702   2.248   8.656 -0.6350 -0.0377 -0.7168
  148SAPE  H18Y16427   5.794   2.094   8.680 -0.8281  0.9337 -1.7319
  148SAPE  H18Z16428   5.751   2.189   8.823  1.3619  2.5303 -0.8085
  149SAPE     N16429   0.347   2.003  10.841  0.0338 -0.2535 -0.3331
  149SAPE   HN116430   0.412   1.957  10.775  1.2384  2.6437 -1.3175
  149SAPE   HN216431   0.285   1.934  10.889  1.8340 -1.0433  0.9686
  149SAPE   HN316432   0.301   2.065  10.772  2.0710  0.7086 -0.9043
  149SAPE   C1216433   0.425   2.078  10.944 -0.2540 -0.0465  0.0260
  149SAPE  H12A16434   0.481   2.163  10.899  2.5788 -1.2032  1.1123
  149SAPE  H12B16435   0.502   2.010  10.987 -1.5011 -0.8754  1.0439
  149SAPE   C1116436   0.341   2.111  11.062 -0.6523 -0.9949 -0.1625
  149SAPE  H11A16437   0.392   2.180  11.131 -1.9757 -0.1238 -0.0161
  149SAPE  H11B16438   0.321   2.015  11.115 -0.2336  0.3820  2.6296
  149SAPE     P16439   0.198   2.312  10.961 -0.0862  0.9650 -0.1245
  149SAPE   O1316440   0.085   2.375  11.038 -0.3739 -0.1033 -0.2372
  149SAPE   O1416441   0.330   2.382  10.956  0.3309  0.0466 -0.3781
  149SAPE   O1216442   0.217   2.169  11.014 -0.2077 -0.1398 -0.2602
  149SAPE   O1116443   0.132   2.287  10.813  0.0853  0.2163 -0.0385
  149SAPE    C116444   0.031   2.184  10.804  0.0778  0.1808 -0.1261
  149SAPE    HA16445   0.069   2.081  10.821 -1.2252 -0.5454 -1.3539
  149SAPE    HB16446  -0.044   2.190  10.885  0.0150 -1.9022  0.0378
  149SAPE    C216447  -0.039   2.179  10.671 -0.2749  0.4559  0.0831
  149SAPE    HS16448  -0.135   2.123  10.673  1.6418 -3.1566  0.3023
  149SAPE   O2116449   0.044   2.116  10.574 -0.0268  0.4635 -0.0183
  149SAPE   C2116450  -0.014   2.057  10.475  0.2687  0.0830  0.0855
  149SAPE   O2216451  -0.131   2.022  10.469 -0.1530 -0.3421 -0.0593
  149SAPE   C2216452   0.072   2.035  10.353 -0.3385 -0.7098 -0.9297
  149SAPE   H2R16453   0.140   2.122  10.339 -1.2314  0.2138  0.2500
  149SAPE   H2S16454   0.135   1.945  10.370  0.5945  0.2916  1.3626
  149SAPE    C316455  -0.070   2.326  10.634 -0.3481  1.0963  0.3937
  149SAPE    HX16456   0.025   2.383  10.623  0.0360 -0.0018 -3.0113
  149SAPE    HY16457  -0.135   2.370  10.713 -2.1720 -3.7278  1.9911
  149SAPE   O3116458  -0.128   2.339  10.500  0.1570 -0.0103 -0.2089
  149SAPE   C3116459  -0.260   2.320  10.497  0.5916 -0.9860  0.5489
  149SAPE   O3216460  -0.328   2.302  10.598  0.0652 -0.7854  0.7306
  149SAPE   C3216461  -0.310   2.341  10.354  0.6182 -0.2955 -0.0574
  149SAPE   H2X16462  -0.222   2.360  10.289  0.0949 -3.0860 -1.7449
  149SAPE   H2Y16463  -0.382   2.426  10.347  0.6107 -0.2814  0.1916
  149SAPE   C2316464  -0.011   2.010  10.223 -0.0489 -0.2439 -0.3324
  149SAPE   H3R16465  -0.094   2.083  10.218  1.1931  1.1399 -1.9873
  149SAPE   H3S16466  -0.050   1.907  10.239 -0.1688  0.0195  1.1458
  149SAPE   C2416467   0.080   2.019  10.101 -0.4283  1.3838  0.2043
  149SAPE   H4R16468   0.023   1.987  10.011  3.2188 -0.0673 -1.8145
  149SAPE   H4S16469   0.161   1.944  10.116 -0.1350  1.3707 -1.3277
  149SAPE   C2516470   0.140   2.154  10.074 -0.1442  0.2773 -0.3662
  149SAPE   H5R16471   0.229   2.159  10.139  0.1216  0.0914 -0.7141
  149SAPE   C2616472   0.117   2.255   9.985  0.4311 -0.2521  0.7372
  149SAPE   H6R16473   0.189   2.338   9.986  1.4747 -1.0910 -0.8702
  149SAPE   C2716474   0.015   2.256   9.880 -0.5004 -0.3386  0.3568
  149SAPE   H7R16475   0.020   2.358   9.837 -0.8185 -0.5221 -0.1364
  149SAPE   H7S16476  -0.087   2.242   9.922 -1.0085  1.3755 -0.2242
  149SAPE   C2816477   0.037   2.161   9.762 -0.7221 -0.5330 -0.3919
  149SAPE   H8R16478   0.090   2.066   9.779  0.1363 -0.0589 -0.3129
  149SAPE   C2916479  -0.025   2.172   9.647  0.2816 -0.2778 -0.1662
  149SAPE   H9R16480  -0.006   2.105   9.562  0.2432  0.0591 -0.4422
  149SAPE  C21016481  -0.118   2.287   9.606  0.6577 -0.4590  0.3316
  149SAPE  H10R16482  -0.124   2.290   9.495 -2.0314 -0.1759  0.4156
  149SAPE  H10S16483  -0.092   2.384   9.652  0.4765  0.0187 -0.5537
  149SAPE  C21116484  -0.261   2.276   9.647 -0.1593 -0.1993 -0.0503
  149SAPE  H11R16485  -0.282   2.309   9.750  1.7198 -2.4298  1.1358
  149SAPE  C21216486  -0.364   2.225   9.570 -0.2146 -0.4774  0.6210
  149SAPE  H12R16487  -0.470   2.227   9.597 -0.5353  1.1629 -0.5854
  149SAPE  C21316488  -0.349   2.166   9.433 -0.9461 -0.0284  0.4005
  149SAPE  H13R16489  -0.275   2.228   9.377 -0.9680 -0.5492 -0.2179
  149SAPE  H13S16490  -0.442   2.192   9.377 -0.8099  1.4483  0.8107
  149SAPE  C21416491  -0.316   2.020   9.426  0.5549 -0.5060 -0.3793
  149SAPE  H14R16492  -0.269   1.978   9.517  3.1790  2.6808 -0.1088
  149SAPE  C21516493  -0.345   1.931   9.323 -0.3237 -0.7272 -0.4350
  149SAPE  H15R16494  -0.309   1.829   9.344  2.1932  0.1766 -0.0079
  149SAPE  C21616495  -0.410   1.967   9.198  0.1033  0.3558  0.4854
  149SAPE  H16R16496  -0.403   2.074   9.167 -1.1720  0.3800  0.2149
  149SAPE  H16S16497  -0.519   1.948   9.202 -0.2681  2.5543  2.1932
  149SAPE  C21716498  -0.364   1.881   9.070  0.0813 -0.0731 -0.2989
  149SAPE  H17R16499  -0.381   1.773   9.090  0.3651  0.0037  0.3928
  149SAPE  H17S16500  -0.256   1.906   9.065 -0.1699  1.2294  0.2895
  149SAPE  C21816501  -0.445   1.924   8.951  0.2905 -0.1739  0.2769
  149SAPE  H18R16502  -0.545   1.968   8.972  1.2400  2.2105  0.1607
  149SAPE  H18S16503  -0.472   1.839   8.884 -0.8165  0.8370 -0.6182
  149SAPE  C21916504  -0.374   2.032   8.860 -0.0255 -0.1325  0.2219
  149SAPE  H19R16505  -0.349   2.117   8.927 -0.6235 -0.0251  0.3176
  149SAPE  H19S16506  -0.449   2.069   8.787  1.6161  0.3863 -1.2721
  149SAPE  C22016507  -0.255   1.966   8.794 -0.4934 -1.1225 -0.1086
  149SAPE  H20R16508  -0.197   1.905   8.867 -0.6512 -1.6034 -0.3814
  149SAPE  H20S16509  -0.186   2.040   8.747 -0.2297 -0.3719  1.3860
  149SAPE  H20T16510  -0.281   1.907   8.704  1.5291 -1.4618 -0.5331
  149SAPE   C3316511  -0.367   2.205  10.299  0.0787  0.4488  0.1668
  149SAPE   H3X16512  -0.454   2.185  10.365 -0.8017 -2.6683 -1.6908
  149SAPE   H3Y16513  -0.308   2.114  10.323 -2.7981 -2.0004 -1.3059
  149SAPE   C3416514  -0.399   2.204  10.151 -0.6773 -0.3353 -0.8212
  149SAPE   H4X16515  -0.301   2.219  10.102 -0.0122 -0.5746  0.4091
  149SAPE   H4Y16516  -0.471   2.284  10.124 -1.9640 -0.9465  0.6167
  149SAPE   C3516517  -0.458   2.077  10.095 -0.0744  0.0485  0.2429
  149SAPE   H5X16518  -0.556   2.051  10.141 -0.6680  0.4272 -0.7874
  149SAPE   H5Y16519  -0.395   1.987  10.110  1.5363  0.6694 -2.2439
  149SAPE   C3616520  -0.470   2.084   9.942 -0.1567 -0.3900  0.3319
  149SAPE   H6X16521  -0.370   2.093   9.895  0.0647 -1.7628  0.5172
  149SAPE   H6Y16522  -0.536   2.170   9.916  1.8199  1.1364  0.1137
  149SAPE   C3716523  -0.526   1.959   9.888  0.1490  0.7965  0.1419
  149SAPE   H7X16524  -0.614   1.926   9.948  0.4472 -0.0694  0.1133
  149SAPE   H7Y16525  -0.440   1.891   9.905 -0.4363  0.2459  0.9696
  149SAPE   C3816526  -0.567   1.967   9.741  0.4400  0.5298 -0.2826
  149SAPE   H8X16527  -0.483   2.010   9.684 -0.6294  3.3283  0.0800
  149SAPE   H8Y16528  -0.648   2.043   9.743  0.5083  0.6176  1.7099
  149SAPE   C3916529  -0.626   1.830   9.676 -1.1866  0.1621  0.3720
  149SAPE   H9X16530  -0.725   1.819   9.724 -0.9222  1.0950  1.1757
  149SAPE   H9Y16531  -0.562   1.746   9.713 -1.8815  0.0639  1.3820
  149SAPE  C31016532  -0.638   1.839   9.520  0.4367 -0.1904 -0.4907
  149SAPE  H10X16533  -0.540   1.812   9.475 -0.2252 -1.5176 -1.2049
  149SAPE  H10Y16534  -0.654   1.948   9.505  1.3120 -0.3310 -3.0079
  149SAPE  C31116535  -0.747   1.744   9.472  0.3171  0.1681 -0.2622
  149SAPE  H11X16536  -0.793   1.761   9.373  2.1561  2.0064 -0.8681
  149SAPE  H11Y16537  -0.841   1.742   9.531  0.9848 -0.8963  0.8291
  149SAPE  C31216538  -0.689   1.607   9.452 -0.8346 -0.2829 -0.1156
  149SAPE  H12X16539  -0.762   1.524   9.452 -0.7355 -0.4182 -1.9096
  149SAPE  H12Y16540  -0.620   1.584   9.536  0.2621  0.9148 -0.6392
  149SAPE  C31316541  -0.610   1.592   9.316  0.0346  0.3310  0.1478
  149SAPE  H13X16542  -0.517   1.652   9.324  0.5997 -0.7768  2.9581
  149SAPE  H13Y16543  -0.674   1.635   9.235  0.1747  0.1533 -0.0586
  149SAPE  C31416544  -0.576   1.447   9.284  0.2997  0.1333  0.0172
  149SAPE  H14X16545  -0.665   1.384   9.305  2.1340 -2.7365 -0.3336
  149SAPE  H14Y16546  -0.503   1.412   9.359  0.9497  1.2802 -0.0635
  149SAPE  C31516547  -0.517   1.414   9.144 -0.4011  0.1460 -0.1022
  149SAPE  H15X16548  -0.466   1.316   9.136  0.5877  0.4027  2.1958
  149SAPE  H15Y16549  -0.440   1.492   9.127 -1.5150  0.7175 -3.2244
  149SAPE  C31616550  -0.611   1.417   9.032 -0.1139  0.1976  0.0423
  149SAPE  H16X16551  -0.684   1.499   9.051 -2.7971 -1.9355 -0.5627
  149SAPE  H16Y16552  -0.666   1.322   9.025  0.2619  0.0841 -3.5836
  149SAPE  C31716553  -0.538   1.436   8.894  0.2126 -0.1015 -0.0158
  149SAPE  H17X16554  -0.470   1.353   8.866 -1.6497 -0.2277 -5.1063
  149SAPE  H17Y16555  -0.485   1.533   8.908 -0.5353  0.2699  0.3586
  149SAPE  C31816556  -0.630   1.452   8.769 -0.8174 -0.4207 -0.1830
  149SAPE  H18X16557  -0.662   1.362   8.714 -0.6844 -0.7912  0.3377
  149SAPE  H18Y16558  -0.572   1.507   8.691 -1.2183  0.0166 -0.1798
  149SAPE  H18Z16559  -0.725   1.501   8.800  0.1501  0.5680  1.4101
  150SAPE     N16560   1.795   0.244  10.681  0.1890  0.3632  0.0229
  150SAPE   HN116561   1.703   0.195  10.673 -0.0226  0.3032  2.2141
  150SAPE   HN216562   1.837   0.267  10.588  1.4739 -0.4371  0.3809
  150SAPE   HN316563   1.853   0.171  10.727 -0.2305 -0.5169 -0.7964
  150SAPE   C1216564   1.771   0.353  10.780  0.3916  0.5014  0.1515
  150SAPE  H12A16565   1.871   0.396  10.804  0.7273  0.3577 -0.9131
  150SAPE  H12B16566   1.734   0.302  10.871  0.2371  1.2507  0.5091
  150SAPE   C1116567   1.675   0.456  10.726  0.5109 -0.2392  0.0299
  150SAPE  H11A16568   1.595   0.397  10.677 -0.7716  0.4242  1.2628
  150SAPE  H11B16569   1.725   0.524  10.654 -2.1559 -2.2302 -4.0546
  150SAPE     P16570   1.482   0.597  10.849 -0.3982  0.0418  0.6406
  150SAPE   O1316571   1.380   0.491  10.877  0.2190 -0.1471  0.2060
  150SAPE   O1416572   1.481   0.712  10.943  0.1415 -0.2576  0.2827
  150SAPE   O1216573   1.616   0.524  10.840  0.0620  0.4537  0.0964
  150SAPE   O1116574   1.462   0.647  10.696  0.1493  0.0438 -0.2553
  150SAPE    C116575   1.541   0.746  10.626 -0.4232  1.0944 -0.3438
  150SAPE    HA16576   1.500   0.846  10.653 -0.4198  1.0253 -0.0755
  150SAPE    HB16577   1.642   0.742  10.672 -0.6268  1.5610  0.1714
  150SAPE    C216578   1.541   0.737  10.475  0.6367  0.8073  0.2762
  150SAPE    HS16579   1.435   0.739  10.438  0.4304 -0.6414  0.7273
  150SAPE   O2116580   1.607   0.610  10.445 -0.4709 -0.0674 -0.1750
  150SAPE   C2116581   1.556   0.551  10.337  0.6912 -0.2272  0.3684
  150SAPE   O2216582   1.449   0.582  10.284 -0.2154  0.3712  0.0260
  150SAPE   C2216583   1.648   0.446  10.283  0.1008  0.7137 -0.1773
  150SAPE   H2R16584   1.725   0.486  10.214  1.2949 -2.2444 -0.7087
  150SAPE   H2S16585   1.708   0.417  10.372  1.8620  1.8628 -0.9327
  150SAPE    C316586   1.617   0.856  10.409 -0.5974 -0.0287  0.5716
  150SAPE    HX16587   1.724   0.837  10.430  0.0864  1.4975 -1.3096
  150SAPE    HY16588   1.583   0.955  10.447  1.2457  2.2921 -3.2791
  150SAPE   O3116589   1.594   0.843  10.268 -0.4779 -0.2217  0.2487
  150SAPE   C3116590   1.668   0.922  10.199  0.7659 -0.7645 -0.0409
  150SAPE   O3216591   1.757   0.992  10.245  0.6428  0.4817 -0.2383
  150SAPE   C3216592   1.618   0.924  10.058 -0.1113  0.2989  0.5602
  150SAPE   H2X16593   1.520   0.976  10.068  0.3374  0.8200  3.0296
  150SAPE   H2Y16594   1.614   0.818  10.025  1.7525 -0.0288  1.2763
  150SAPE   C2316595   1.580   0.322  10.214 -0.0358 -0.8774  0.1820
  150SAPE   H3R16596   1.509   0.277  10.287 -1.6457  1.1051 -0.0833
  150SAPE   H3S16597   1.653   0.242  10.188  1.4171  0.3052  0.4613
  150SAPE   C2416598   1.518   0.359  10.074  0.1310 -0.6611  0.0705
  150SAPE   H4R16599   1.589   0.427  10.023 -0.5180 -0.8045 -1.0605
  150SAPE   H4S16600   1.427   0.419  10.096  0.5411 -0.0369  0.0786
  150SAPE   C2516601   1.476   0.236   9.999 -0.2706 -0.0633 -0.4796
  150SAPE   H5R16602   1.410   0.177  10.065  3.2184 -0.7078  2.8580
  150SAPE   C2616603   1.509   0.207   9.871 -0.3752 -0.1936 -0.8423
  150SAPE   H6R16604   1.471   0.106   9.846  0.5156 -1.6200  2.8486
  150SAPE   C2716605   1.592   0.295   9.774  0.7064 -0.0517  0.0335
  150SAPE   H7R16606   1.661   0.361   9.830  0.9616  1.9195 -2.4166
  150SAPE   H7S16607   1.516   0.364   9.731 -0.0933 -1.4040 -0.7748
  150SAPE   C2816608   1.673   0.215   9.676 -0.4660 -0.5473 -0.3833
  150SAPE   H8R16609   1.782   0.209   9.680 -0.4595 -0.4434 -0.3886
  150SAPE   C2916610   1.624   0.166   9.560  0.0512  0.6344 -0.7039
  150SAPE   H9R16611   1.691   0.120   9.486  0.9157 -0.4126  0.6827
  150SAPE  C21016612   1.482   0.169   9.521  0.2331 -0.5708  0.6981
  150SAPE  H10R16613   1.411   0.172   9.606  0.9714  0.0354  1.3035
  150SAPE  H10S16614   1.464   0.075   9.464  1.6452 -1.7171  2.0715
  150SAPE  C21116615   1.444   0.285   9.431  0.9247 -0.5131  0.1195
  150SAPE  H11R16616   1.407   0.368   9.494  0.7899  0.8718 -1.6980
  150SAPE  C21216617   1.424   0.282   9.295 -0.3115 -0.6414  0.8572
  150SAPE  H12R16618   1.391   0.371   9.240 -0.8586 -1.3073  0.0829
  150SAPE  C21316619   1.443   0.167   9.201 -0.4139 -0.4274  0.7665
  150SAPE  H13R16620   1.520   0.097   9.238  0.0994 -0.2717  0.0155
  150SAPE  H13S16621   1.483   0.205   9.104 -2.5755 -0.4029 -0.1895
  150SAPE  C21416622   1.317   0.092   9.170 -0.5125  0.0353  0.3178
  150SAPE  H14R16623   1.289   0.042   9.264 -1.0040  1.1610  0.7943
  150SAPE  C21516624   1.242   0.068   9.059 -0.7126 -0.7015 -0.7377
  150SAPE  H15R16625   1.157  -0.002   9.058 -0.8498 -0.5249 -1.8548
  150SAPE  C21616626   1.274   0.112   8.926  0.3058 -0.1968 -0.3467
  150SAPE  H16R16627   1.357   0.185   8.940  0.3545  0.0180 -1.6399
  150SAPE  H16S16628   1.189   0.165   8.879 -0.3194 -0.9825 -0.1130
  150SAPE  C21716629   1.319  -0.002   8.834 -0.2736  0.3251  0.1579
  150SAPE  H17R16630   1.229  -0.063   8.811 -0.6957  0.4959  1.2804
  150SAPE  H17S16631   1.381  -0.074   8.891 -1.1530  0.1774  0.9456
  150SAPE  C21816632   1.370   0.057   8.701 -0.0240  0.2818 -0.6242
  150SAPE  H18R16633   1.479   0.033   8.706  0.1615  1.1404 -0.5183
  150SAPE  H18S16634   1.365   0.167   8.700 -0.5693  0.2594 -1.4069
  150SAPE  C21916635   1.312  -0.001   8.572 -0.9565  0.2500  0.5883
  150SAPE  H19R16636   1.307  -0.112   8.579  2.7343 -0.0731  0.1474
  150SAPE  H19S16637   1.394   0.014   8.498 -1.3501 -0.2033  0.0510
  150SAPE  C22016638   1.183   0.062   8.512  0.2859  0.0663 -0.7808
  150SAPE  H20R16639   1.188   0.171   8.488  0.2047  0.0774 -0.7472
  150SAPE  H20S16640   1.107   0.045   8.591 -0.7610  3.5610 -0.8662
  150SAPE  H20T16641   1.132   0.010   8.428 -0.7555  1.7175 -1.2302
  150SAPE   C3316642   1.701   1.008   9.963 -0.3235  0.0682 -0.5237
  150SAPE   H3X16643   1.800   0.959   9.968 -1.2244 -2.0210 -1.9822
  150SAPE   H3Y16644   1.705   1.117   9.985 -1.7713  0.3123 -1.3306
  150SAPE   C3416645   1.638   0.991   9.822 -0.1882  0.4331  0.5155
  150SAPE   H4X16646   1.558   1.067   9.816  0.0746  0.7095  0.4801
  150SAPE   H4Y16647   1.603   0.889   9.797  0.7785 -0.0168  0.9756
  150SAPE   C3516648   1.744   1.005   9.712  0.3158  0.4015  0.0755
  150SAPE   H5X16649   1.821   0.926   9.725  0.3420  0.1975 -1.2254
  150SAPE   H5Y16650   1.787   1.107   9.720  1.1404 -0.0270  1.3004
  150SAPE   C3616651   1.683   0.992   9.573  0.7677  0.4379 -1.1889
  150SAPE   H6X16652   1.604   1.069   9.562 -0.7965 -1.1235 -1.4470
  150SAPE   H6Y16653   1.636   0.893   9.549 -0.6641  1.3472 -2.3472
  150SAPE   C3716654   1.772   1.035   9.453  0.3148  0.4519 -0.0579
  150SAPE   H7X16655   1.865   0.974   9.464 -0.6593 -1.5935 -2.2680
  150SAPE   H7Y16656   1.817   1.136   9.462  0.5737  0.1823  2.7629
  150SAPE   C3816657   1.709   0.989   9.318 -0.4634 -0.0032  0.0136
  150SAPE   H8X16658   1.622   1.055   9.301  0.1173  0.6887 -0.3467
  150SAPE   H8Y16659   1.656   0.894   9.339 -0.4496 -0.1944 -0.7666
  150SAPE   C3916660   1.799   0.978   9.198 -1.2028 -0.8225 -0.4859
  150SAPE   H9X16661   1.872   0.901   9.233  0.9182  1.3273  0.0588
  150SAPE   H9Y16662   1.848   1.077   9.190  0.4146 -1.6150 -0.9378
  150SAPE  C31016663   1.734   0.920   9.072 -0.3087 -0.2642 -0.0968
  150SAPE  H10X16664   1.648   0.983   9.041 -0.3249  0.1009  0.6595
  150SAPE  H10Y16665   1.702   0.813   9.081  1.6245 -0.9705 -1.0553
  150SAPE  C31116666   1.841   0.920   8.959 -0.3320 -0.6201 -0.2816
  150SAPE  H11X16667   1.921   0.846   8.981  1.9587  1.1026 -2.2765
  150SAPE  H11Y16668   1.898   1.015   8.960 -2.7063  0.9475 -1.8877
  150SAPE  C31216669   1.788   0.867   8.825  0.4869  0.3214  0.3899
  150SAPE  H12X16670   1.736   0.773   8.851  0.2883  0.2661 -0.1935
  150SAPE  H12Y16671   1.870   0.836   8.756 -0.4751 -0.1621 -0.5640
  150SAPE  C31316672   1.706   0.971   8.755  0.0213  0.4087  0.3230
  150SAPE  H13X16673   1.773   1.044   8.705  0.3087 -0.5458 -0.7325
  150SAPE  H13Y16674   1.651   1.027   8.834  0.7437  0.9265  0.4641
  150SAPE  C31416675   1.619   0.922   8.644 -0.0081 -0.2338  0.6738
  150SAPE  H14X16676   1.535   0.869   8.691 -1.1798  0.2043 -0.8424
  150SAPE  H14Y16677   1.664   0.838   8.587 -1.5267  0.5371 -1.8441
  150SAPE  C31516678   1.590   1.026   8.528  0.6143 -0.0041  0.2503
  150SAPE  H15X16679   1.548   0.979   8.436 -0.6581 -0.5381  1.0754
  150SAPE  H15Y16680   1.692   1.061   8.503  1.4099 -0.0922  3.0280
  150SAPE  C31616681   1.499   1.146   8.580 -0.2176 -1.2375 -0.5185
  150SAPE  H16X16682   1.505   1.153   8.691 -0.1528  0.8682 -0.6140
  150SAPE  H16Y16683   1.398   1.121   8.541 -0.2982 -0.0385 -1.1225
  150SAPE  C31716684   1.532   1.293   8.528 -0.1589  0.0132  0.7754
  150SAPE  H17X16685   1.451   1.364   8.557  1.0974  1.0743  1.8023
  150SAPE  H17Y16686   1.539   1.292   8.417  2.4724  2.0396  0.8428
  150SAPE  C31816687   1.659   1.357   8.581  0.9423 -0.0261 -0.0678
  150SAPE  H18X16688   1.672   1.464   8.554 -0.5952  0.4746  1.0198
  150SAPE  H18Y16689   1.743   1.298   8.539  2.1088  0.7533  1.0952
  150SAPE  H18Z16690   1.662   1.356   8.692 -3.0196  1.2850  0.2122
  151SAPE     N16691   1.109   4.551  10.613 -0.3912 -0.1405 -0.1543
  151SAPE   HN116692   1.092   4.488  10.531 -1.0136  1.3820 -1.2355
  151SAPE   HN216693   1.109   4.645  10.569  0.9417  0.2951  0.7310
  151SAPE   HN316694   1.207   4.534  10.643  0.3964  1.7403 -1.4704
  151SAPE   C1216695   1.005   4.530  10.724 -0.8096 -0.5494  0.0683
  151SAPE  H12A16696   0.910   4.582  10.697 -0.4100 -0.0892 -0.4639
  151SAPE  H12B16697   1.039   4.591  10.810 -0.7625  0.8038 -0.8762
  151SAPE   C1116698   1.000   4.382  10.754  0.3565 -0.2851  0.4718
  151SAPE  H11A16699   0.934   4.360  10.841 -1.1968 -2.6954 -1.1766
  151SAPE  H11B16700   1.100   4.336  10.766  0.9289  0.6798 -0.4075
  151SAPE     P16701   0.935   4.154  10.632 -0.0777 -0.4426 -0.2226
  151SAPE   O1316702   1.053   4.126  10.552 -0.2237 -0.0604  0.4562
  151SAPE   O1416703   0.918   4.085  10.759 -0.7510  0.4704  0.3553
  151SAPE   O1216704   0.936   4.316  10.647  0.0421  0.0853 -0.2428
  151SAPE   O1116705   0.802   4.137  10.549 -0.0859 -0.0092 -0.4726
  151SAPE    C116706   0.792   4.043  10.440  0.3691 -0.0491  0.1793
  151SAPE    HA16707   0.853   3.951  10.454 -0.7823 -1.1177 -1.4597
  151SAPE    HB16708   0.687   4.009  10.428 -0.2043  2.1229 -1.9584
  151SAPE    C216709   0.825   4.118  10.313 -0.8528 -0.3173  0.0827
  151SAPE    HS16710   0.932   4.140  10.330 -1.1189 -0.5715  2.4196
  151SAPE   O2116711   0.769   4.250  10.295 -0.1342 -0.3000  0.0374
  151SAPE   C2116712   0.632   4.254  10.280 -0.5286  0.0288  0.0570
  151SAPE   O2216713   0.562   4.157  10.288  0.6090 -1.0325 -0.8086
  151SAPE   C2216714   0.584   4.396  10.251  0.1904  0.4515 -0.7224
  151SAPE   H2R16715   0.503   4.424  10.322 -1.2479 -0.3788 -1.9663
  151SAPE   H2S16716   0.664   4.471  10.232 -0.6550  1.3002 -1.0228
  151SAPE    C316717   0.816   4.018  10.197 -0.5126  0.5458 -0.0585
  151SAPE    HX16718   0.718   3.967  10.191  0.1184 -0.7385  0.2655
  151SAPE    HY16719   0.889   3.935  10.208 -0.7141  0.3979  0.1666
  151SAPE   O3116720   0.830   4.085  10.074  0.4580  0.1701 -0.0714
  151SAPE   C3116721   0.957   4.104  10.035 -0.0746  0.2290 -0.1029
  151SAPE   O3216722   1.057   4.046  10.085 -0.0828 -0.9380  0.3444
  151SAPE   C3216723   0.968   4.214   9.928 -0.0895 -0.2256  0.1624
  151SAPE   H2X16724   0.922   4.308   9.965 -1.0886  0.5944 -2.8817
  151SAPE   H2Y16725   0.906   4.173   9.845  2.1705 -0.7110 -1.3777
  151SAPE   C2316726   0.515   4.396  10.114  0.4304 -0.6407  0.6599
  151SAPE   H3R16727   0.450   4.486  10.117 -0.8811 -1.5789  1.2557
  151SAPE   H3S16728   0.455   4.303  10.103  0.0030 -0.2439 -0.5386
  151SAPE   C2416729   0.615   4.401   9.997  0.4776  0.3479 -0.8206
  151SAPE   H4R16730   0.699   4.331  10.013  1.0596  1.1754 -0.1739
  151SAPE   H4S16731   0.659   4.503  10.000  2.0749 -0.3386 -0.1029
  151SAPE   C2516732   0.539   4.383   9.858 -0.7747  0.0342 -0.2455
  151SAPE   H5R16733   0.462   4.305   9.849 -0.8290  0.1610 -0.9527
  151SAPE   C2616734   0.575   4.442   9.742  0.1311  0.2686  0.0638
  151SAPE   H6R16735   0.514   4.408   9.656  0.8709 -2.6559  0.5964
  151SAPE   C2716736   0.686   4.550   9.716  0.2552  0.3781 -0.0244
  151SAPE   H7R16737   0.754   4.555   9.804 -0.6798 -0.1990  0.7536
  151SAPE   H7S16738   0.628   4.645   9.710 -0.1801  0.1206  0.0869
  151SAPE   C2816739   0.767   4.543   9.585  1.3221  0.2337 -0.7744
  151SAPE   H8R16740   0.865   4.493   9.584  0.5336 -1.3615 -1.4590
  151SAPE   C2916741   0.715   4.581   9.469  0.0006  0.2316  0.1728
  151SAPE   H9R16742   0.779   4.579   9.379 -1.9682  0.6138 -1.2780
  151SAPE  C21016743   0.582   4.646   9.428 -0.0357  0.4467  0.3289
  151SAPE  H10R16744   0.590   4.749   9.387 -0.3844 -1.0963 -4.1788
  151SAPE  H10S16745   0.522   4.658   9.520  1.8326 -2.3308  2.0425
  151SAPE  C21116746   0.508   4.578   9.320 -0.4433  0.2543  0.8220
  151SAPE  H11R16747   0.462   4.485   9.357  0.3583 -0.6925 -0.4919
  151SAPE  C21216748   0.520   4.581   9.184  0.3900 -0.3663  0.0157
  151SAPE  H12R16749   0.455   4.513   9.127  1.9973 -0.9041 -1.2302
  151SAPE  C21316750   0.601   4.664   9.097 -0.5993  0.8913 -0.6720
  151SAPE  H13R16751   0.610   4.755   9.161 -0.1930  0.2932  0.1369
  151SAPE  H13S16752   0.543   4.693   9.007  0.9298  0.1068 -1.9668
  151SAPE  C21416753   0.726   4.595   9.043  0.5410  0.2653  0.1016
  151SAPE  H14R16754   0.803   4.565   9.115  0.5535  0.2534  0.0839
  151SAPE  C21516755   0.755   4.579   8.913 -0.8529  0.0680 -0.6610
  151SAPE  H15R16756   0.849   4.533   8.880 -0.7437  0.3730 -0.7820
  151SAPE  C21616757   0.672   4.619   8.790 -0.5087 -0.1855 -0.6228
  151SAPE  H16R16758   0.698   4.724   8.762  1.4143 -0.7740 -1.1518
  151SAPE  H16S16759   0.563   4.613   8.811 -0.4659  1.9593  0.5221
  151SAPE  C21716760   0.688   4.527   8.669  0.6676 -0.4260  0.1282
  151SAPE  H17R16761   0.586   4.485   8.656 -0.1678  1.6054 -0.2137
  151SAPE  H17S16762   0.758   4.441   8.674 -0.1696 -1.4634 -3.3691
  151SAPE  C21816763   0.733   4.597   8.542 -0.1569 -0.1906  0.7850
  151SAPE  H18R16764   0.817   4.660   8.577 -1.5061  1.6343  0.8782
  151SAPE  H18S16765   0.652   4.665   8.509 -0.9510 -1.1142  0.7596
  151SAPE  C21916766   0.769   4.488   8.443 -0.5335  0.2259 -0.4109
  151SAPE  H19R16767   0.862   4.436   8.472 -0.8879  0.8759  2.1481
  151SAPE  H19S16768   0.788   4.539   8.346 -2.7295  0.2163 -0.8904
  151SAPE  C22016769   0.660   4.375   8.403 -0.1057 -0.1936 -0.4184
  151SAPE  H20R16770   0.620   4.322   8.492  1.6173 -1.3522 -0.2807
  151SAPE  H20S16771   0.703   4.297   8.336 -0.9645 -1.1068  0.0803
  151SAPE  H20T16772   0.574   4.427   8.356  2.0230  3.5337 -0.5340
  151SAPE   C3316773   1.107   4.240   9.872 -0.3859 -0.2158  0.5236
  151SAPE   H3X16774   1.151   4.143   9.841 -1.9938 -0.5715 -0.7684
  151SAPE   H3Y16775   1.165   4.291   9.952 -1.7775 -0.6535  1.8685
  151SAPE   C3416776   1.103   4.327   9.745 -0.8636  0.2772 -0.9872
  151SAPE   H4X16777   1.204   4.351   9.706 -1.0081  0.2484 -1.3947
  151SAPE   H4Y16778   1.072   4.433   9.758 -0.3097  0.4163 -0.7769
  151SAPE   C3516779   1.024   4.269   9.627  0.0761 -0.0942 -0.6151
  151SAPE   H5X16780   0.917   4.295   9.641  0.5015  1.9340 -0.7066
  151SAPE   H5Y16781   1.026   4.159   9.639  2.9715 -0.0365  0.4794
  151SAPE   C3616782   1.079   4.294   9.487  0.0247 -0.4329  0.0117
  151SAPE   H6X16783   1.172   4.234   9.483 -0.6336 -1.5640  1.1455
  151SAPE   H6Y16784   1.097   4.403   9.473 -4.6686  0.5757  0.1079
  151SAPE   C3716785   0.994   4.256   9.374  0.4130  0.4214  0.4653
  151SAPE   H7X16786   0.896   4.302   9.397  1.2873  3.5940 -1.5942
  151SAPE   H7Y16787   0.973   4.147   9.363 -2.4279  0.9922 -0.8031
  151SAPE   C3816788   1.048   4.303   9.235  0.3041  0.6345 -0.7154
  151SAPE   H8X16789   1.020   4.407   9.211 -1.0957  0.9478  1.8623
  151SAPE   H8Y16790   0.992   4.246   9.158  0.2827  2.7783 -2.3614
  151SAPE   C3916791   1.196   4.277   9.204 -0.1548  0.6292 -0.8040
  151SAPE   H9X16792   1.211   4.167   9.210 -2.5782  0.3566  1.7746
  151SAPE   H9Y16793   1.268   4.327   9.272  0.9433 -1.9568  0.0438
  151SAPE  C31016794   1.248   4.321   9.065  0.2305 -0.7696  0.0329
  151SAPE  H10X16795   1.245   4.430   9.048 -0.9979 -0.9915 -1.3394
  151SAPE  H10Y16796   1.186   4.279   8.983  0.1210  2.1251 -1.4954
  151SAPE  C31116797   1.389   4.268   9.045  0.7270 -0.3563 -0.3717
  151SAPE  H11X16798   1.391   4.158   9.061 -0.0874 -0.7620 -2.7264
  151SAPE  H11Y16799   1.455   4.322   9.117  1.3081 -0.7169 -0.6254
  151SAPE  C31216800   1.463   4.288   8.916  0.1100 -0.1785  0.1665
  151SAPE  H12X16801   1.444   4.391   8.880 -1.6136 -0.7299 -0.5501
  151SAPE  H12Y16802   1.428   4.217   8.839 -0.0712  1.0298 -0.9103
  151SAPE  C31316803   1.615   4.269   8.934 -0.5955 -0.7399 -0.2304
  151SAPE  H13X16804   1.651   4.165   8.947  0.9977 -0.2696 -0.5231
  151SAPE  H13Y16805   1.642   4.340   9.015 -0.7506 -1.4511  0.4543
  151SAPE  C31416806   1.691   4.317   8.812  1.1201  0.5317 -0.2254
  151SAPE  H14X16807   1.675   4.422   8.780  0.9658  0.4712 -0.3462
  151SAPE  H14Y16808   1.658   4.248   8.732  0.8257 -0.6001  0.8429
  151SAPE  C31516809   1.845   4.298   8.828  0.1428 -0.3103  1.0761
  151SAPE  H15X16810   1.878   4.196   8.798  1.0771  0.4871 -0.7812
  151SAPE  H15Y16811   1.877   4.320   8.932  0.6483  0.2870  0.8024
  151SAPE  C31616812   1.930   4.387   8.736  0.2913 -0.1388  0.0106
  151SAPE  H16X16813   1.893   4.490   8.756 -1.6274 -1.0114  1.2369
  151SAPE  H16Y16814   1.921   4.358   8.629  1.2462 -1.7044  0.3277
  151SAPE  C31716815   2.081   4.380   8.783  1.0469  0.3063  0.0182
  151SAPE  H17X16816   2.106   4.272   8.776 -3.1077 -0.8133  0.2181
  151SAPE  H17Y16817   2.080   4.396   8.893  2.3992 -0.9150  0.2455
  151SAPE  C31816818   2.169   4.471   8.712 -0.3721 -0.2078 -0.4831
  151SAPE  H18X16819   2.142   4.579   8.707  1.7271  0.4016 -0.0472
  151SAPE  H18Y16820   2.186   4.429   8.610 -1.2017  0.8601 -1.0800
  151SAPE  H18Z16821   2.267   4.473   8.764 -2.0970 -0.1602  3.0351
  152SAPE     N16822   2.123   5.519  10.913  0.2084 -0.2659 -0.3475
  152SAPE   HN116823   2.122   5.605  10.854  0.6942  0.4005  0.5800
  152SAPE   HN216824   2.029   5.502  10.954 -0.7209  2.5905 -1.0394
  152SAPE   HN316825   2.191   5.530  10.991 -0.0819  0.0074 -0.1293
  152SAPE   C1216826   2.164   5.402  10.828  0.2936  0.2237  0.2644
  152SAPE  H12A16827   2.079   5.376  10.762 -0.4006  0.4362  1.0548
  152SAPE  H12B16828   2.172   5.321  10.904 -0.9513  0.6843  0.9103
  152SAPE   C1116829   2.303   5.430  10.752  0.2742 -0.2143 -0.3080
  152SAPE  H11A16830   2.283   5.522  10.692 -1.0178  0.0003  0.4332
  152SAPE  H11B16831   2.310   5.361  10.665  2.5161  1.0479 -1.2332
  152SAPE     P16832   2.516   5.326  10.850  0.1063 -0.0666  0.2348
  152SAPE   O1316833   2.639   5.376  10.925  0.3991  0.0539 -0.2797
  152SAPE   O1416834   2.434   5.206  10.892 -0.1628 -0.3405  0.0512
  152SAPE   O1216835   2.417   5.445  10.836 -0.0899  0.5615 -0.1909
  152SAPE   O1116836   2.560   5.312  10.697  0.0415 -0.4929 -0.0748
  152SAPE    C116837   2.617   5.418  10.633 -0.2728 -0.3671  0.3720
  152SAPE    HA16838   2.535   5.474  10.583 -0.0166 -1.4785 -1.3746
  152SAPE    HB16839   2.682   5.478  10.700 -0.9216 -0.7465  1.3557
  152SAPE    C216840   2.725   5.378  10.530 -0.1979 -0.6918  0.5649
  152SAPE    HS16841   2.826   5.399  10.571  0.7917 -1.6630 -1.2367
  152SAPE   O2116842   2.717   5.447  10.403  0.3457  0.6064  0.2895
  152SAPE   C2116843   2.727   5.575  10.403 -0.9554 -0.4087 -0.1671
  152SAPE   O2216844   2.756   5.644  10.505  0.3558 -0.4606 -0.2106
  152SAPE   C2216845   2.715   5.636  10.262 -0.3583  0.6732 -0.1670
  152SAPE   H2R16846   2.626   5.596  10.210  1.0991 -1.0877 -1.4077
  152SAPE   H2S16847   2.704   5.744  10.286  0.5853  1.0687 -1.4362
  152SAPE    C316848   2.723   5.223  10.507  0.4416 -0.0490  0.9598
  152SAPE    HX16849   2.620   5.187  10.485  0.3818  0.9592 -0.5101
  152SAPE    HY16850   2.745   5.168  10.602 -0.8061 -1.8242  0.2854
  152SAPE   O3116851   2.792   5.190  10.384 -0.1802 -0.0246 -0.3337
  152SAPE   C3116852   2.911   5.160  10.406  0.2685  0.2649  0.1220
  152SAPE   O3216853   2.977   5.161  10.508  0.0274 -0.6428  0.0370
  152SAPE   C3216854   2.973   5.119  10.273 -0.5187  0.3602  0.0691
  152SAPE   H2X16855   2.931   5.018  10.250  3.3743 -0.9665 -2.1831
  152SAPE   H2Y16856   3.083   5.117  10.287 -0.5927 -0.6565  0.6335
  152SAPE   C2316857   2.843   5.615  10.174  0.8968 -0.0824  0.1561
  152SAPE   H3R16858   2.857   5.509  10.144  0.6052  0.0634 -0.5397
  152SAPE   H3S16859   2.938   5.635  10.227  1.4422 -1.5358 -0.2123
  152SAPE   C2416860   2.835   5.701  10.045  0.6038  0.0512 -0.2039
  152SAPE   H4R16861   2.735   5.684   9.999  1.6856 -1.4693 -2.1647
  152SAPE   H4S16862   2.906   5.669   9.966  1.5533  0.8467  0.3034
  152SAPE   C2516863   2.853   5.847  10.055 -1.0991  0.2508  0.3220
  152SAPE   H5R16864   2.838   5.874  10.161 -0.6537  0.9265  0.2193
  152SAPE   C2616865   2.905   5.933   9.966 -0.2107  0.1601 -0.2265
  152SAPE   H6R16866   2.903   6.041   9.988 -3.5912  0.5745 -1.8788
  152SAPE   C2716867   2.952   5.896   9.830 -0.2602  0.6099 -0.5345
  152SAPE   H7R16868   2.876   5.825   9.791  0.3054  0.2219 -0.9614
  152SAPE   H7S16869   3.051   5.845   9.826 -0.1835  0.7028  0.1820
  152SAPE   C2816870   2.955   6.014   9.728  0.1539  0.0721 -0.4780
  152SAPE   H8R16871   2.943   6.118   9.761 -0.8279 -0.3988  0.7500
  152SAPE   C2916872   2.986   5.995   9.595  0.3830  0.1969  0.1249
  152SAPE   H9R16873   2.955   6.074   9.525 -0.5650  0.6492  1.0327
  152SAPE  C21016874   3.029   5.869   9.535 -0.7062  0.2211  0.1825
  152SAPE  H10R16875   3.079   5.807   9.613  0.0291  1.6102  0.8453
  152SAPE  H10S16876   3.101   5.896   9.455 -0.8576  0.5465  0.1574
  152SAPE  C21116877   2.923   5.776   9.471  0.4225  0.2136  0.0525
  152SAPE  H11R16878   2.847   5.740   9.541 -2.0003  1.4381 -1.7894
  152SAPE  C21216879   2.921   5.730   9.346 -0.6773 -0.1834 -0.1733
  152SAPE  H12R16880   2.833   5.665   9.330  0.1566 -0.9420 -1.9684
  152SAPE  C21316881   3.014   5.768   9.238  0.3222 -0.8195  0.1843
  152SAPE  H13R16882   3.046   5.677   9.181 -0.4231 -0.8700 -0.1647
  152SAPE  H13S16883   3.105   5.806   9.289 -0.0349 -0.3923  0.5022
  152SAPE  C21416884   2.949   5.882   9.156 -0.7804 -1.0423  0.9769
  152SAPE  H14R16885   2.910   5.975   9.199 -0.9391 -0.5465 -0.1815
  152SAPE  C21516886   2.958   5.877   9.021 -0.8163  0.7308 -0.2027
  152SAPE  H15R16887   2.905   5.959   8.971  0.8430  1.0236 -1.5532
  152SAPE  C21616888   3.021   5.773   8.927 -0.4459  0.2393  0.0450
  152SAPE  H16R16889   3.112   5.731   8.973  0.2444  1.2652 -0.3589
  152SAPE  H16S16890   3.055   5.820   8.832  0.5676 -0.2473  0.1655
  152SAPE  C21716891   2.917   5.661   8.889  0.0857 -0.2296  0.0743
  152SAPE  H17R16892   2.831   5.697   8.830  1.2376  2.6629 -0.0133
  152SAPE  H17S16893   2.887   5.612   8.985  1.7788  0.8250  1.2040
  152SAPE  C21816894   2.979   5.549   8.802 -0.3069  0.3347 -0.8342
  152SAPE  H18R16895   2.904   5.469   8.818 -0.2124  0.2778 -0.6698
  152SAPE  H18S16896   3.066   5.496   8.846 -0.7135  1.2535  1.1920
  152SAPE  C21916897   3.007   5.578   8.653  0.1684 -0.9949 -0.6187
  152SAPE  H19R16898   3.040   5.482   8.607  0.2061 -1.4319  0.2952
  152SAPE  H19S16899   3.082   5.660   8.647 -1.1570  0.5079  1.7098
  152SAPE  C22016900   2.894   5.635   8.571 -0.8619 -0.0289 -0.0135
  152SAPE  H20R16901   2.875   5.742   8.597 -1.1193  0.2450 -1.2825
  152SAPE  H20S16902   2.804   5.575   8.595 -1.0052  0.0129 -0.4495
  152SAPE  H20T16903   2.906   5.629   8.461 -0.5028 -1.3558  0.0757
  152SAPE   C3316904   2.943   5.222  10.166 -0.3427 -0.4677  0.3868
  152SAPE   H3X16905   2.965   5.327  10.197 -3.0659  0.2372  0.2221
  152SAPE   H3Y16906   2.832   5.221  10.157 -0.3288  0.2196  0.0032
  152SAPE   C3416907   3.013   5.193  10.027  0.2398  0.2860 -0.7846
  152SAPE   H4X16908   2.983   5.095   9.984 -1.4898  0.6107 -0.3660
  152SAPE   H4Y16909   3.123   5.191  10.047 -0.3879 -0.9506  3.8566
  152SAPE   C3516910   2.974   5.303   9.927 -0.1665 -0.3089  0.2520
  152SAPE   H5X16911   3.002   5.402   9.970 -2.0684  0.3493  0.1083
  152SAPE   H5Y16912   2.863   5.313   9.920  0.0502  1.1185 -2.4611
  152SAPE   C3616913   3.039   5.282   9.789 -0.6056  0.5699 -0.5239
  152SAPE   H6X16914   3.000   5.182   9.761 -2.0803  0.7848  0.6727
  152SAPE   H6Y16915   3.149   5.273   9.802 -0.0250  0.9647 -3.9952
  152SAPE   C3716916   3.022   5.402   9.697 -0.6886 -0.4387 -0.1886
  152SAPE   H7X16917   3.072   5.489   9.743 -0.5237 -0.4659 -0.3171
  152SAPE   H7Y16918   2.916   5.435   9.690 -0.2455  0.6404 -2.7347
  152SAPE   C3816919   3.069   5.377   9.552 -1.0437 -0.1575  0.4841
  152SAPE   H8X16920   3.177   5.350   9.555 -0.8016  0.8135  1.9466
  152SAPE   H8Y16921   3.058   5.475   9.500 -0.8397  0.2352  1.1511
  152SAPE   C3916922   2.981   5.277   9.474  0.1413  0.6741 -0.0714
  152SAPE   H9X16923   2.876   5.310   9.487 -0.6485 -1.3726 -0.7755
  152SAPE   H9Y16924   2.998   5.174   9.513 -1.9207  1.5642  3.6680
  152SAPE  C31016925   3.010   5.291   9.322 -0.0274 -0.1103 -0.3130
  152SAPE  H10X16926   3.120   5.300   9.304  0.0544 -0.4892 -0.0137
  152SAPE  H10Y16927   2.970   5.390   9.291 -1.6459 -0.5551  0.2570
  152SAPE  C31116928   2.953   5.185   9.236  0.4489 -0.0186  0.2791
  152SAPE  H11X16929   2.847   5.165   9.263  0.0566 -0.7866 -1.6464
  152SAPE  H11Y16930   3.019   5.096   9.242 -1.2374 -1.3318  0.1684
  152SAPE  C31216931   2.945   5.221   9.089  0.4447  0.0095 -0.1601
  152SAPE  H12X16932   3.047   5.254   9.062  0.4088 -0.1441 -0.4976
  152SAPE  H12Y16933   2.862   5.292   9.068 -0.7191 -0.7331  1.6155
  152SAPE  C31316934   2.918   5.090   9.003  0.3227 -0.9129  0.5565
  152SAPE  H13X16935   2.832   5.033   9.042 -1.3404  2.2441  1.8970
  152SAPE  H13Y16936   3.015   5.039   9.024  2.1588  3.0131  2.6832
  152SAPE  C31416937   2.907   5.111   8.848 -0.5101 -0.0518  0.2115
  152SAPE  H14X16938   2.824   5.175   8.813 -0.5128 -0.9534 -1.5105
  152SAPE  H14Y16939   2.879   5.012   8.806  0.6825  0.7641 -2.7062
  152SAPE  C31516940   3.036   5.155   8.772 -0.0042 -0.8212  0.2474
  152SAPE  H15X16941   3.119   5.086   8.800 -0.0548 -0.9187  0.1603
  152SAPE  H15Y16942   3.062   5.257   8.808  0.7662 -1.1441  0.6295
  152SAPE  C31616943   3.026   5.166   8.622 -0.5973  0.2142  0.0393
  152SAPE  H16X16944   2.969   5.257   8.593  2.3472  1.4126 -2.4546
  152SAPE  H16Y16945   3.000   5.075   8.564  2.5056 -0.0472 -1.0977
  152SAPE  C31716946   3.169   5.197   8.561 -0.6173 -0.1366  0.1485
  152SAPE  H17X16947   3.238   5.111   8.576 -0.5247 -0.7246 -2.9387
  152SAPE  H17Y16948   3.203   5.288   8.614 -1.0852  0.3027 -0.2916
  152SAPE  C31816949   3.158   5.220   8.414 -0.1006  0.3376 -0.1079
  152SAPE  H18X16950   3.254   5.254   8.371 -0.7303  0.4866 -1.4700
  152SAPE  H18Y16951   3.088   5.298   8.376  0.9841 -0.3178 -3.8089
  152SAPE  H18Z16952   3.127   5.121   8.375  2.2421 -0.1650 -0.7968
  153SAPE     N16953   1.880   6.206  10.794  0.0115  0.3698  0.3770
  153SAPE   HN116954   1.810   6.131  10.813 -0.2715  0.6578  0.4933
  153SAPE   HN216955   1.934   6.219  10.881 -0.0111 -0.2797  0.4965
  153SAPE   HN316956   1.834   6.293  10.760  0.0042 -0.4040 -1.7146
  153SAPE   C1216957   1.969   6.173  10.682 -0.2951 -0.4922  0.4388
  153SAPE  H12A16958   2.039   6.257  10.664 -0.3812 -0.5653 -0.2562
  153SAPE  H12B16959   1.903   6.134  10.601 -2.2112  3.4050 -0.0787
  153SAPE   C1116960   2.058   6.048  10.723  0.7435  0.2540  0.0672
  153SAPE  H11A16961   2.122   6.080  10.807  0.7722  0.6401 -0.0982
  153SAPE  H11B16962   2.134   6.023  10.646  0.1567  1.7320 -1.0535
  153SAPE     P16963   1.970   5.802  10.706  0.1953 -0.3552  0.3714
  153SAPE   O1316964   2.093   5.719  10.728  0.0717  0.4188 -1.0854
  153SAPE   O1416965   1.836   5.745  10.739 -0.3226 -0.1612 -0.0426
  153SAPE   O1216966   1.973   5.938  10.779  0.1878 -0.3114  0.3983
  153SAPE   O1116967   1.975   5.839  10.554  0.7469 -0.0585  0.3114
  153SAPE    C116968   1.874   5.794  10.465 -0.4599  0.9286  1.2730
  153SAPE    HA16969   1.767   5.800  10.495 -0.4169  0.3180  1.5739
  153SAPE    HB16970   1.886   5.846  10.368 -1.2689 -1.1241  0.0072
  153SAPE    C216971   1.901   5.643  10.433  0.8599  0.4639 -0.2128
  153SAPE    HS16972   1.903   5.592  10.532 -0.5074  0.4603 -0.1661
  153SAPE   O2116973   2.029   5.633  10.371 -0.0813 -0.5263 -0.1604
  153SAPE   C2116974   2.088   5.518  10.397  0.2922  0.0731 -0.2382
  153SAPE   O2216975   2.049   5.431  10.466 -0.2060  0.4875 -0.6969
  153SAPE   C2216976   2.223   5.512  10.329  0.2611 -0.4264 -0.0283
  153SAPE   H2R16977   2.290   5.595  10.359  0.6978 -0.4710 -0.8479
  153SAPE   H2S16978   2.270   5.412  10.345  0.4099 -0.1414  1.4186
  153SAPE    C316979   1.791   5.590  10.343 -0.6335  0.3147  0.3314
  153SAPE    HX16980   1.697   5.610  10.399 -0.5791  0.0732  0.5096
  153SAPE    HY16981   1.802   5.480  10.329 -0.9898  0.3138  0.0449
  153SAPE   O3116982   1.783   5.660  10.219 -0.0312 -0.0971 -0.2219
  153SAPE   C3116983   1.850   5.624  10.112 -0.2121 -0.3115 -0.5079
  153SAPE   O3216984   1.896   5.513  10.090 -0.3576 -0.1576 -0.9655
  153SAPE   C3216985   1.829   5.736  10.010 -0.7345 -0.5474  0.4227
  153SAPE   H2X16986   1.888   5.820  10.052 -0.3272 -1.7003  2.2836
  153SAPE   H2Y16987   1.722   5.766  10.004 -0.3063  0.9917  0.0151
  153SAPE   C2316988   2.221   5.508  10.174 -0.4214 -0.2563  0.3251
  153SAPE   H3R16989   2.157   5.593  10.141  1.6946  1.1883 -0.2524
  153SAPE   H3S16990   2.178   5.410  10.146 -0.7954 -0.2397  0.8251
  153SAPE   C2416991   2.363   5.542  10.117  0.5273 -0.2698  0.5158
  153SAPE   H4R16992   2.406   5.626  10.176 -0.4410  1.3619 -1.0119
  153SAPE   H4S16993   2.358   5.579  10.013  1.3121 -0.1677  0.5095
  153SAPE   C2516994   2.465   5.427  10.129 -0.5715 -1.0828  0.9611
  153SAPE   H5R16995   2.481   5.389  10.230 -1.1079 -1.8385  0.7706
  153SAPE   C2616996   2.506   5.348  10.026 -0.2385  0.2766  0.0208
  153SAPE   H6R16997   2.578   5.268  10.050  1.6307  1.7398 -0.4472
  153SAPE   C2716998   2.473   5.356   9.880 -0.5199  0.1805 -0.2094
  153SAPE   H7R16999   2.539   5.433   9.835 -0.3526 -0.1561 -0.5429
  153SAPE   H7S17000   2.376   5.408   9.868  0.1359  1.3269 -0.6968
  153SAPE   C2817001   2.478   5.229   9.802  0.6826 -0.8002  0.3861
  153SAPE   H8R17002   2.452   5.140   9.862 -2.8124  0.7367  1.3826
  153SAPE   C2917003   2.529   5.214   9.673 -0.3866 -0.5166 -0.0187
  153SAPE   H9R17004   2.523   5.119   9.617  0.4006 -0.1262 -0.7992
  153SAPE  C21017005   2.570   5.327   9.586  0.5521 -0.9551  0.6710
  153SAPE  H10R17006   2.625   5.284   9.499  1.9914  1.1693  0.4786
  153SAPE  H10S17007   2.645   5.377   9.649  0.0656 -0.6673  1.0318
  153SAPE  C21117008   2.453   5.410   9.543 -0.6923 -0.4140  0.1965
  153SAPE  H11R17009   2.421   5.482   9.619  3.2757  0.5536  1.1713
  153SAPE  C21217010   2.416   5.424   9.417  0.1288 -0.1148  0.1224
  153SAPE  H12R17011   2.327   5.485   9.401 -0.8834 -1.5341  0.1843
  153SAPE  C21317012   2.462   5.346   9.295  0.5573  0.2694  0.4282
  153SAPE  H13R17013   2.373   5.319   9.233 -1.1671  1.3897  2.2800
  153SAPE  H13S17014   2.506   5.254   9.339 -1.0771 -1.4411 -1.2798
  153SAPE  C21417015   2.562   5.411   9.203 -0.4585 -0.5799 -0.1589
  153SAPE  H14R17016   2.590   5.511   9.239 -1.4564  0.0109 -0.9545
  153SAPE  C21517017   2.599   5.369   9.085  0.1753 -0.0922  0.2816
  153SAPE  H15R17018   2.672   5.430   9.029  0.3537  0.0230  0.6352
  153SAPE  C21617019   2.542   5.240   9.022 -0.3577 -0.6321  0.0235
  153SAPE  H16R17020   2.469   5.186   9.086  1.4980 -1.8911  1.1601
  153SAPE  H16S17021   2.623   5.165   9.010 -1.1731 -1.7496  1.1945
  153SAPE  C21717022   2.485   5.273   8.883  0.0098 -0.0100 -0.5190
  153SAPE  H17R17023   2.470   5.175   8.833 -0.1809 -0.5977  0.6312
  153SAPE  H17S17024   2.555   5.333   8.822 -0.0878  0.4223 -0.2101
  153SAPE  C21817025   2.357   5.365   8.882  0.0401 -0.2185  0.0805
  153SAPE  H18R17026   2.331   5.408   8.783  0.0219  1.5337  0.8081
  153SAPE  H18S17027   2.372   5.454   8.947 -2.0654  0.9721 -0.9774
  153SAPE  C21917028   2.228   5.284   8.921 -0.0566 -0.4529 -0.1940
  153SAPE  H19R17029   2.235   5.244   9.025 -0.7248  0.5561  0.2601
  153SAPE  H19S17030   2.233   5.189   8.863  1.9779  0.0351 -0.9116
  153SAPE  C22017031   2.096   5.362   8.900  0.0780 -0.1657  0.2074
  153SAPE  H20R17032   2.088   5.390   8.793  1.4947 -3.0656 -0.7384
  153SAPE  H20S17033   2.094   5.457   8.959 -0.2147  0.3948 -0.6824
  153SAPE  H20T17034   2.007   5.301   8.926 -1.2841  1.2765 -0.9207
  153SAPE   C3317035   1.878   5.712   9.864  0.3570  0.3376 -0.2623
  153SAPE   H3X17036   1.832   5.779   9.788 -2.7134 -1.8024 -0.4768
  153SAPE   H3Y17037   1.855   5.606   9.840  2.5180 -1.5078  4.4231
  153SAPE   C3417038   2.029   5.730   9.861 -0.0016 -0.3813  0.0675
  153SAPE   H4X17039   2.071   5.636   9.903  0.6429  0.7638  2.1278
  153SAPE   H4Y17040   2.059   5.815   9.927 -0.5451 -0.9039  1.0035
  153SAPE   C3517041   2.082   5.739   9.717 -0.2099  0.3113  0.0105
  153SAPE   H5X17042   2.031   5.819   9.660  0.8573 -0.2141 -1.7769
  153SAPE   H5Y17043   2.084   5.648   9.653  1.1557  0.0699  0.3630
  153SAPE   C3617044   2.229   5.793   9.713 -0.3159 -0.0589  0.2674
  153SAPE   H6X17045   2.292   5.720   9.768 -1.2917 -1.5077 -0.4661
  153SAPE   H6Y17046   2.243   5.897   9.750 -0.7421  0.2877 -0.5333
  153SAPE   C3717047   2.299   5.791   9.577 -0.6486 -0.4064  0.7703
  153SAPE   H7X17048   2.236   5.842   9.501  1.3234  0.3272 -0.4582
  153SAPE   H7Y17049   2.313   5.683   9.556  1.6422  0.1733 -1.1275
  153SAPE   C3817050   2.442   5.851   9.590  0.2905  0.2251 -0.8122
  153SAPE   H8X17051   2.473   5.797   9.682 -1.2163  0.1015 -0.3437
  153SAPE   H8Y17052   2.429   5.959   9.610 -0.8009  0.2725 -1.6262
  153SAPE   C3917053   2.522   5.832   9.467 -0.7542  0.0340  0.7867
  153SAPE   H9X17054   2.528   5.725   9.439 -0.4701 -0.0776  1.2734
  153SAPE   H9Y17055   2.626   5.866   9.485 -0.9426  2.7204 -2.2362
  153SAPE  C31017056   2.479   5.924   9.348 -0.6459 -0.5368  0.0024
  153SAPE  H10X17057   2.491   6.024   9.396 -3.2745 -0.3917  0.5006
  153SAPE  H10Y17058   2.371   5.918   9.325 -0.6073 -1.6455  0.0890
  153SAPE  C31117059   2.571   5.905   9.228 -0.8030  0.1073  0.4702
  153SAPE  H11X17060   2.583   5.797   9.202 -1.8002  0.6814 -2.8141
  153SAPE  H11Y17061   2.673   5.946   9.246 -0.5549 -0.1682 -0.2595
  153SAPE  C31217062   2.511   5.978   9.100 -0.3753 -0.1022  0.0845
  153SAPE  H12X17063   2.455   6.068   9.135 -1.1033 -0.8749  0.9760
  153SAPE  H12Y17064   2.429   5.915   9.057 -3.1473  1.7491  2.2699
  153SAPE  C31317065   2.619   6.014   8.999  0.5893 -0.0725  0.5079
  153SAPE  H13X17066   2.661   5.916   8.970 -1.0291  0.1602 -3.0467
  153SAPE  H13Y17067   2.704   6.071   9.043  0.1336  0.4465  0.7312
  153SAPE  C31417068   2.573   6.094   8.880  0.4187 -0.7069 -0.5992
  153SAPE  H14X17069   2.513   6.182   8.911  0.5458 -1.3137  1.4909
  153SAPE  H14Y17070   2.506   6.023   8.826  0.2420 -0.4365 -0.7395
  153SAPE  C31517071   2.674   6.129   8.793 -0.9998 -0.3354  0.6140
  153SAPE  H15X17072   2.751   6.049   8.789 -0.8089 -0.1004 -1.7460
  153SAPE  H15Y17073   2.729   6.225   8.811 -1.3744  0.2996 -1.3320
  153SAPE  C31617074   2.637   6.140   8.648  0.2074  0.2554  0.2225
  153SAPE  H16X17075   2.545   6.200   8.633 -0.4222 -0.4747  1.0597
  153SAPE  H16Y17076   2.611   6.042   8.601  3.0994 -1.1975  1.3858
  153SAPE  C31717077   2.758   6.192   8.568 -0.2029  0.1538 -0.6016
  153SAPE  H17X17078   2.802   6.284   8.614 -1.2066  0.9178 -1.1238
  153SAPE  H17Y17079   2.713   6.228   8.473 -0.4024 -1.0953 -0.9906
  153SAPE  C31817080   2.861   6.080   8.545 -0.4542 -0.2253 -0.0806
  153SAPE  H18X17081   2.916   6.081   8.642 -0.0864  1.9614 -0.2476
  153SAPE  H18Y17082   2.916   6.108   8.453 -1.8332 -1.7574 -1.4401
  153SAPE  H18Z17083   2.801   5.990   8.519  0.3776 -0.7119 -0.3220
  154SAPE     N17084   1.177   0.473  10.684  0.1750  0.1736  0.1240
  154SAPE   HN117085   1.269   0.467  10.733  1.7036 -0.9540 -2.6490
  154SAPE   HN217086   1.130   0.564  10.698  2.2608  1.6882 -1.9262
  154SAPE   HN317087   1.105   0.405  10.716  0.1901  0.2627  0.3467
  154SAPE   C1217088   1.213   0.456  10.539 -0.3077  0.2183 -0.5938
  154SAPE  H12A17089   1.285   0.534  10.508 -2.0060  1.9699 -0.2824
  154SAPE  H12B17090   1.120   0.483  10.485 -0.8348 -0.1602  0.0918
  154SAPE   C1117091   1.264   0.310  10.499  0.2996  0.0108 -0.1657
  154SAPE  H11A17092   1.282   0.305  10.390  0.3445 -2.1881 -0.0940
  154SAPE  H11B17093   1.183   0.235  10.508 -1.2797  1.6242 -0.3296
  154SAPE     P17094   1.424   0.126  10.578 -0.0826  0.1079  0.2766
  154SAPE   O1317095   1.549   0.122  10.661 -0.2177 -0.1106 -0.2436
  154SAPE   O1417096   1.306   0.045  10.630  0.0490  0.7611 -0.0825
  154SAPE   O1217097   1.383   0.280  10.568  0.1176 -0.1153 -0.0214
  154SAPE   O1117098   1.463   0.080  10.432  0.4377 -0.2352 -0.5570
  154SAPE    C117099   1.378   0.026  10.335  0.2453 -0.4308 -0.2009
  154SAPE    HA17100   1.279   0.077  10.328  1.4822  2.2246  0.4815
  154SAPE    HB17101   1.415   0.054  10.234 -1.4232 -3.5785 -1.8282
  154SAPE    C217102   1.352  -0.126  10.340  0.3129  0.5058  0.0317
  154SAPE    HS17103   1.305  -0.144  10.439 -2.1745  0.9510 -0.9829
  154SAPE   O2117104   1.481  -0.192  10.336 -0.3765  0.1764  0.1562
  154SAPE   C2117105   1.481  -0.315  10.389  0.1212  0.2057  0.6857
  154SAPE   O2217106   1.378  -0.370  10.430 -0.1426 -0.1693 -0.2921
  154SAPE   C2217107   1.623  -0.370  10.392  0.1442  0.3762 -0.0017
  154SAPE   H2R17108   1.694  -0.285  10.388 -0.0593  0.5772  0.4993
  154SAPE   H2S17109   1.618  -0.426  10.488 -1.3158  0.2843 -0.1130
  154SAPE    C317110   1.256  -0.174  10.224 -0.1541 -0.2977  0.4765
  154SAPE    HX17111   1.159  -0.123  10.240 -0.8202 -1.4099  0.1241
  154SAPE    HY17112   1.231  -0.281  10.245  1.6127 -1.2592 -1.9384
  154SAPE   O3117113   1.300  -0.153  10.083 -0.3698 -0.5299 -0.5575
  154SAPE   C3117114   1.367  -0.252  10.035 -0.1351  0.4309 -0.1784
  154SAPE   O3217115   1.394  -0.353  10.098 -0.0926 -0.4429 -0.5226
  154SAPE   C3217116   1.404  -0.210   9.888  0.7750 -0.0037  0.0773
  154SAPE   H2X17117   1.475  -0.128   9.911  1.4166 -0.6638  0.4940
  154SAPE   H2Y17118   1.313  -0.168   9.840  1.0759  1.8284  0.9958
  154SAPE   C2317119   1.660  -0.467  10.281  0.5531  0.2157 -0.1736
  154SAPE   H3R17120   1.679  -0.394  10.200 -0.6640  0.0304 -0.6355
  154SAPE   H3S17121   1.564  -0.519  10.261 -0.0164  0.1962  2.2659
  154SAPE   C2417122   1.772  -0.575  10.314 -0.2036 -0.0212  0.7606
  154SAPE   H4R17123   1.740  -0.615  10.413  0.7063 -2.2361  0.2140
  154SAPE   H4S17124   1.869  -0.523  10.324  0.7973 -1.7768  0.5694
  154SAPE   C2517125   1.779  -0.684  10.205  0.7759  0.1121  1.2069
  154SAPE   H5R17126   1.748  -0.786  10.231  0.7062 -0.0922  0.3785
  154SAPE   C2617127   1.808  -0.660  10.073  0.3649  0.1341  0.3504
  154SAPE   H6R17128   1.814  -0.747  10.005  0.0283  0.4681 -0.1085
  154SAPE   C2717129   1.845  -0.527  10.017 -0.0010 -0.2034  0.3249
  154SAPE   H7R17130   1.846  -0.452  10.099  0.1507 -1.8768  1.9290
  154SAPE   H7S17131   1.767  -0.492   9.946  0.0442 -0.4580  0.1461
  154SAPE   C2817132   1.980  -0.536   9.947 -0.1857 -0.6419 -0.0041
  154SAPE   H8R17133   2.066  -0.525  10.015  0.6926 -1.0088 -1.0322
  154SAPE   C2917134   2.007  -0.540   9.815  0.5072  0.2762  0.2807
  154SAPE   H9R17135   2.110  -0.544   9.778  0.5116 -0.4859  0.3669
  154SAPE  C21017136   1.903  -0.559   9.703  0.0843 -0.1034  0.2230
  154SAPE  H10R17137   1.928  -0.495   9.616 -0.0658 -0.4354 -0.0712
  154SAPE  H10S17138   1.801  -0.530   9.739  0.6845 -1.3548  3.2813
  154SAPE  C21117139   1.867  -0.703   9.663  0.2913 -0.0623 -0.8164
  154SAPE  H11R17140   1.849  -0.770   9.748  0.7521  1.1576  0.2801
  154SAPE  C21217141   1.872  -0.753   9.540 -0.1697 -0.6635 -0.5321
  154SAPE  H12R17142   1.844  -0.858   9.524  0.7951 -0.8041 -1.3837
  154SAPE  C21317143   1.905  -0.682   9.416 -0.1356 -0.0704  0.1546
  154SAPE  H13R17144   1.940  -0.579   9.439 -0.3194  0.0169  0.0387
  154SAPE  H13S17145   1.823  -0.676   9.341 -0.2596 -2.2255  0.0587
  154SAPE  C21417146   2.027  -0.756   9.354 -0.1770 -0.1735 -0.2864
  154SAPE  H14R17147   2.088  -0.810   9.428 -2.6790 -3.0840 -0.1701
  154SAPE  C21517148   2.052  -0.745   9.232 -0.7055  0.4397 -0.0404
  154SAPE  H15R17149   2.131  -0.814   9.196 -0.1510  0.6461  0.7478
  154SAPE  C21617150   1.979  -0.662   9.123 -0.2331 -0.2267  0.0058
  154SAPE  H16R17151   1.872  -0.694   9.123 -0.7889  1.3288  2.5366
  154SAPE  H16S17152   2.015  -0.692   9.022  1.6527  0.5037  0.4332
  154SAPE  C21717153   1.984  -0.505   9.135  0.1210  0.0674  0.2120
  154SAPE  H17R17154   2.089  -0.474   9.151  0.0016 -0.1130  1.4541
  154SAPE  H17S17155   1.923  -0.482   9.225  0.2024  0.3355  0.1998
  154SAPE  C21817156   1.927  -0.430   9.013  0.1305  0.1511 -0.8001
  154SAPE  H18R17157   1.964  -0.327   9.033  0.5036  0.1591 -1.4901
  154SAPE  H18S17158   1.822  -0.404   9.037  0.9104  1.5113  1.4037
  154SAPE  C21917159   1.968  -0.480   8.883  0.5853  0.0433 -0.0453
  154SAPE  H19R17160   1.901  -0.565   8.860 -0.5494  0.6701  0.7970
  154SAPE  H19S17161   2.074  -0.513   8.888 -0.1038 -2.2852  0.3177
  154SAPE  C22017162   1.949  -0.373   8.775  0.5270 -0.0496 -0.3715
  154SAPE  H20R17163   1.957  -0.427   8.678 -0.0299 -2.6570  0.9295
  154SAPE  H20S17164   2.022  -0.290   8.778  1.1294 -0.5942  1.1079
  154SAPE  H20T17165   1.846  -0.334   8.791 -0.0604 -1.0794 -1.4530
  154SAPE   C3317166   1.473  -0.316   9.800 -0.5512 -0.0399 -0.1170
  154SAPE   H3X17167   1.408  -0.405   9.781  0.1413  0.0416 -3.4097
  154SAPE   H3Y17168   1.560  -0.362   9.852 -0.6002  0.0235  0.0217
  154SAPE   C3417169   1.509  -0.267   9.662 -0.2454  0.0491  0.3165
  154SAPE   H4X17170   1.561  -0.346   9.605 -1.2137  0.8462 -1.7925
  154SAPE   H4Y17171   1.590  -0.191   9.667  0.2461 -0.3579 -1.0604
  154SAPE   C3517172   1.388  -0.233   9.571 -0.1677  0.8000  0.6137
  154SAPE   H5X17173   1.368  -0.124   9.562 -1.2709  0.5589  0.0368
  154SAPE   H5Y17174   1.302  -0.275   9.627  0.4281 -0.3276  0.7040
  154SAPE   C3617175   1.395  -0.299   9.436  0.2140 -0.1410  0.8403
  154SAPE   H6X17176   1.293  -0.301   9.391  0.7814 -1.6286 -0.4576
  154SAPE   H6Y17177   1.419  -0.406   9.453 -0.5813 -0.2467  1.3880
  154SAPE   C3717178   1.491  -0.232   9.333  0.3958  0.3041  0.0275
  154SAPE   H7X17179   1.588  -0.204   9.382  0.2170 -0.8585  1.1115
  154SAPE   H7Y17180   1.439  -0.137   9.310 -2.6077 -1.0414  0.7698
  154SAPE   C3817181   1.506  -0.309   9.201  0.1348 -0.5442 -0.6997
  154SAPE   H8X17182   1.543  -0.407   9.237 -0.7749 -0.0777  1.7423
  154SAPE   H8Y17183   1.586  -0.255   9.146 -1.3026 -0.4828 -2.8246
  154SAPE   C3917184   1.382  -0.325   9.112 -0.1934  0.0548  0.1919
  154SAPE   H9X17185   1.339  -0.226   9.088  1.2450  0.6493  0.0030
  154SAPE   H9Y17186   1.304  -0.370   9.177 -0.2324 -0.7270 -0.3791
  154SAPE  C31017187   1.409  -0.417   8.989 -0.4066  0.0491 -0.2604
  154SAPE  H10X17188   1.317  -0.435   8.929 -0.2868  0.6812 -0.6334
  154SAPE  H10Y17189   1.440  -0.519   9.021  0.9319  0.4607 -0.1622
  154SAPE  C31117190   1.514  -0.356   8.896  0.5278  0.5682 -0.2076
  154SAPE  H11X17191   1.617  -0.378   8.931  0.3697 -0.6261 -0.4448
  154SAPE  H11Y17192   1.499  -0.246   8.889 -3.0500  0.1721 -0.4387
  154SAPE  C31217193   1.505  -0.399   8.743  0.7415 -0.4186  0.0781
  154SAPE  H12X17194   1.408  -0.364   8.701  2.0886  1.8060 -1.3313
  154SAPE  H12Y17195   1.506  -0.510   8.735 -1.2973 -0.8270  3.4272
  154SAPE  C31317196   1.590  -0.319   8.643  0.2878  0.4070 -0.6457
  154SAPE  H13X17197   1.698  -0.337   8.662  0.3096  1.9176  1.0297
  154SAPE  H13Y17198   1.560  -0.213   8.661  0.2746 -0.0283  2.6343
  154SAPE  C31417199   1.566  -0.367   8.498 -0.1792  0.2372 -0.5800
  154SAPE  H14X17200   1.457  -0.375   8.479 -0.3860 -0.6370  0.7969
  154SAPE  H14Y17201   1.608  -0.470   8.490  2.6885  1.3320 -0.9269
  154SAPE  C31517202   1.630  -0.284   8.392  0.0997  0.4802 -0.5386
  154SAPE  H15X17203   1.740  -0.276   8.408 -0.2305  0.6899  2.0709
  154SAPE  H15Y17204   1.601  -0.179   8.417  3.4329  1.2013  0.8286
  154SAPE  C31617205   1.600  -0.324   8.245 -0.2131 -0.2972  0.9040
  154SAPE  H16X17206   1.595  -0.231   8.185 -1.3254 -1.4965 -0.9594
  154SAPE  H16Y17207   1.502  -0.377   8.246 -1.6025  2.1223  2.2608
  154SAPE  C31717208   1.714  -0.404   8.187  0.0563 -0.0931 -0.7421
  154SAPE  H17X17209   1.741  -0.486   8.257 -0.8117  0.9598  0.9027
  154SAPE  H17Y17210   1.802  -0.336   8.182  1.7620 -1.9643  1.4969
  154SAPE  C31817211   1.684  -0.463   8.052 -0.0818 -0.5621 -0.5332
  154SAPE  H18X17212   1.618  -0.401   7.989 -1.3801 -0.1680  1.1392
  154SAPE  H18Y17213   1.620  -0.552   8.070 -0.9095  0.4134  1.7198
  154SAPE  H18Z17214   1.777  -0.496   8.001  1.5345  0.7099  1.4304
  155SAPE     N17215   0.979   1.613  10.702 -0.0190  0.1999  0.1513
  155SAPE   HN117216   1.034   1.566  10.777  0.5780 -0.6802 -0.8127
  155SAPE   HN217217   0.883   1.571  10.706  0.5969 -1.1903  1.2952
  155SAPE   HN317218   1.036   1.583  10.620  1.3577  1.6834  0.5351
  155SAPE   C1217219   0.973   1.764  10.716  0.1327  0.2103 -0.5350
  155SAPE  H12A17220   0.951   1.810  10.617 -1.9956  2.8909  1.0370
  155SAPE  H12B17221   1.071   1.801  10.752  0.5131  0.2037 -1.5245
  155SAPE   C1117222   0.870   1.803  10.819  0.9513  0.6239 -0.0768
  155SAPE  H11A17223   0.880   1.912  10.835 -2.7564  0.7468  2.7961
  155SAPE  H11B17224   0.896   1.760  10.918 -1.7672  0.8064  0.7816
  155SAPE     P17225   0.638   1.850  10.696 -0.4072 -0.0096  0.0444
  155SAPE   O1317226   0.501   1.815  10.722  1.0965 -0.1489  0.0851
  155SAPE   O1417227   0.672   1.993  10.713  0.2685  0.1067  0.1351
  155SAPE   O1217228   0.735   1.768  10.784  0.6951  0.2192 -0.3407
  155SAPE   O1117229   0.686   1.812  10.554 -0.1128 -0.1035 -0.0886
  155SAPE    C117230   0.593   1.759  10.461  0.1645  0.1018  0.8062
  155SAPE    HA17231   0.654   1.705  10.385  0.2321  0.1008  0.8607
  155SAPE    HB17232   0.525   1.682  10.503 -0.8342  1.0171  0.8931
  155SAPE    C217233   0.521   1.874  10.384  0.1326  0.6157 -0.6814
  155SAPE    HS17234   0.439   1.914  10.447  1.4595  0.8899  0.9358
  155SAPE   O2117235   0.470   1.817  10.264 -0.0389  0.0789 -0.1056
  155SAPE   C2117236   0.362   1.748  10.273  0.0743 -0.5666  0.0293
  155SAPE   O2217237   0.293   1.729  10.373  0.1645  0.5695  0.3889
  155SAPE   C2217238   0.325   1.692  10.137  0.3942  0.2851  0.8553
  155SAPE   H2R17239   0.343   1.583  10.133 -3.9065 -0.5592 -0.8710
  155SAPE   H2S17240   0.218   1.717  10.122  0.9010  1.8602 -0.5632
  155SAPE    C317241   0.623   1.983  10.343  0.2663  0.7958  0.6855
  155SAPE    HX17242   0.709   1.925  10.304  0.2199  2.6276 -2.4943
  155SAPE    HY17243   0.651   2.044  10.432 -2.2321  0.4282  1.8341
  155SAPE   O3117244   0.570   2.062  10.241 -0.2790  0.0831 -0.0898
  155SAPE   C3117245   0.646   2.107  10.141  0.0426 -0.2840 -0.1333
  155SAPE   O3217246   0.767   2.099  10.141  0.1868  1.0232 -0.6991
  155SAPE   C3217247   0.566   2.175  10.035 -0.1689 -0.5805  0.5546
  155SAPE   H2X17248   0.567   2.285  10.049 -0.5149 -0.6106  0.8071
  155SAPE   H2Y17249   0.465   2.129  10.029 -0.3483 -0.1035 -0.3456
  155SAPE   C2317250   0.395   1.765  10.014  0.5742 -0.0704 -0.5728
  155SAPE   H3R17251   0.502   1.737  10.020 -0.1829 -3.2773 -0.6292
  155SAPE   H3S17252   0.388   1.873  10.042 -1.6546 -0.1838 -0.5400
  155SAPE   C2417253   0.329   1.724   9.885  0.3535  0.4571  0.1488
  155SAPE   H4R17254   0.378   1.777   9.800 -0.1814  0.2759 -0.2784
  155SAPE   H4S17255   0.222   1.752   9.882  0.4059  0.5947 -1.6849
  155SAPE   C2517256   0.340   1.576   9.863 -0.0436 -0.1684  0.2299
  155SAPE   H5R17257   0.262   1.516   9.914  0.0031  1.2373  2.0651
  155SAPE   C2617258   0.426   1.518   9.773 -0.7023 -0.4017 -0.7072
  155SAPE   H6R17259   0.428   1.409   9.757 -0.8282 -0.2331 -2.0381
  155SAPE   C2717260   0.515   1.592   9.679 -0.3524 -0.0898  0.0635
  155SAPE   H7R17261   0.570   1.675   9.728 -1.1070  0.4272  0.0627
  155SAPE   H7S17262   0.450   1.652   9.610  0.4848  0.2644 -0.4412
  155SAPE   C2817263   0.608   1.513   9.591 -0.2020  0.5048 -0.9962
  155SAPE   H8R17264   0.715   1.535   9.607  0.6547 -1.5198 -3.3132
  155SAPE   C2917265   0.572   1.422   9.496 -0.5062  0.4197 -0.3920
  155SAPE   H9R17266   0.651   1.366   9.443 -0.0437  0.1648  0.5543
  155SAPE  C21017267   0.431   1.378   9.454 -0.5086 -1.0292 -0.4742
  155SAPE  H10R17268   0.363   1.420   9.531  0.8283 -0.3910  0.4111
  155SAPE  H10S17269   0.415   1.269   9.463 -2.8969 -0.6955 -0.0851
  155SAPE  C21117270   0.389   1.432   9.319  0.1485 -0.1236 -0.4167
  155SAPE  H11R17271   0.353   1.534   9.298 -0.3640 -0.6089 -2.0682
  155SAPE  C21217272   0.394   1.366   9.203 -0.1115 -0.3960 -0.0011
  155SAPE  H12R17273   0.362   1.419   9.113  2.7077  1.9920  0.2529
  155SAPE  C21317274   0.443   1.227   9.178 -0.4392 -0.0392  0.3546
  155SAPE  H13R17275   0.360   1.152   9.182 -0.4846 -0.0271 -0.2444
  155SAPE  H13S17276   0.505   1.190   9.262 -1.3281 -1.2229  0.5238
  155SAPE  C21417277   0.519   1.193   9.052  0.4943 -1.0190  0.4051
  155SAPE  H14R17278   0.625   1.179   9.075  0.5732  0.0906  0.7989
  155SAPE  C21517279   0.474   1.195   8.920  0.3757  0.3277 -0.3163
  155SAPE  H15R17280   0.544   1.167   8.839 -0.6130 -0.9914 -0.7586
  155SAPE  C21617281   0.336   1.235   8.875 -0.7459  0.2570  0.0873
  155SAPE  H16R17282   0.288   1.261   8.971 -1.4583 -0.6837  0.0044
  155SAPE  H16S17283   0.273   1.152   8.837  0.3011 -0.8526  0.6883
  155SAPE  C21717284   0.346   1.351   8.773 -0.2957  0.0135 -0.3862
  155SAPE  H17R17285   0.396   1.312   8.682  0.9061  1.6578 -0.4612
  155SAPE  H17S17286   0.413   1.436   8.796  0.0604 -0.1063 -0.9737
  155SAPE  C21817287   0.213   1.399   8.726 -0.0250  0.6544 -0.6454
  155SAPE  H18R17288   0.142   1.314   8.737  0.0536  0.6594 -0.0783
  155SAPE  H18S17289   0.211   1.455   8.630  2.8903  1.7265 -0.1675
  155SAPE  C21917290   0.155   1.500   8.830  0.4619 -1.0460 -0.9467
  155SAPE  H19R17291   0.223   1.588   8.826 -1.5844  0.5738 -2.8249
  155SAPE  H19S17292   0.160   1.458   8.932  0.8904 -0.7722 -0.8496
  155SAPE  C22017293   0.014   1.557   8.803 -0.5436 -0.4064 -0.3306
  155SAPE  H20R17294  -0.006   1.617   8.894 -2.7960  2.1496 -2.3587
  155SAPE  H20S17295  -0.061   1.475   8.798  0.7466 -1.6059 -0.8579
  155SAPE  H20T17296   0.001   1.622   8.714 -3.5400 -1.4118 -0.7212
  155SAPE   C3317297   0.622   2.134   9.895 -0.3329  0.4048  0.5130
  155SAPE   H3X17298   0.733   2.133   9.906 -0.3005  0.5283  0.2055
  155SAPE   H3Y17299   0.618   2.213   9.818  3.4401  0.5399  0.2796
  155SAPE   C3417300   0.565   2.008   9.834  0.0883  0.4467  0.1224
  155SAPE   H4X17301   0.454   2.004   9.841  0.0846  1.9831  1.4590
  155SAPE   H4Y17302   0.602   1.925   9.898 -0.8427  0.3738  0.5808
  155SAPE   C3517303   0.584   1.982   9.687  0.4459 -0.7134  0.5879
  155SAPE   H5X17304   0.566   2.080   9.638  2.0695 -0.1881  0.9821
  155SAPE   H5Y17305   0.511   1.905   9.653  0.8611 -0.8329 -0.0344
  155SAPE   C3617306   0.720   1.929   9.665 -1.0032 -0.4183  0.1741
  155SAPE   H6X17307   0.732   1.833   9.718 -2.1259 -0.3855  0.5126
  155SAPE   H6Y17308   0.794   2.000   9.709 -1.3015  0.5563 -0.8431
  155SAPE   C3717309   0.763   1.927   9.511 -0.7356 -0.0835 -0.0386
  155SAPE   H7X17310   0.861   1.876   9.501  0.1360  1.4799  0.2671
  155SAPE   H7Y17311   0.759   2.032   9.477  1.2882  0.0382 -0.0277
  155SAPE   C3817312   0.666   1.853   9.423 -0.1998 -0.2614 -0.2141
  155SAPE   H8X17313   0.561   1.869   9.455  0.3396 -0.6820  1.9770
  155SAPE   H8Y17314   0.652   1.744   9.442  0.1141 -0.3472 -0.4659
  155SAPE   C3917315   0.673   1.888   9.273 -0.1976 -0.1927 -0.0703
  155SAPE   H9X17316   0.772   1.861   9.230 -0.5575 -0.5898 -0.6822
  155SAPE   H9Y17317   0.667   1.998   9.258  1.4952  0.1089  1.1771
  155SAPE  C31017318   0.565   1.809   9.194  0.5232  0.0116  0.1423
  155SAPE  H10X17319   0.474   1.803   9.256 -1.7891  1.2543 -2.8998
  155SAPE  H10Y17320   0.595   1.702   9.186 -1.8298 -0.5824 -1.5155
  155SAPE  C31117321   0.530   1.871   9.060  0.6157  0.4126  0.6654
  155SAPE  H11X17322   0.607   1.873   8.980 -0.1501 -0.0277 -0.0937
  155SAPE  H11Y17323   0.507   1.978   9.075  0.3750  0.6338 -1.0991
  155SAPE  C31217324   0.408   1.808   8.997  0.0361 -0.0074  1.0031
  155SAPE  H12X17325   0.329   1.807   9.075 -0.4196 -0.2514  0.5509
  155SAPE  H12Y17326   0.428   1.700   8.977 -0.2655  0.1009  0.0405
  155SAPE  C31317327   0.350   1.881   8.868 -0.5207  0.6236  0.4086
  155SAPE  H13X17328   0.274   1.817   8.819  0.4029 -0.1367 -0.0739
  155SAPE  H13Y17329   0.430   1.864   8.793 -1.5984 -1.1609 -0.4140
  155SAPE  C31417330   0.301   2.024   8.886 -0.1300  0.1703  0.0614
  155SAPE  H14X17331   0.377   2.096   8.924  0.6191  0.6804 -2.2831
  155SAPE  H14Y17332   0.209   2.031   8.948 -0.9620  1.9376 -1.3028
  155SAPE  C31517333   0.261   2.083   8.746  0.3866  0.3011 -0.6889
  155SAPE  H15X17334   0.178   2.019   8.708  1.4219 -0.5633 -1.5469
  155SAPE  H15Y17335   0.338   2.063   8.669  2.4574  0.1644  1.3206
  155SAPE  C31617336   0.203   2.226   8.743  0.3797 -0.5109 -0.5190
  155SAPE  H16X17337   0.283   2.294   8.779  0.0455 -0.9962  1.2659
  155SAPE  H16Y17338   0.131   2.228   8.828  0.0986 -1.5756 -0.7101
  155SAPE  C31717339   0.129   2.263   8.619  0.9653  0.1755 -0.0036
  155SAPE  H17X17340   0.039   2.198   8.607  0.7633  0.4037  0.2462
  155SAPE  H17Y17341   0.194   2.233   8.534 -0.2979 -1.0351 -0.5941
  155SAPE  C31817342   0.089   2.403   8.599  0.4407  0.0874 -0.3925
  155SAPE  H18X17343   0.019   2.448   8.672  0.8879  2.4916 -1.3597
  155SAPE  H18Y17344   0.052   2.418   8.495  1.4378 -0.4315 -0.8391
  155SAPE  H18Z17345   0.173   2.476   8.594  0.5854 -0.1535 -2.1370
  156SAPE     N17346   6.431   4.911  10.786  0.2923 -0.2998  0.2883
  156SAPE   HN117347   6.356   4.961  10.837 -1.6830 -0.5494 -2.2021
  156SAPE   HN217348   6.459   4.829  10.844  1.7573 -0.8561 -1.1230
  156SAPE   HN317349   6.513   4.975  10.779 -1.8395  2.4322 -1.5418
  156SAPE   C1217350   6.398   4.852  10.653  0.6382  0.4093  0.4113
  156SAPE  H12A17351   6.334   4.926  10.600  1.2915  1.2355  0.7575
  156SAPE  H12B17352   6.331   4.764  10.664 -1.8084  1.8403 -1.6881
  156SAPE   C1117353   6.517   4.812  10.580 -0.0475 -0.0377 -0.0876
  156SAPE  H11A17354   6.579   4.902  10.563  3.8001 -2.7269 -1.6982
  156SAPE  H11B17355   6.492   4.784  10.475 -0.6830  2.2585 -0.5985
  156SAPE     P17356   6.745   4.696  10.605 -0.3189  0.0491  0.2853
  156SAPE   O1317357   6.822   4.811  10.637 -0.5425  0.3612 -0.2645
  156SAPE   O1417358   6.799   4.574  10.663 -0.4769  0.3063  0.3133
  156SAPE   O1217359   6.593   4.719  10.651 -0.2781  0.0973  0.6478
  156SAPE   O1117360   6.740   4.674  10.447  0.3033 -0.4161 -0.4585
  156SAPE    C117361   6.691   4.556  10.387 -0.0496 -0.4902  0.1123
  156SAPE    HA17362   6.682   4.473  10.461 -0.4964 -0.3015  0.2718
  156SAPE    HB17363   6.592   4.576  10.342 -0.6822 -1.1242  1.1706
  156SAPE    C217364   6.787   4.504  10.279 -0.1611  0.8665 -0.7668
  156SAPE    HS17365   6.879   4.482  10.338 -0.3320 -2.9126 -1.6894
  156SAPE   O2117366   6.809   4.595  10.172 -0.1329  0.2956  1.0828
  156SAPE   C2117367   6.932   4.631  10.143  0.7698  0.0162 -0.4129
  156SAPE   O2217368   7.034   4.578  10.187  0.0031 -0.0692 -0.6040
  156SAPE   C2217369   6.926   4.751  10.037 -0.1601 -0.2900  0.1937
  156SAPE   H2R17370   6.821   4.779  10.016 -0.2993  0.5043  1.7955
  156SAPE   H2S17371   6.979   4.839  10.081  1.2546 -0.9536 -0.1149
  156SAPE    C317372   6.741   4.367  10.223 -0.0982 -0.0441  0.2051
  156SAPE    HX17373   6.635   4.379  10.192  0.4266  2.4671 -0.8801
  156SAPE    HY17374   6.740   4.289  10.302 -3.2278 -1.1587 -0.7845
  156SAPE   O3117375   6.815   4.328  10.110 -0.6794  0.1494 -0.0158
  156SAPE   C3117376   6.923   4.262  10.120 -0.7218 -0.1105 -0.2218
  156SAPE   O3217377   6.961   4.210  10.219 -0.2664 -0.2456 -0.0864
  156SAPE   C3217378   6.985   4.246   9.982 -0.2252 -0.6107  1.0077
  156SAPE   H2X17379   7.072   4.178   9.971  1.7333  1.9894 -1.0006
  156SAPE   H2Y17380   7.025   4.347   9.959 -0.3212 -0.1281  2.8304
  156SAPE   C2317381   7.014   4.729   9.913 -0.4358 -0.0517  0.1591
  156SAPE   H3R17382   7.121   4.707   9.936  0.9436  3.9608 -1.5372
  156SAPE   H3S17383   7.014   4.829   9.866  1.5397  0.1950  0.5761
  156SAPE   C2417384   6.957   4.621   9.814 -0.5505 -0.1398 -0.1157
  156SAPE   H4R17385   6.851   4.651   9.799 -0.6316  0.0537  0.7766
  156SAPE   H4S17386   6.950   4.522   9.865  0.3608 -0.2859 -0.2647
  156SAPE   C2517387   7.043   4.607   9.695 -1.2161 -0.1450 -0.0460
  156SAPE   H5R17388   7.150   4.616   9.719 -1.1399 -0.7662 -0.1373
  156SAPE   C2617389   6.999   4.597   9.576  0.2295 -0.1550  1.0749
  156SAPE   H6R17390   7.075   4.581   9.498 -0.8745 -1.1173  0.1474
  156SAPE   C2717391   6.860   4.591   9.533  0.2824 -0.0554 -0.6986
  156SAPE   H7R17392   6.784   4.632   9.603 -2.7668 -5.2747 -0.3980
  156SAPE   H7S17393   6.830   4.485   9.516 -0.2334 -0.4546  2.2246
  156SAPE   C2817394   6.832   4.668   9.407 -0.4114 -0.7177  0.1195
  156SAPE   H8R17395   6.825   4.777   9.421  3.1699 -0.5157  1.5517
  156SAPE   C2917396   6.820   4.618   9.278 -0.5290 -0.6125 -0.4296
  156SAPE   H9R17397   6.797   4.690   9.199  0.2603  0.2328  0.0812
  156SAPE  C21017398   6.827   4.479   9.230  0.3524  0.0764  1.0949
  156SAPE  H10R17399   6.787   4.463   9.127  2.3087  0.1689  0.2741
  156SAPE  H10S17400   6.755   4.424   9.295  0.5359  1.1443  2.2296
  156SAPE  C21117401   6.957   4.412   9.233  0.6810 -0.5846 -0.0629
  156SAPE  H11R17402   6.998   4.420   9.335 -0.1931  0.8933  0.1945
  156SAPE  C21217403   7.031   4.348   9.136  0.6903 -0.4426 -0.1917
  156SAPE  H12R17404   7.121   4.296   9.171 -0.7537 -1.2404  2.7179
  156SAPE  C21317405   6.991   4.305   9.002  0.6126 -0.1701  0.5518
  156SAPE  H13R17406   6.894   4.251   9.005  0.4678  0.0971  0.7481
  156SAPE  H13S17407   7.073   4.237   8.970  0.8288  0.5493 -0.5034
  156SAPE  C21417408   6.980   4.420   8.904 -0.3493  0.2248  0.7612
  156SAPE  H14R17409   7.077   4.467   8.882  0.6235 -0.7505  2.7121
  156SAPE  C21517410   6.866   4.442   8.828 -1.1250 -0.6033  0.7337
  156SAPE  H15R17411   6.871   4.529   8.760 -2.0659 -1.3867 -0.3877
  156SAPE  C21617412   6.735   4.360   8.831 -0.1670 -0.2742  0.2044
  156SAPE  H16R17413   6.654   4.435   8.817  2.4477  2.4291 -1.8189
  156SAPE  H16S17414   6.731   4.284   8.912 -0.4317 -4.6105 -3.4502
  156SAPE  C21717415   6.739   4.272   8.699 -0.2482 -0.3346 -0.1198
  156SAPE  H17R17416   6.840   4.226   8.690  0.4058  0.9437  0.4574
  156SAPE  H17S17417   6.727   4.338   8.610  0.5138  0.1466  0.1258
  156SAPE  C21817418   6.624   4.162   8.700  0.5714 -0.0088  0.9411
  156SAPE  H18R17419   6.527   4.216   8.698  0.7284  0.2619  0.1266
  156SAPE  H18S17420   6.634   4.125   8.804  1.7777  1.7012  1.4765
  156SAPE  C21917421   6.636   4.061   8.586 -0.0550 -0.5094  0.7666
  156SAPE  H19R17422   6.653   4.112   8.488  1.5200 -2.7542 -0.2113
  156SAPE  H19S17423   6.536   4.013   8.593 -0.5810  0.5274  0.6532
  156SAPE  C22017424   6.750   3.968   8.596 -0.2569  0.3411 -0.3095
  156SAPE  H20R17425   6.839   4.016   8.551 -0.4808  2.2549  1.1156
  156SAPE  H20S17426   6.733   3.871   8.545  1.0474 -0.2120  0.2804
  156SAPE  H20T17427   6.773   3.945   8.703  3.6145 -3.2705 -1.6496
  156SAPE   C3317428   6.874   4.211   9.881  0.0563  0.2035 -0.5179
  156SAPE   H3X17429   6.830   4.312   9.865 -1.6045  0.0117  2.2154
  156SAPE   H3Y17430   6.793   4.149   9.925 -1.3084  2.3093  0.1254
  156SAPE   C3417431   6.927   4.166   9.753  0.1708  0.0390  0.3360
  156SAPE   H4X17432   6.968   4.063   9.747  0.3889  0.2074 -3.7403
  156SAPE   H4Y17433   7.007   4.232   9.714 -0.9600  0.6516 -1.0452
  156SAPE   C3517434   6.818   4.188   9.644 -0.1765  0.7134 -0.5602
  156SAPE   H5X17435   6.785   4.293   9.658 -1.7305  0.0230  1.5379
  156SAPE   H5Y17436   6.734   4.116   9.654  1.6742 -1.3835  0.8311
  156SAPE   C3617437   6.869   4.170   9.499  0.6709 -0.1279 -0.5144
  156SAPE   H6X17438   6.950   4.241   9.469  2.6487 -1.6786  0.8889
  156SAPE   H6Y17439   6.782   4.189   9.432 -0.2289  1.8619  1.0805
  156SAPE   C3717440   6.915   4.028   9.478 -0.4802  0.6206 -0.3139
  156SAPE   H7X17441   6.832   3.969   9.523  0.9742 -1.2336  0.0528
  156SAPE   H7Y17442   7.013   4.005   9.525 -1.1041 -0.4011  0.5296
  156SAPE   C3817443   6.931   4.002   9.328 -0.3904 -0.0290 -0.1116
  156SAPE   H8X17444   7.008   4.069   9.286  0.0066 -0.1630  0.3943
  156SAPE   H8Y17445   6.831   4.013   9.281 -0.5845 -3.3052 -0.7248
  156SAPE   C3917446   6.977   3.852   9.288  0.8567 -0.4489  0.0732
  156SAPE   H9X17447   6.921   3.800   9.368  1.5983 -0.3544  0.6550
  156SAPE   H9Y17448   7.087   3.859   9.297  1.1042 -0.0407 -2.4825
  156SAPE  C31017449   6.926   3.836   9.140 -0.7726 -0.7772  0.2202
  156SAPE  H10X17450   6.818   3.858   9.126 -0.5138 -0.7870 -2.3862
  156SAPE  H10Y17451   6.940   3.729   9.114  0.4510  0.1351 -3.5183
  156SAPE  C31117452   7.016   3.932   9.038 -0.0212  0.4005 -0.7335
  156SAPE  H11X17453   7.124   3.904   9.040  0.9421  3.5545 -2.1770
  156SAPE  H11Y17454   7.012   4.039   9.065  0.5006 -0.0463  1.3103
  156SAPE  C31217455   6.980   3.903   8.889  0.0369 -0.0765  0.2817
  156SAPE  H12X17456   7.030   3.977   8.824 -0.8980  0.6980  0.4222
  156SAPE  H12Y17457   6.876   3.940   8.875  1.0171  2.1073 -2.0751
  156SAPE  C31317458   6.995   3.758   8.843  0.3638  0.3072 -0.3167
  156SAPE  H13X17459   6.906   3.712   8.891 -0.1756  2.0538  0.4410
  156SAPE  H13Y17460   7.081   3.717   8.900 -0.4086  0.5466  1.0804
  156SAPE  C31417461   7.008   3.738   8.693 -0.6115  0.3086 -0.3074
  156SAPE  H14X17462   7.084   3.802   8.644 -0.5728 -1.3956 -2.6347
  156SAPE  H14Y17463   6.915   3.760   8.636  0.6013  1.3658 -2.0000
  156SAPE  C31517464   7.053   3.591   8.654  0.3574  0.3231  0.7858
  156SAPE  H15X17465   6.975   3.519   8.688 -0.6472 -0.8160 -3.3480
  156SAPE  H15Y17466   7.134   3.565   8.726  0.2965 -1.1431  0.3684
  156SAPE  C31617467   7.089   3.555   8.511 -0.1244 -0.2993 -0.0629
  156SAPE  H16X17468   7.139   3.456   8.515  1.8068  0.4609 -2.4621
  156SAPE  H16Y17469   7.154   3.633   8.466 -0.3654 -0.1455 -0.1421
  156SAPE  C31717470   6.974   3.550   8.413  0.9149  0.2210  0.0767
  156SAPE  H17X17471   7.004   3.558   8.307 -1.0437 -1.8403 -0.6783
  156SAPE  H17Y17472   6.908   3.638   8.432 -0.0577 -0.4879  0.0299
  156SAPE  C31817473   6.888   3.418   8.435 -0.1824  0.2697 -0.2743
  156SAPE  H18X17474   6.931   3.316   8.439  0.7742  0.5791 -2.0505
  156SAPE  H18Y17475   6.810   3.422   8.357 -1.2507  0.9564  0.7867
  156SAPE  H18Z17476   6.838   3.423   8.534  2.1458 -1.0649  1.0695
  157SAPE     N17477   0.129   3.077  11.025 -0.9329 -0.2542 -0.3467
  157SAPE   HN117478   0.193   3.019  11.083  0.6680  0.5034 -1.2853
  157SAPE   HN217479   0.116   3.164  11.080 -0.4684  0.6164 -1.5735
  157SAPE   HN317480   0.030   3.046  11.021 -2.2446  3.0232  2.0294
  157SAPE   C1217481   0.186   3.101  10.888  0.7322  0.1349  1.0793
  157SAPE  H12A17482   0.180   3.010  10.825 -0.5887  0.4470  0.7203
  157SAPE  H12B17483   0.296   3.116  10.890  0.8693  0.7008 -2.7711
  157SAPE   C1117484   0.132   3.228  10.828 -0.0178 -0.3164  0.6590
  157SAPE  H11A17485   0.174   3.236  10.726 -0.1183 -0.9549  0.5641
  157SAPE  H11B17486   0.165   3.322  10.878 -0.4190 -0.1490  0.6178
  157SAPE     P17487  -0.101   3.349  10.786 -0.0799 -0.5206  0.1831
  157SAPE   O1317488  -0.232   3.309  10.746  0.9072 -0.3710  0.2972
  157SAPE   O1417489  -0.100   3.447  10.900  0.2074 -0.1241  0.1552
  157SAPE   O1217490  -0.008   3.226  10.817 -0.2755 -0.1064 -0.4508
  157SAPE   O1117491  -0.026   3.424  10.658 -0.2550  0.2770 -0.1331
  157SAPE    C117492  -0.032   3.349  10.534 -0.2920  0.4349  0.3304
  157SAPE    HA17493   0.021   3.251  10.532 -0.7502  0.1883 -1.4456
  157SAPE    HB17494  -0.138   3.333  10.508 -0.3455 -0.0921  0.8567
  157SAPE    C217495   0.037   3.435  10.427 -0.4307  0.0600 -0.1475
  157SAPE    HS17496  -0.000   3.538  10.442  1.1144  0.5487  0.5118
  157SAPE   O2117497   0.004   3.381  10.296 -0.4704 -0.1098  0.0502
  157SAPE   C2117498  -0.109   3.415  10.244  0.3182 -0.3985  0.1391
  157SAPE   O2217499  -0.203   3.472  10.301  0.2105  0.1487 -0.0636
  157SAPE   C2217500  -0.121   3.344  10.108 -0.4029 -0.1472 -0.0525
  157SAPE   H2R17501  -0.021   3.345  10.058 -1.4480  2.9612 -2.3610
  157SAPE   H2S17502  -0.127   3.234  10.124  0.4188 -0.4783 -1.6821
  157SAPE    C317503   0.191   3.444  10.449  0.5569 -1.0319  0.0557
  157SAPE    HX17504   0.242   3.346  10.460  2.6493  0.0627  0.5762
  157SAPE    HY17505   0.192   3.498  10.546  0.5421 -0.3425 -0.3260
  157SAPE   O3117506   0.259   3.519  10.338  0.2221  0.0818  0.1366
  157SAPE   C3117507   0.361   3.595  10.387  0.2006 -0.7037  0.7955
  157SAPE   O3217508   0.398   3.595  10.504  0.4209 -0.1249  0.1513
  157SAPE   C3217509   0.434   3.659  10.274  0.5087  0.0246 -0.4876
  157SAPE   H2X17510   0.384   3.757  10.264 -1.8336 -0.8107  1.8100
  157SAPE   H2Y17511   0.416   3.601  10.180 -1.5066 -0.1401 -0.0443
  157SAPE   C2317512  -0.221   3.413  10.015 -0.0128  0.2144  0.1563
  157SAPE   H3R17513  -0.191   3.518   9.997 -1.1664  0.6044  0.4350
  157SAPE   H3S17514  -0.321   3.416  10.063 -1.2202 -2.9129 -1.8396
  157SAPE   C2417515  -0.247   3.339   9.881 -0.4592  0.5715 -0.0175
  157SAPE   H4R17516  -0.290   3.237   9.888 -1.4310  0.8621 -1.3629
  157SAPE   H4S17517  -0.146   3.326   9.836 -0.7625 -0.3464 -0.4432
  157SAPE   C2517518  -0.343   3.414   9.791  0.1079  0.0225 -0.2719
  157SAPE   H5R17519  -0.449   3.422   9.819  0.0966  1.9592 -0.7126
  157SAPE   C2617520  -0.304   3.481   9.683  0.0467 -0.0055  0.9075
  157SAPE   H6R17521  -0.374   3.525   9.611 -0.4028 -2.0766  0.0077
  157SAPE   C2717522  -0.159   3.494   9.635 -0.2979 -0.1015 -0.3559
  157SAPE   H7R17523  -0.137   3.410   9.565 -1.8997  0.7394 -1.9472
  157SAPE   H7S17524  -0.088   3.478   9.719 -1.4436  2.1284  1.1209
  157SAPE   C2817525  -0.126   3.623   9.556  0.0172 -0.2483  0.2778
  157SAPE   H8R17526  -0.098   3.709   9.618 -1.1128 -0.3307  0.9344
  157SAPE   C2917527  -0.113   3.631   9.423 -0.0357 -0.3178  0.4181
  157SAPE   H9R17528  -0.104   3.734   9.386  0.8254 -0.3911  0.4223
  157SAPE  C21017529  -0.139   3.525   9.322  0.4213 -0.4987  0.5475
  157SAPE  H10R17530  -0.120   3.427   9.371 -0.7549 -0.1200  1.7971
  157SAPE  H10S17531  -0.061   3.527   9.242 -0.3512  1.7079 -0.2352
  157SAPE  C21117532  -0.286   3.522   9.265 -0.1224  1.0654 -0.0484
  157SAPE  H11R17533  -0.368   3.533   9.337 -1.4034 -1.2742 -1.0436
  157SAPE  C21217534  -0.322   3.522   9.139  0.2652  0.0332  0.3530
  157SAPE  H12R17535  -0.427   3.544   9.114  0.4461  1.1643  0.5514
  157SAPE  C21317536  -0.219   3.531   9.025  0.1906  0.5654 -0.0945
  157SAPE  H13R17537  -0.120   3.487   9.050  0.7111  1.0392 -1.2863
  157SAPE  H13S17538  -0.185   3.633   9.000 -1.5565  1.3116  0.4217
  157SAPE  C21417539  -0.283   3.450   8.912 -0.7392 -0.7192 -0.2150
  157SAPE  H14R17540  -0.305   3.345   8.935 -2.8890 -0.2572  0.0374
  157SAPE  C21517541  -0.314   3.504   8.787  0.5035  0.6652  0.0587
  157SAPE  H15R17542  -0.344   3.438   8.704  1.9733  1.5648 -1.2566
  157SAPE  C21617543  -0.285   3.647   8.738 -0.9769 -0.3969 -0.4651
  157SAPE  H16R17544  -0.295   3.644   8.627  1.0166 -2.9439 -0.6560
  157SAPE  H16S17545  -0.178   3.666   8.761 -1.0034  0.4701 -0.9846
  157SAPE  C21717546  -0.382   3.750   8.806  0.0548 -0.5801  0.2769
  157SAPE  H17R17547  -0.346   3.846   8.761  0.1568 -0.1576  1.2462
  157SAPE  H17S17548  -0.362   3.748   8.915 -0.7208  0.0876  0.4368
  157SAPE  C21817549  -0.534   3.743   8.785  0.0233 -0.6185  0.7055
  157SAPE  H18R17550  -0.578   3.826   8.845  2.0092 -0.2227  1.6736
  157SAPE  H18S17551  -0.567   3.642   8.815  0.7418 -1.1795 -0.3306
  157SAPE  C21917552  -0.576   3.760   8.633  0.5937  0.8744  0.6368
  157SAPE  H19R17553  -0.556   3.661   8.587  0.3333 -0.6173  3.5097
  157SAPE  H19S17554  -0.495   3.823   8.590  0.8642  1.2356  1.6352
  157SAPE  C22017555  -0.721   3.811   8.611  0.2849 -0.8992 -0.5381
  157SAPE  H20R17556  -0.774   3.789   8.516 -0.1453  3.5749 -1.5613
  157SAPE  H20S17557  -0.700   3.917   8.585  0.6547 -1.0168 -0.7239
  157SAPE  H20T17558  -0.783   3.803   8.702  1.3596  0.9233  0.4022
  157SAPE   C3317559   0.582   3.682  10.282 -0.9379  0.3391 -0.1075
  157SAPE   H3X17560   0.618   3.697  10.386 -0.2377  0.0850 -0.3034
  157SAPE   H3Y17561   0.620   3.772  10.230 -3.5690  0.8892 -1.2483
  157SAPE   C3417562   0.665   3.566  10.215  0.1145 -0.1485 -0.1710
  157SAPE   H4X17563   0.615   3.475  10.254  2.2686 -0.8222  1.1964
  157SAPE   H4Y17564   0.765   3.570  10.264  0.8440 -1.5672 -1.4791
  157SAPE   C3517565   0.675   3.574  10.063  0.4780 -0.2380 -0.1699
  157SAPE   H5X17566   0.737   3.662  10.035 -3.2584  3.5748  2.4174
  157SAPE   H5Y17567   0.570   3.584  10.029  0.4941  0.0873 -0.1238
  157SAPE   C3617568   0.743   3.450  10.015 -0.0461 -0.5051  0.0815
  157SAPE   H6X17569   0.700   3.359  10.060 -1.4067  0.3886  0.6664
  157SAPE   H6Y17570   0.849   3.461  10.044  0.1411  1.0836 -1.0549
  157SAPE   C3717571   0.740   3.439   9.859  0.5521  0.5924 -0.9287
  157SAPE   H7X17572   0.760   3.539   9.815 -3.0323  2.5722  1.3981
  157SAPE   H7Y17573   0.636   3.406   9.838  1.0711 -2.0653  0.3248
  157SAPE   C3817574   0.838   3.333   9.797  0.5035  0.1051  0.3384
  157SAPE   H8X17575   0.807   3.226   9.804  1.6909 -0.3625 -1.1253
  157SAPE   H8Y17576   0.940   3.345   9.840  0.5403  1.1384 -0.0318
  157SAPE   C3917577   0.862   3.346   9.646 -0.1211 -0.0449  0.1306
  157SAPE   H9X17578   0.947   3.276   9.628  1.1298  1.2673  0.7175
  157SAPE   H9Y17579   0.882   3.455   9.638 -1.0282  0.1454  0.4464
  157SAPE  C31017580   0.742   3.289   9.566  0.2849  0.0755  0.2252
  157SAPE  H10X17581   0.652   3.352   9.578  1.5314  1.7331  1.2925
  157SAPE  H10Y17582   0.713   3.184   9.585 -3.5059  0.9665  0.1131
  157SAPE  C31117583   0.767   3.305   9.409  0.3685 -0.1084  0.1899
  157SAPE  H11X17584   0.734   3.210   9.362  0.6808 -0.0716 -0.1067
  157SAPE  H11Y17585   0.877   3.307   9.396  0.4126 -1.7733  0.1065
  157SAPE  C31217586   0.692   3.422   9.351  0.5259 -0.5541  0.8334
  157SAPE  H12X17587   0.723   3.499   9.425 -0.4796 -0.9455  1.6751
  157SAPE  H12Y17588   0.582   3.420   9.341  0.6630  0.7605 -2.0322
  157SAPE  C31317589   0.735   3.456   9.213  0.3197 -0.5499 -0.9550
  157SAPE  H13X17590   0.725   3.367   9.147  0.9652 -0.5095 -1.1139
  157SAPE  H13Y17591   0.842   3.484   9.208  0.2791  0.0852  0.9700
  157SAPE  C31417592   0.645   3.561   9.156  0.8090 -0.6513 -0.9358
  157SAPE  H14X17593   0.652   3.654   9.217 -0.0467 -1.6230  0.6835
  157SAPE  H14Y17594   0.538   3.531   9.153  0.3735  0.6894  0.1659
  157SAPE  C31517595   0.695   3.592   9.016  0.1543 -0.8707  0.4988
  157SAPE  H15X17596   0.725   3.497   8.967  0.9764 -0.6551  0.5683
  157SAPE  H15Y17597   0.787   3.654   9.024 -0.3621  0.0848 -0.7610
  157SAPE  C31617598   0.591   3.675   8.935 -0.1295  0.1942  0.5317
  157SAPE  H16X17599   0.548   3.759   8.995  0.3843  1.9926 -1.5006
  157SAPE  H16Y17600   0.518   3.594   8.916 -0.6534  0.4038  1.5404
  157SAPE  C31717601   0.637   3.732   8.805  0.7735 -1.2080  0.7695
  157SAPE  H17X17602   0.686   3.828   8.828  0.9466 -1.1441  0.1576
  157SAPE  H17Y17603   0.552   3.771   8.743  0.9953  1.7237  2.1295
  157SAPE  C31817604   0.734   3.662   8.709 -0.5242 -0.3808 -0.4731
  157SAPE  H18X17605   0.675   3.583   8.656  1.4783  0.6262 -4.5629
  157SAPE  H18Y17606   0.826   3.624   8.758  0.3870  1.2638 -0.8553
  157SAPE  H18Z17607   0.764   3.739   8.635 -2.9926 -0.2351 -1.4434
  158SAPE     N17608   0.585   5.540  10.622  0.2073  0.2740  1.1835
  158SAPE   HN117609   0.625   5.492  10.539 -0.3651  1.3548  0.2539
  158SAPE   HN217610   0.481   5.540  10.614  0.3040 -0.7950 -1.1560
  158SAPE   HN317611   0.614   5.640  10.616  0.1957  0.1954 -1.3587
  158SAPE   C1217612   0.652   5.464  10.741 -0.0973 -0.7143  0.5376
  158SAPE  H12A17613   0.583   5.468  10.828  0.0850 -0.1999  0.6609
  158SAPE  H12B17614   0.746   5.512  10.775 -0.2626  0.9308 -1.1688
  158SAPE   C1117615   0.688   5.319  10.689  0.2957 -0.2383  0.1076
  158SAPE  H11A17616   0.601   5.264  10.648 -1.1863  1.8560  0.2868
  158SAPE  H11B17617   0.706   5.256  10.779 -2.1738 -0.3706  0.5695
  158SAPE     P17618   0.786   5.319  10.437  0.0936  0.3573 -0.0244
  158SAPE   O1317619   0.670   5.405  10.405 -0.0907 -0.1658 -0.0714
  158SAPE   O1417620   0.922   5.339  10.382  0.6452 -0.0936 -0.4994
  158SAPE   O1217621   0.803   5.317  10.595 -0.0654  0.5049 -0.2567
  158SAPE   O1117622   0.739   5.172  10.409  0.2381  0.1433  0.0291
  158SAPE    C117623   0.825   5.069  10.355  0.1641  0.4178 -0.5582
  158SAPE    HA17624   0.935   5.075  10.370  0.3421 -2.0697 -0.4297
  158SAPE    HB17625   0.808   4.972  10.408 -1.5561  1.0984  0.2103
  158SAPE    C217626   0.810   5.060  10.198  0.1214  0.0151 -0.1992
  158SAPE    HS17627   0.868   4.977  10.153  0.3668 -0.4312  0.8982
  158SAPE   O2117628   0.855   5.184  10.132  0.1273  0.6818 -0.0147
  158SAPE   C2117629   0.989   5.191  10.132  0.8243 -0.0923 -0.4903
  158SAPE   O2217630   1.065   5.098  10.158  0.5191 -0.0158  0.0112
  158SAPE   C2217631   1.033   5.330  10.089  0.1309  0.5386 -0.1847
  158SAPE   H2R17632   0.948   5.384  10.042  0.4968  1.3602  0.0716
  158SAPE   H2S17633   1.058   5.376  10.186 -2.5797 -3.3845  2.6770
  158SAPE    C317634   0.662   5.030  10.165  0.4320 -0.4047  0.1692
  158SAPE    HX17635   0.600   5.121  10.179  0.8462 -0.2718  1.2282
  158SAPE    HY17636   0.623   4.963  10.245  1.8406  0.8725  2.0313
  158SAPE   O3117637   0.638   4.970  10.033 -0.0268  0.3617  0.3718
  158SAPE   C3117638   0.537   5.017   9.961  0.7210 -0.3223  0.1958
  158SAPE   O3217639   0.437   5.077  10.001  0.5074 -0.6829 -0.4314
  158SAPE   C3217640   0.560   4.979   9.802  0.1011 -0.4684  0.3948
  158SAPE   H2X17641   0.590   4.872   9.798  2.0648  0.0871 -1.5544
  158SAPE   H2Y17642   0.636   5.050   9.764 -3.0326  1.9464 -1.9752
  158SAPE   C2317643   1.142   5.330   9.986 -0.0277  0.2675  0.0776
  158SAPE   H3R17644   1.232   5.272  10.015 -0.1046  0.0217 -0.1671
  158SAPE   H3S17645   1.185   5.432   9.971 -2.6291  2.0022  3.2569
  158SAPE   C2417646   1.101   5.280   9.850  0.5190 -0.2934  0.1857
  158SAPE   H4R17647   1.041   5.186   9.854  2.1539 -1.3480  1.7706
  158SAPE   H4S17648   1.191   5.259   9.789  1.1073  0.6280  0.7100
  158SAPE   C2517649   1.034   5.384   9.761  0.1567  0.0139 -0.2106
  158SAPE   H5R17650   0.932   5.404   9.796 -0.0755  1.0467 -1.4210
  158SAPE   C2617651   1.075   5.445   9.655 -0.7600  0.0642  0.2130
  158SAPE   H6R17652   1.013   5.525   9.612  0.0868  0.7493  0.2521
  158SAPE   C2717653   1.215   5.443   9.596 -0.0098  0.9461  0.3071
  158SAPE   H7R17654   1.204   5.356   9.527  0.2858 -0.5643  2.0785
  158SAPE   H7S17655   1.291   5.416   9.672  0.1561 -2.7851 -0.9816
  158SAPE   C2817656   1.257   5.566   9.514 -0.0650  0.4943 -0.1929
  158SAPE   H8R17657   1.311   5.637   9.577 -1.4856  2.0370 -0.6497
  158SAPE   C2917658   1.215   5.597   9.383  0.6368  0.4152 -0.3227
  158SAPE   H9R17659   1.245   5.692   9.338  0.9751  0.7003  0.4820
  158SAPE  C21017660   1.130   5.506   9.299 -0.0195  0.5993 -0.2373
  158SAPE  H10R17661   1.068   5.565   9.228  0.5857 -1.5845 -2.7314
  158SAPE  H10S17662   1.057   5.452   9.363 -1.2610  2.0585 -0.3623
  158SAPE  C21117663   1.211   5.404   9.228 -0.3780  0.8368 -0.1673
  158SAPE  H11R17664   1.245   5.324   9.297 -0.4938  0.6451 -0.3327
  158SAPE  C21217665   1.261   5.411   9.098  0.2835  0.6737  0.5162
  158SAPE  H12R17666   1.316   5.326   9.055  0.0665  0.6934  0.1910
  158SAPE  C21317667   1.229   5.521   9.004 -0.1053  0.0973  0.0597
  158SAPE  H13R17668   1.308   5.597   9.020 -0.3880  0.0520  1.9201
  158SAPE  H13S17669   1.130   5.558   9.038  0.0135 -0.2087  0.7465
  158SAPE  C21417670   1.215   5.458   8.863 -0.4990 -0.2426 -0.4059
  158SAPE  H14R17671   1.151   5.371   8.845 -2.9344  1.4685 -0.4729
  158SAPE  C21517672   1.260   5.513   8.744 -0.2177  0.0261 -0.2301
  158SAPE  H15R17673   1.248   5.454   8.652  1.3819  0.4768 -0.7645
  158SAPE  C21617674   1.339   5.642   8.731  0.3893  0.4232  0.1377
  158SAPE  H16R17675   1.397   5.663   8.824  0.1619 -1.3812  0.7375
  158SAPE  H16S17676   1.270   5.727   8.720  0.2716  0.5719  1.7219
  158SAPE  C21717677   1.444   5.648   8.615 -0.0416  0.5031 -0.2639
  158SAPE  H17R17678   1.400   5.610   8.520 -1.8554 -0.0913  0.7506
  158SAPE  H17S17679   1.527   5.578   8.638  0.1022  0.0075 -2.1071
  158SAPE  C21817680   1.506   5.791   8.606 -0.0130 -1.1701  0.0375
  158SAPE  H18R17681   1.613   5.793   8.577 -0.1347 -0.2285 -0.3865
  158SAPE  H18S17682   1.509   5.840   8.706 -2.4963  1.3673 -1.0059
  158SAPE  C21917683   1.430   5.895   8.514  0.2108 -0.4103  0.0818
  158SAPE  H19R17684   1.457   5.859   8.412 -0.1600 -0.1107 -0.1257
  158SAPE  H19S17685   1.462   6.000   8.532 -0.7148 -0.4740  2.3179
  158SAPE  C22017686   1.277   5.888   8.516  0.5086  0.7106 -0.6204
  158SAPE  H20R17687   1.251   5.780   8.504  0.5935  0.8539 -2.3742
  158SAPE  H20S17688   1.225   5.938   8.432 -2.5585 -1.1008  0.0566
  158SAPE  H20T17689   1.232   5.929   8.609 -1.0362 -4.5009  1.3138
  158SAPE   C3317690   0.438   5.008   9.719  0.1301 -0.1562 -0.2052
  158SAPE   H3X17691   0.401   5.113   9.727  2.2224  0.6841 -0.7939
  158SAPE   H3Y17692   0.359   4.940   9.757  1.8223 -1.8597  0.3791
  158SAPE   C3417693   0.455   4.990   9.572 -1.1207  0.5976 -0.0303
  158SAPE   H4X17694   0.523   4.904   9.557 -1.0624  0.3346  1.5541
  158SAPE   H4Y17695   0.505   5.079   9.527  0.8633 -0.8854 -0.9382
  158SAPE   C3517696   0.327   4.968   9.489 -0.2908 -0.0153  0.3928
  158SAPE   H5X17697   0.240   5.031   9.518 -1.4878 -1.1902 -0.5351
  158SAPE   H5Y17698   0.295   4.863   9.505 -0.3839 -0.1492 -0.6054
  158SAPE   C3617699   0.347   4.995   9.342  0.3439 -0.3437 -0.5048
  158SAPE   H6X17700   0.457   4.999   9.335  0.3218  2.7226 -0.4358
  158SAPE   H6Y17701   0.312   5.100   9.332 -1.4008 -0.1717  4.4427
  158SAPE   C3717702   0.286   4.896   9.247  0.1285  0.5852  0.3379
  158SAPE   H7X17703   0.180   4.872   9.273  0.4431  1.1991  2.3643
  158SAPE   H7Y17704   0.335   4.797   9.257 -0.3209  0.5266  2.3821
  158SAPE   C3817705   0.305   4.939   9.101  0.0724 -0.3417  0.1198
  158SAPE   H8X17706   0.413   4.957   9.080 -0.1885  0.9991 -0.1639
  158SAPE   H8Y17707   0.252   5.031   9.070 -1.7250 -1.9031 -1.7992
  158SAPE   C3917708   0.258   4.825   9.010  0.2460 -0.3747  0.2396
  158SAPE   H9X17709   0.148   4.807   9.016 -0.0258  0.6640 -1.0931
  158SAPE   H9Y17710   0.298   4.722   9.026 -0.1964 -0.3160  1.8609
  158SAPE  C31017711   0.289   4.868   8.863  0.0672  0.4432  0.3453
  158SAPE  H10X17712   0.390   4.908   8.840 -0.8137  0.7452 -3.6532
  158SAPE  H10Y17713   0.216   4.948   8.839  0.3054  0.5731  0.0594
  158SAPE  C31117714   0.254   4.761   8.759  0.3937 -0.5902  0.2139
  158SAPE  H11X17715   0.148   4.731   8.777 -1.1907  1.2603 -4.4984
  158SAPE  H11Y17716   0.303   4.664   8.782  0.5804 -0.4279  0.5076
  158SAPE  C31217717   0.278   4.808   8.619 -0.6429  0.8214  0.1074
  158SAPE  H12X17718   0.210   4.895   8.609 -0.2197  1.8862  4.5611
  158SAPE  H12Y17719   0.232   4.727   8.560  0.3347 -0.9196  1.6320
  158SAPE  C31317720   0.424   4.829   8.567 -0.1547  0.1769  0.2364
  158SAPE  H13X17721   0.460   4.724   8.570 -2.6174 -0.7282  0.5904
  158SAPE  H13Y17722   0.483   4.894   8.635  2.2599  0.7856 -2.2828
  158SAPE  C31417723   0.427   4.878   8.422  0.2897  0.3986  0.1128
  158SAPE  H14X17724   0.533   4.890   8.392  0.3884 -1.2776 -0.2681
  158SAPE  H14Y17725   0.373   4.976   8.415 -1.5206 -0.4944  0.7646
  158SAPE  C31517726   0.355   4.793   8.314 -0.1785 -0.2946 -0.5170
  158SAPE  H15X17727   0.250   4.773   8.345 -0.0501  0.5130  0.4846
  158SAPE  H15Y17728   0.407   4.697   8.294  0.0473 -0.1018 -0.8584
  158SAPE  C31617729   0.353   4.860   8.178 -0.5977  0.1680 -0.0136
  158SAPE  H16X17730   0.457   4.891   8.153 -0.9033  1.8406  0.6237
  158SAPE  H16Y17731   0.283   4.946   8.184 -0.4781  0.3026 -0.4711
  158SAPE  C31717732   0.307   4.765   8.066  0.5156  0.8440  0.1179
  158SAPE  H17X17733   0.202   4.733   8.087 -0.1886  2.2682 -1.0860
  158SAPE  H17Y17734   0.370   4.673   8.063 -1.7764 -0.8641  0.9227
  158SAPE  C31817735   0.290   4.820   7.922 -0.4532 -1.2663  0.3718
  158SAPE  H18X17736   0.231   4.914   7.927 -3.0008 -2.6580 -1.2062
  158SAPE  H18Y17737   0.223   4.756   7.861 -1.1187  3.6379 -4.8463
  158SAPE  H18Z17738   0.388   4.835   7.874 -1.3075  2.1502 -0.6009
  159SAPE     N17739   0.525   2.606   5.943  0.0465 -0.6229  0.1791
  159SAPE   HN117740   0.504   2.676   6.017 -1.6707 -2.3257  1.3856
  159SAPE   HN217741   0.598   2.637   5.876 -0.1932 -2.1338 -0.8308
  159SAPE   HN317742   0.443   2.574   5.888  0.0310 -0.1498 -0.0802
  159SAPE   C1217743   0.577   2.491   6.024  0.2779 -0.4340 -0.5330
  159SAPE  H12A17744   0.629   2.422   5.954 -1.6754 -2.0962 -0.4503
  159SAPE  H12B17745   0.485   2.449   6.069  0.3117  0.3631  0.3014
  159SAPE   C1117746   0.687   2.534   6.121  0.4806 -0.2714  0.0339
  159SAPE  H11A17747   0.743   2.440   6.136 -1.3832 -1.8133 -1.9660
  159SAPE  H11B17748   0.636   2.562   6.215 -1.4060 -3.3855  0.0845
  159SAPE     P17749   0.795   2.773   6.129 -0.4941 -0.0125 -0.0703
  159SAPE   O1317750   0.923   2.815   6.072  0.2466  0.3401 -0.4598
  159SAPE   O1417751   0.678   2.861   6.112  0.5564 -0.3456 -0.2009
  159SAPE   O1217752   0.770   2.640   6.062 -0.2594  0.4478 -0.3611
  159SAPE   O1117753   0.811   2.751   6.284 -0.1154  0.4042 -0.1915
  159SAPE    C117754   0.917   2.681   6.360  0.0328  0.0646  1.0268
  159SAPE    HA17755   0.882   2.583   6.398  2.0257 -1.0522  0.1344
  159SAPE    HB17756   1.002   2.666   6.290 -0.4230 -1.9459  0.8514
  159SAPE    C217757   0.961   2.768   6.475  0.7707 -0.7169  0.1701
  159SAPE    HS17758   1.039   2.716   6.533 -1.7848 -2.3189  2.4288
  159SAPE   O2117759   0.855   2.807   6.564 -0.3774  0.2695  0.2779
  159SAPE   C2117760   0.796   2.718   6.640  0.3565  0.0269  0.0295
  159SAPE   O2217761   0.842   2.607   6.664  0.0480 -0.1460  0.9242
  159SAPE   C2217762   0.677   2.791   6.710  0.0805 -0.4663 -0.0300
  159SAPE   H2R17763   0.700   2.893   6.747  0.7109 -0.6323  0.0417
  159SAPE   H2S17764   0.591   2.809   6.642  0.8932  3.4321 -0.2573
  159SAPE    C317765   1.029   2.907   6.429  0.5259 -0.1853  0.9194
  159SAPE    HX17766   0.947   2.958   6.374 -1.1991 -2.4877  1.1654
  159SAPE    HY17767   1.111   2.877   6.361 -0.3158  0.2054 -0.3071
  159SAPE   O3117768   1.064   2.987   6.540 -0.2312 -0.0889 -0.4186
  159SAPE   C3117769   1.137   3.091   6.507 -0.8801  0.1629 -0.9163
  159SAPE   O3217770   1.196   3.107   6.399 -0.2829 -0.4276  0.4864
  159SAPE   C3217771   1.144   3.196   6.621 -0.4811  0.9277 -0.0553
  159SAPE   H2X17772   1.117   3.154   6.720  0.6481  1.4390  0.4917
  159SAPE   H2Y17773   1.070   3.276   6.601 -0.9259  0.3501 -0.7425
  159SAPE   C2317774   0.611   2.714   6.836  0.3162 -0.5590  0.3176
  159SAPE   H3R17775   0.575   2.615   6.801  0.1291 -1.1881  2.1847
  159SAPE   H3S17776   0.513   2.762   6.857 -0.2970 -1.1204 -1.0965
  159SAPE   C2417777   0.712   2.698   6.945 -0.1582  0.1758 -0.0727
  159SAPE   H4R17778   0.800   2.655   6.894 -2.6332 -2.5866 -2.3893
  159SAPE   H4S17779   0.674   2.613   7.007  0.1530 -2.4451 -3.2326
  159SAPE   C2517780   0.727   2.831   7.017  0.2263 -0.6554 -0.6211
  159SAPE   H5R17781   0.745   2.912   6.946 -2.0619 -0.4556 -1.0284
  159SAPE   C2617782   0.712   2.864   7.156 -0.6534  0.0603  0.6357
  159SAPE   H6R17783   0.722   2.966   7.197 -0.6766 -0.3031  1.5586
  159SAPE   C2717784   0.689   2.763   7.270  0.3981 -0.9620  0.3744
  159SAPE   H7R17785   0.772   2.767   7.344 -1.4139 -1.5636  2.5484
  159SAPE   H7S17786   0.700   2.658   7.235 -1.9119 -0.1352 -3.2688
  159SAPE   C2817787   0.554   2.772   7.343 -0.6581  0.0224 -0.4021
  159SAPE   H8R17788   0.462   2.730   7.300 -0.9036 -0.6101  0.7078
  159SAPE   C2917789   0.537   2.826   7.466  0.0026  0.0447  0.3281
  159SAPE   H9R17790   0.439   2.816   7.516  0.3703 -1.2124  0.8501
  159SAPE  C21017791   0.641   2.886   7.548  0.5136 -0.2843  0.0654
  159SAPE  H10R17792   0.591   2.958   7.616 -1.5388  0.8919 -2.4950
  159SAPE  H10S17793   0.701   2.961   7.491  2.0222 -0.7812  0.9387
  159SAPE  C21117794   0.724   2.792   7.629 -0.3753 -0.0825  0.2025
  159SAPE  H11R17795   0.727   2.686   7.601 -2.5432  0.3865 -2.1447
  159SAPE  C21217796   0.797   2.827   7.734  0.2058  0.0741  0.0362
  159SAPE  H12R17797   0.841   2.746   7.794 -1.0491 -0.4759  0.2617
  159SAPE  C21317798   0.801   2.967   7.802 -0.0971 -0.3113 -0.5421
  159SAPE  H13R17799   0.766   3.042   7.728 -4.8014 -1.1878  0.4184
  159SAPE  H13S17800   0.901   2.990   7.844  0.2735  0.2020 -1.6878
  159SAPE  C21417801   0.699   2.970   7.920 -0.8172 -0.0451  0.0627
  159SAPE  H14R17802   0.592   2.978   7.897 -0.3529 -0.8222 -2.9120
  159SAPE  C21517803   0.730   2.992   8.053 -0.5913 -0.1362  0.5194
  159SAPE  H15R17804   0.646   2.982   8.123 -2.5116 -1.2323 -1.7798
  159SAPE  C21617805   0.865   3.027   8.113 -0.1204  0.0331  0.5218
  159SAPE  H16R17806   0.874   3.119   8.174 -0.1372  0.2408  0.2134
  159SAPE  H16S17807   0.938   3.059   8.036  0.5933  0.0398  1.1833
  159SAPE  C21717808   0.916   2.900   8.202  0.2672  0.4001 -0.5085
  159SAPE  H17R17809   1.013   2.923   8.252 -1.0585  0.2746  2.3070
  159SAPE  H17S17810   0.924   2.812   8.136 -0.0493  0.0253 -0.0486
  159SAPE  C21817811   0.819   2.861   8.318  0.1573  0.3280 -0.8754
  159SAPE  H18R17812   0.877   2.803   8.393 -1.3870  2.3690  2.1164
  159SAPE  H18S17813   0.739   2.793   8.281  1.0220 -0.4138 -1.4021
  159SAPE  C21917814   0.772   2.979   8.400  0.4549  0.1127 -0.6365
  159SAPE  H19R17815   0.706   3.051   8.346  1.8894  2.2153  0.2901
  159SAPE  H19S17816   0.861   3.039   8.429  0.3516  0.0251 -0.1369
  159SAPE  C22017817   0.697   2.935   8.526 -0.0300  0.3016  0.5581
  159SAPE  H20R17818   0.594   2.899   8.504  0.7834 -2.0057  0.2237
  159SAPE  H20S17819   0.681   3.028   8.585  0.7302 -0.1972  1.5895
  159SAPE  H20T17820   0.754   2.860   8.585 -0.6884  0.0889  0.9222
  159SAPE   C3317821   1.268   3.279   6.611 -0.4983 -0.2957 -0.3486
  159SAPE   H3X17822   1.290   3.313   6.508  1.0782  1.1442  0.4054
  159SAPE   H3Y17823   1.348   3.210   6.646  0.4585  1.6519  1.5858
  159SAPE   C3417824   1.275   3.401   6.706 -0.0288  0.0427  0.5739
  159SAPE   H4X17825   1.229   3.375   6.803  0.4907 -1.4804  0.4421
  159SAPE   H4Y17826   1.194   3.463   6.662 -1.5730 -1.2113  1.5649
  159SAPE   C3517827   1.414   3.462   6.723  0.2991 -0.2988 -0.1658
  159SAPE   H5X17828   1.437   3.524   6.634  0.1239  1.6052  1.0646
  159SAPE   H5Y17829   1.491   3.382   6.733 -0.2195 -0.7843  0.0001
  159SAPE   C3617830   1.423   3.554   6.847  0.2169 -0.3068  0.4202
  159SAPE   H6X17831   1.335   3.621   6.854 -0.6429 -1.5333  2.0753
  159SAPE   H6Y17832   1.515   3.612   6.823 -0.0224  0.0869  0.4554
  159SAPE   C3717833   1.449   3.477   6.982  0.3146  0.3876  0.1521
  159SAPE   H7X17834   1.553   3.443   6.967  0.2812  1.3830 -3.1378
  159SAPE   H7Y17835   1.368   3.401   6.986  0.1094  0.5778 -0.2894
  159SAPE   C3817836   1.430   3.566   7.102 -0.0089  0.4353  0.1466
  159SAPE   H8X17837   1.347   3.636   7.076  0.6728  1.4518  0.6198
  159SAPE   H8Y17838   1.521   3.628   7.118  0.4050  0.6005 -2.4300
  159SAPE   C3917839   1.390   3.494   7.226 -0.2520  0.3090  0.3538
  159SAPE   H9X17840   1.466   3.419   7.255  0.4733  0.5784 -0.7646
  159SAPE   H9Y17841   1.302   3.428   7.210 -1.6060  2.0072  0.5062
  159SAPE  C31017842   1.356   3.584   7.340 -0.6194 -0.2017 -0.9949
  159SAPE  H10X17843   1.266   3.649   7.329 -1.9008 -1.5828  0.8133
  159SAPE  H10Y17844   1.441   3.654   7.358 -1.9723  1.8206 -2.0128
  159SAPE  C31117845   1.329   3.504   7.469 -0.6204  0.4220 -0.4165
  159SAPE  H11X17846   1.416   3.437   7.484 -1.1298  0.2204  2.1186
  159SAPE  H11Y17847   1.245   3.433   7.453 -0.8983  0.5826  0.2948
  159SAPE  C31217848   1.313   3.601   7.586 -0.0669 -0.0235 -0.1024
  159SAPE  H12X17849   1.214   3.651   7.587 -0.5754 -0.8418 -2.5453
  159SAPE  H12Y17850   1.385   3.681   7.559  0.3839 -0.3336  0.1666
  159SAPE  C31317851   1.337   3.545   7.725  0.6986 -0.7354  0.0474
  159SAPE  H13X17852   1.438   3.498   7.726  1.0769  0.0478 -0.3497
  159SAPE  H13Y17853   1.263   3.466   7.751 -0.2956  0.0062 -0.4519
  159SAPE  C31417854   1.331   3.652   7.836  0.0716  0.0647 -0.3717
  159SAPE  H14X17855   1.244   3.721   7.840 -0.1334 -0.2405  1.8231
  159SAPE  H14Y17856   1.425   3.709   7.820 -0.6387  1.7801  1.1245
  159SAPE  C31517857   1.340   3.596   7.973  0.9385  0.3652 -0.3833
  159SAPE  H15X17858   1.421   3.519   7.977 -0.0232 -0.6265  2.3477
  159SAPE  H15Y17859   1.246   3.547   8.007  0.3895 -0.2384 -2.6258
  159SAPE  C31617860   1.385   3.704   8.075 -0.1186 -0.4318 -1.3031
  159SAPE  H16X17861   1.320   3.794   8.067  0.6991  0.2748 -0.2897
  159SAPE  H16Y17862   1.485   3.749   8.053  1.6314 -2.0002  2.5048
  159SAPE  C31717863   1.379   3.670   8.229 -0.5179  0.4534  0.4136
  159SAPE  H17X17864   1.278   3.633   8.257 -0.3469 -1.5363 -1.3574
  159SAPE  H17Y17865   1.406   3.764   8.281  1.6317 -0.4458  1.0605
  159SAPE  C31817866   1.489   3.570   8.278  0.0239 -0.4833  0.0970
  159SAPE  H18X17867   1.582   3.618   8.241  0.6779 -0.1995  1.9972
  159SAPE  H18Y17868   1.466   3.476   8.225  1.6748 -1.8437  1.6944
  159SAPE  H18Z17869   1.488   3.544   8.386  0.1975 -2.3531 -0.3266
  160SAPE     N17870   5.592   1.464   6.465  0.4153 -0.4356 -0.0867
  160SAPE   HN117871   5.609   1.566   6.454 -0.4094 -0.1927  0.8097
  160SAPE   HN217872   5.490   1.455   6.481  0.0966  1.8387 -0.5506
  160SAPE   HN317873   5.634   1.438   6.556 -0.0418  0.5630  0.4257
  160SAPE   C1217874   5.644   1.373   6.361 -0.2384  0.0343 -0.0659
  160SAPE  H12A17875   5.576   1.396   6.276  0.9876  0.8430 -0.8539
  160SAPE  H12B17876   5.631   1.269   6.400  0.3420  0.2299  0.6848
  160SAPE   C1117877   5.792   1.407   6.318 -1.0425 -0.2006 -0.3206
  160SAPE  H11A17878   5.812   1.512   6.288 -0.6168  0.5705  2.3626
  160SAPE  H11B17879   5.802   1.343   6.228 -0.2739  0.9923 -1.1048
  160SAPE     P17880   5.996   1.267   6.409 -0.0905 -0.2831  0.6143
  160SAPE   O1317881   5.954   1.166   6.312  0.1506 -0.4281  0.1593
  160SAPE   O1417882   6.120   1.341   6.385 -0.0098  0.2837  0.1076
  160SAPE   O1217883   5.880   1.379   6.427 -0.0320  0.5251  0.2447
  160SAPE   O1117884   6.005   1.202   6.546 -0.6518  0.4131 -0.2207
  160SAPE    C117885   5.893   1.138   6.604  0.3247  0.1344 -0.1676
  160SAPE    HA17886   5.798   1.192   6.584  2.2312  3.1859 -1.7979
  160SAPE    HB17887   5.881   1.036   6.560  2.3676 -0.4274  0.4583
  160SAPE    C217888   5.896   1.111   6.753 -0.0844  0.4336 -0.5101
  160SAPE    HS17889   5.875   1.208   6.801 -1.2153 -0.0033 -0.0925
  160SAPE   O2117890   6.012   1.036   6.790 -0.3941  0.3265 -0.6299
  160SAPE   C2117891   6.071   1.072   6.901  0.1050  0.1666  0.0804
  160SAPE   O2217892   6.050   1.169   6.970 -0.3314 -0.8045 -0.5375
  160SAPE   C2217893   6.170   0.962   6.943  0.9892 -1.0568  0.4093
  160SAPE   H2R17894   6.117   0.871   6.979  0.1740 -0.7692 -0.0476
  160SAPE   H2S17895   6.221   0.936   6.847 -2.0631  1.3869 -2.0675
  160SAPE    C317896   5.776   1.016   6.783 -0.4225  0.1230  0.1749
  160SAPE    HX17897   5.797   0.921   6.730  1.1167  1.0537 -0.9666
  160SAPE    HY17898   5.692   1.065   6.729 -1.0589 -2.1080 -0.9494
  160SAPE   O3117899   5.758   0.986   6.921  0.5048 -0.0526  0.3939
  160SAPE   C3117900   5.691   1.082   6.989 -0.1666  0.8139  0.7755
  160SAPE   O3217901   5.641   1.175   6.939  0.3125 -0.2469 -0.0824
  160SAPE   C3217902   5.712   1.051   7.135  0.3429 -0.5411 -0.5898
  160SAPE   H2X17903   5.821   1.067   7.148  0.8472 -3.4502 -0.6049
  160SAPE   H2Y17904   5.700   0.941   7.151 -0.4960 -0.3084  0.5071
  160SAPE   C2317905   6.261   1.031   7.047  0.5899  0.4586  0.6558
  160SAPE   H3R17906   6.206   1.075   7.134 -1.6545  0.8847 -0.8878
  160SAPE   H3S17907   6.316   1.112   6.995 -0.0170  0.4319 -0.0495
  160SAPE   C2417908   6.362   0.929   7.105 -0.1726 -0.1273  0.8280
  160SAPE   H4R17909   6.418   0.882   7.021 -0.6757  3.2395 -1.5798
  160SAPE   H4S17910   6.316   0.850   7.168  0.8990 -1.4334  0.0234
  160SAPE   C2517911   6.470   1.005   7.175 -0.6274  0.2761  0.6240
  160SAPE   H5R17912   6.534   1.056   7.101 -0.4146 -0.7234  0.0844
  160SAPE   C2617913   6.497   1.011   7.305 -0.3530  0.4443 -0.0252
  160SAPE   H6R17914   6.584   1.067   7.345 -0.5517 -0.4252  1.7103
  160SAPE   C2717915   6.415   0.939   7.410  0.3009  0.0072 -0.6942
  160SAPE   H7R17916   6.483   0.883   7.477 -2.3962 -1.2610  1.1230
  160SAPE   H7S17917   6.339   0.869   7.370 -0.7189 -0.1091  1.3193
  160SAPE   C2817918   6.348   1.048   7.486 -0.4285  0.0955 -0.1365
  160SAPE   H8R17919   6.274   1.109   7.430  0.3578  1.8317  0.6303
  160SAPE   C2917920   6.394   1.106   7.599 -0.0669 -0.3921 -0.2852
  160SAPE   H9R17921   6.333   1.177   7.657  1.3270  0.7921 -0.2266
  160SAPE  C21017922   6.509   1.057   7.685  0.0420 -0.1890  0.2169
  160SAPE  H10R17923   6.529   1.142   7.753 -0.6886 -1.4678  2.1224
  160SAPE  H10S17924   6.594   1.044   7.615 -1.3239 -1.4971 -1.2915
  160SAPE  C21117925   6.479   0.929   7.766 -0.6358 -0.0186  0.0670
  160SAPE  H11R17926   6.413   0.861   7.711 -3.0058  1.9869  0.2661
  160SAPE  C21217927   6.517   0.902   7.894 -0.5886 -0.6043 -0.3603
  160SAPE  H12R17928   6.498   0.804   7.941  0.2809 -1.0390 -0.8853
  160SAPE  C21317929   6.600   1.002   7.983 -0.5217 -0.5569 -0.1312
  160SAPE  H13R17930   6.677   1.041   7.914 -1.4616  1.9187  0.1174
  160SAPE  H13S17931   6.647   0.946   8.067  1.4734  1.8485  0.4496
  160SAPE  C21417932   6.521   1.119   8.036  0.2558 -0.3233 -1.0465
  160SAPE  H14R17933   6.518   1.208   7.971 -1.6129 -0.0264 -0.6063
  160SAPE  C21517934   6.473   1.130   8.158  0.1019 -0.2302  0.6025
  160SAPE  H15R17935   6.412   1.221   8.170 -2.0747 -1.4970 -0.0982
  160SAPE  C21617936   6.479   1.028   8.269  0.0739 -0.2496  0.0795
  160SAPE  H16R17937   6.528   0.932   8.241  1.2430  0.9084 -2.1325
  160SAPE  H16S17938   6.378   1.023   8.314  0.5014  1.4557  1.3653
  160SAPE  C21717939   6.571   1.069   8.376  0.3566 -0.6692 -0.0179
  160SAPE  H17R17940   6.674   1.075   8.337  1.4557 -1.3063  2.5707
  160SAPE  H17S17941   6.557   0.992   8.455 -0.4250 -0.2826  0.2304
  160SAPE  C21817942   6.525   1.195   8.446 -1.3202 -0.1156 -0.2634
  160SAPE  H18R17943   6.414   1.200   8.436 -1.2667 -0.7456 -1.3581
  160SAPE  H18S17944   6.578   1.281   8.399  2.7982 -1.0840  2.1588
  160SAPE  C21917945   6.568   1.196   8.597 -0.2250  0.3866  0.0423
  160SAPE  H19R17946   6.678   1.182   8.608  0.3472  2.1864 -2.5271
  160SAPE  H19S17947   6.523   1.113   8.655  0.7974  0.0532  0.3738
  160SAPE  C22017948   6.536   1.324   8.671 -0.6588  0.4468  0.2065
  160SAPE  H20R17949   6.428   1.349   8.682 -0.7693 -0.5631  1.6149
  160SAPE  H20S17950   6.585   1.406   8.614  1.8184 -1.4312 -0.5415
  160SAPE  H20T17951   6.579   1.307   8.771  0.4243 -1.3202 -0.5213
  160SAPE   C3317952   5.626   1.148   7.219  0.0293 -0.8475  0.4556
  160SAPE   H3X17953   5.520   1.117   7.208 -0.3299  0.4558  0.0444
  160SAPE   H3Y17954   5.641   1.252   7.183 -3.2513 -0.3605  0.1906
  160SAPE   C3417955   5.680   1.140   7.362 -0.5303  0.1036  0.3001
  160SAPE   H4X17956   5.791   1.150   7.356 -0.2185 -3.0535 -1.4019
  160SAPE   H4Y17957   5.660   1.036   7.398  1.6325 -0.6361 -0.5004
  160SAPE   C3517958   5.621   1.243   7.464 -0.3945  0.1308  0.9295
  160SAPE   H5X17959   5.512   1.226   7.470 -0.2116 -0.6804  2.4701
  160SAPE   H5Y17960   5.644   1.349   7.441 -0.2255  0.4488  2.4654
  160SAPE   C3617961   5.660   1.203   7.601  0.0719  0.2235 -0.2132
  160SAPE   H6X17962   5.771   1.195   7.610 -0.0200 -0.7037  0.2102
  160SAPE   H6Y17963   5.630   1.097   7.614  1.3721 -0.1574 -0.1998
  160SAPE   C3717964   5.603   1.287   7.710 -0.6721 -0.4075 -0.5823
  160SAPE   H7X17965   5.494   1.266   7.717 -0.4348 -1.3119  1.1637
  160SAPE   H7Y17966   5.628   1.394   7.694 -2.3227  0.1619  0.3487
  160SAPE   C3817967   5.671   1.254   7.849 -0.8512 -0.5123  0.4789
  160SAPE   H8X17968   5.773   1.300   7.853 -0.4361 -1.4820  1.9453
  160SAPE   H8Y17969   5.678   1.144   7.858 -0.0932 -0.3798  1.9349
  160SAPE   C3917970   5.596   1.321   7.965 -0.0474 -0.3932  0.0358
  160SAPE   H9X17971   5.495   1.277   7.959  0.0394 -0.4887 -0.7755
  160SAPE   H9Y17972   5.586   1.430   7.944 -1.6074 -0.1592  1.7892
  160SAPE  C31017973   5.666   1.305   8.099 -0.0212  0.6566 -0.5732
  160SAPE  H10X17974   5.766   1.351   8.084 -0.1001  1.2957  0.6645
  160SAPE  H10Y17975   5.694   1.200   8.124 -1.5777  0.5362  0.8434
  160SAPE  C31117976   5.569   1.346   8.214  0.4202 -0.2051  0.2812
  160SAPE  H11X17977   5.484   1.274   8.220  1.9835 -2.0403  1.5395
  160SAPE  H11Y17978   5.522   1.445   8.197  0.6945  0.1732  1.6668
  160SAPE  C31217979   5.633   1.335   8.352  0.1325  1.2564  0.2596
  160SAPE  H12X17980   5.676   1.232   8.354  2.1865  2.0839  1.9212
  160SAPE  H12Y17981   5.545   1.342   8.420 -1.4977  0.3530 -1.6526
  160SAPE  C31317982   5.738   1.440   8.385  0.9506 -0.1102  0.1377
  160SAPE  H13X17983   5.811   1.444   8.301  1.0137 -0.5654  0.1686
  160SAPE  H13Y17984   5.791   1.417   8.480  0.3635  0.6155  0.6556
  160SAPE  C31417985   5.673   1.580   8.389  0.1552  0.5055  0.1789
  160SAPE  H14X17986   5.594   1.583   8.467  2.0113 -1.7615  2.3136
  160SAPE  H14Y17987   5.615   1.595   8.295 -1.8654 -3.4446  0.5869
  160SAPE  C31517988   5.779   1.696   8.402 -0.0974 -0.3743  0.2268
  160SAPE  H15X17989   5.846   1.685   8.314  0.5091 -1.6980  0.8190
  160SAPE  H15Y17990   5.855   1.680   8.481  2.4930  3.4157 -1.2487
  160SAPE  C31617991   5.711   1.833   8.431 -0.5789  1.5502 -0.5478
  160SAPE  H16X17992   5.795   1.905   8.447 -0.5945  1.8367 -1.6489
  160SAPE  H16Y17993   5.641   1.816   8.515  1.4400 -0.1372  0.9153
  160SAPE  C31717994   5.621   1.890   8.315 -0.3092 -0.0238  0.3490
  160SAPE  H17X17995   5.583   1.991   8.344  1.3798  0.9714 -0.7458
  160SAPE  H17Y17996   5.537   1.817   8.310  0.4276 -0.8788  0.1782
  160SAPE  C31817997   5.692   1.912   8.177 -0.1102 -0.0374  0.1325
  160SAPE  H18X17998   5.746   1.816   8.163 -2.3734 -1.4471  0.6732
  160SAPE  H18Y17999   5.759   2.000   8.191 -0.3887  0.3766 -1.0305
  160SAPE  H18Z18000   5.619   1.927   8.094  1.2786  0.6678 -1.0233
  161SAPE     N18001   3.325   5.230   6.239  0.0424  0.0103  0.2347
  161SAPE   HN118002   3.374   5.267   6.155 -0.4679 -1.2607 -0.6457
  161SAPE   HN218003   3.365   5.137   6.264 -1.0710 -1.2826 -2.4231
  161SAPE   HN318004   3.224   5.225   6.214 -0.4357  0.2143  1.9508
  161SAPE   C1218005   3.325   5.325   6.358  0.0625 -0.3617  0.1606
  161SAPE  H12A18006   3.252   5.298   6.437 -1.3509  0.2921 -0.8771
  161SAPE  H12B18007   3.309   5.430   6.325  0.7749  0.3719  2.0309
  161SAPE   C1118008   3.460   5.317   6.432 -0.8722  0.1061 -0.3843
  161SAPE  H11A18009   3.474   5.211   6.462 -0.0821 -0.0424 -1.2275
  161SAPE  H11B18010   3.455   5.377   6.525  1.0616 -1.2791  0.6731
  161SAPE     P18011   3.613   5.505   6.340 -0.2275  0.3268 -0.6387
  161SAPE   O1318012   3.710   5.527   6.233 -0.0148  0.3897 -0.3523
  161SAPE   O1418013   3.499   5.600   6.344  0.6796 -0.4168 -0.1433
  161SAPE   O1218014   3.564   5.354   6.339 -0.1133  0.3598 -0.1685
  161SAPE   O1118015   3.688   5.516   6.481 -0.2664  0.2612 -1.1911
  161SAPE    C118016   3.793   5.419   6.518  0.5145  0.4048 -0.5415
  161SAPE    HA18017   3.786   5.327   6.457  1.5442  0.1943 -0.3628
  161SAPE    HB18018   3.888   5.473   6.498  1.5876 -1.5771 -1.0308
  161SAPE    C218019   3.782   5.378   6.660 -0.8685  0.1701 -0.1069
  161SAPE    HS18020   3.692   5.312   6.670 -1.2324  0.6333 -0.3029
  161SAPE   O2118021   3.777   5.492   6.742 -0.4358 -0.0531  0.1751
  161SAPE   C2118022   3.668   5.512   6.814 -0.2794 -1.0485 -0.4412
  161SAPE   O2218023   3.559   5.464   6.799  0.3028  0.0253 -0.2097
  161SAPE   C2218024   3.700   5.613   6.928 -0.6903 -0.2888 -0.2927
  161SAPE   H2R18025   3.779   5.682   6.891  0.7386 -0.0318  2.8925
  161SAPE   H2S18026   3.604   5.658   6.961 -0.5301  0.9785 -1.4541
  161SAPE    C318027   3.912   5.302   6.699 -0.2995  0.4063 -0.5134
  161SAPE    HX18028   3.997   5.373   6.696  0.7206 -0.7626 -0.1721
  161SAPE    HY18029   3.923   5.217   6.628  1.1978  1.7307 -1.9244
  161SAPE   O3118030   3.913   5.244   6.836 -0.1872 -0.3351 -0.3081
  161SAPE   C3118031   3.846   5.133   6.860 -0.1010 -0.1345  0.0151
  161SAPE   O3218032   3.783   5.075   6.772 -0.2934  0.3010  0.0588
  161SAPE   C3218033   3.836   5.110   7.003  0.2003  0.6711  0.2224
  161SAPE   H2X18034   3.817   5.001   7.016  0.3861  0.7570  1.2983
  161SAPE   H2Y18035   3.735   5.156   7.013  0.1992  0.8756 -0.6405
  161SAPE   C2318036   3.756   5.543   7.044 -0.4945  0.4930  0.1588
  161SAPE   H3R18037   3.819   5.615   7.101  1.0884 -0.4461 -0.3472
  161SAPE   H3S18038   3.828   5.465   7.010 -0.3100 -0.3840  2.3443
  161SAPE   C2418039   3.649   5.471   7.124 -0.5370  0.0543 -0.0276
  161SAPE   H4R18040   3.704   5.385   7.167 -3.1841 -0.7948  1.9514
  161SAPE   H4S18041   3.577   5.426   7.051  0.0413 -0.2548 -0.4115
  161SAPE   C2518042   3.579   5.563   7.223 -0.1637 -0.8830  0.5058
  161SAPE   H5R18043   3.521   5.644   7.176  0.2978 -0.1922  1.1109
  161SAPE   C2618044   3.568   5.556   7.357 -0.1800  1.1952 -0.5133
  161SAPE   H6R18045   3.516   5.632   7.418  0.7858  1.1437  0.4033
  161SAPE   C2718046   3.634   5.458   7.440 -0.0500 -0.0153 -0.5236
  161SAPE   H7R18047   3.673   5.511   7.530 -0.0617 -2.5324  1.0615
  161SAPE   H7S18048   3.724   5.422   7.385 -0.2554 -2.3391  0.5621
  161SAPE   C2818049   3.557   5.332   7.463  0.6441  0.3124  0.2388
  161SAPE   H8R18050   3.544   5.279   7.368 -1.5743  1.2988 -0.0754
  161SAPE   C2918051   3.532   5.257   7.577 -0.0252  0.0949  0.2436
  161SAPE   H9R18052   3.471   5.166   7.570  1.3081 -0.7000 -2.8391
  161SAPE  C21018053   3.575   5.304   7.712  0.0659  0.0591  0.5839
  161SAPE  H10R18054   3.631   5.399   7.706  2.4812 -1.3249  0.0407
  161SAPE  H10S18055   3.637   5.219   7.747  1.1419  0.2211 -0.8697
  161SAPE  C21118056   3.464   5.335   7.809 -0.0857  0.3148 -0.0238
  161SAPE  H11R18057   3.373   5.374   7.762  0.8064  0.2793 -1.8503
  161SAPE  C21218058   3.472   5.340   7.943  0.2596  0.4486 -0.7335
  161SAPE  H12R18059   3.385   5.369   8.004  1.4242  0.2467  1.0937
  161SAPE  C21318060   3.597   5.311   8.028  0.0697 -0.0265 -0.0745
  161SAPE  H13R18061   3.658   5.229   7.984  0.1272  0.8023 -1.5934
  161SAPE  H13S18062   3.570   5.263   8.125 -0.1832 -0.5776 -0.4131
  161SAPE  C21418063   3.701   5.424   8.049 -0.2692  0.0570 -0.0631
  161SAPE  H14R18064   3.706   5.488   7.960 -0.7936 -2.0067 -1.6564
  161SAPE  C21518065   3.761   5.465   8.161 -0.0608 -0.1781  0.4955
  161SAPE  H15R18066   3.828   5.550   8.145 -1.5640  1.0104  0.2361
  161SAPE  C21618067   3.747   5.403   8.297 -0.1766 -0.2727  0.0650
  161SAPE  H16R18068   3.849   5.371   8.328 -0.4033 -0.6791  0.3961
  161SAPE  H16S18069   3.680   5.316   8.312 -1.5462  1.1848  3.1409
  161SAPE  C21718070   3.699   5.502   8.406  0.5562 -0.1446 -0.0634
  161SAPE  H17R18071   3.767   5.588   8.423 -1.4769  2.5337 -3.9987
  161SAPE  H17S18072   3.686   5.441   8.498 -3.5531  0.6965  0.0727
  161SAPE  C21818073   3.566   5.576   8.373  0.0067  0.1761 -0.2436
  161SAPE  H18R18074   3.581   5.644   8.286  0.6241 -1.7657 -1.7338
  161SAPE  H18S18075   3.539   5.647   8.453 -2.7340 -0.8582 -0.1500
  161SAPE  C21918076   3.440   5.490   8.349 -0.6121  0.2106  0.5255
  161SAPE  H19R18077   3.418   5.423   8.436 -1.0329 -0.2517  0.0679
  161SAPE  H19S18078   3.467   5.423   8.265  2.8377  1.5001  0.4413
  161SAPE  C22018079   3.312   5.567   8.302 -0.3623 -0.5400  0.3080
  161SAPE  H20R18080   3.339   5.636   8.219  1.0650  1.3348  2.1962
  161SAPE  H20S18081   3.280   5.632   8.386  0.7330  0.1369  0.2244
  161SAPE  H20T18082   3.234   5.502   8.257  1.8489 -2.9505 -0.3155
  161SAPE   C3318083   3.961   5.147   7.093  0.1209  0.2316  0.3163
  161SAPE   H3X18084   3.957   5.258   7.091  1.0070  0.3250 -2.7200
  161SAPE   H3Y18085   4.046   5.107   7.032 -0.8307 -2.4852  0.6435
  161SAPE   C3418086   3.968   5.076   7.234 -0.2359 -0.3234  0.6428
  161SAPE   H4X18087   4.068   5.089   7.279  1.4060 -1.7971 -2.2889
  161SAPE   H4Y18088   3.945   4.968   7.217 -2.4764  0.5457 -2.9221
  161SAPE   C3518089   3.864   5.140   7.330  0.0889  0.6672 -0.0449
  161SAPE   H5X18090   3.779   5.180   7.270  0.7854  1.0510 -0.8039
  161SAPE   H5Y18091   3.899   5.226   7.391  0.9434  1.0209 -0.9891
  161SAPE   C3618092   3.805   5.035   7.428 -0.6829 -0.9999  0.6877
  161SAPE   H6X18093   3.756   4.950   7.376 -0.7061  0.2171 -1.3871
  161SAPE   H6Y18094   3.727   5.088   7.486 -0.1539  2.3547 -1.4042
  161SAPE   C3718095   3.920   4.985   7.523  0.2671  0.2239 -0.1271
  161SAPE   H7X18096   3.968   5.079   7.557 -4.0915  2.7244 -0.0614
  161SAPE   H7Y18097   3.996   4.930   7.463  1.4356  1.1213  0.4964
  161SAPE   C3818098   3.863   4.898   7.640  0.7946 -0.0556 -0.1286
  161SAPE   H8X18099   3.825   4.804   7.595 -0.4196  1.0924 -1.5996
  161SAPE   H8Y18100   3.783   4.958   7.688 -0.1627  1.0564 -2.9043
  161SAPE   C3918101   3.964   4.873   7.748  0.4100 -0.3998  0.7436
  161SAPE   H9X18102   4.056   4.932   7.727 -0.5744  1.2648  0.9057
  161SAPE   H9Y18103   3.998   4.767   7.754  0.2450 -0.6121 -1.4859
  161SAPE  C31018104   3.924   4.926   7.886  0.3158 -0.2383  0.3652
  161SAPE  H10X18105   3.837   4.868   7.923  0.2316 -0.2723  0.1190
  161SAPE  H10Y18106   3.886   5.029   7.868 -0.6492 -0.0811  2.9189
  161SAPE  C31118107   4.038   4.926   7.983 -0.3386 -0.6221  0.1306
  161SAPE  H11X18108   4.123   4.981   7.936  0.0536 -1.2024  0.1473
  161SAPE  H11Y18109   4.064   4.818   7.998  1.9374  0.0148  1.4169
  161SAPE  C31218110   4.003   5.004   8.110 -0.0911 -0.0871  0.5293
  161SAPE  H12X18111   3.973   5.109   8.089  5.3060  1.9903  1.5842
  161SAPE  H12Y18112   4.093   5.016   8.174 -0.4364  2.5593  0.6060
  161SAPE  C31318113   3.906   4.931   8.200  0.1150 -0.2006 -0.0647
  161SAPE  H13X18114   3.945   4.829   8.216 -0.3067 -0.1545  1.3643
  161SAPE  H13Y18115   3.808   4.927   8.147  0.8910  0.3749 -1.6171
  161SAPE  C31418116   3.883   5.010   8.328  0.1041 -0.2199 -0.2173
  161SAPE  H14X18117   3.831   5.107   8.311 -1.5947 -1.3507 -1.9158
  161SAPE  H14Y18118   3.982   5.033   8.375  2.2899 -1.2206 -3.8931
  161SAPE  C31518119   3.796   4.925   8.433  0.6600 -0.6654  0.0204
  161SAPE  H15X18120   3.832   4.821   8.420  0.5324 -0.6350 -0.6419
  161SAPE  H15Y18121   3.693   4.927   8.390  0.7284 -0.6158 -0.1411
  161SAPE  C31618122   3.790   4.979   8.573  0.2803 -0.5052  0.5600
  161SAPE  H16X18123   3.891   5.021   8.589  0.0855  0.1031  0.2264
  161SAPE  H16Y18124   3.768   4.895   8.642  1.1934 -2.3336 -1.2726
  161SAPE  C31718125   3.715   5.105   8.602  0.1380  0.4251 -0.0574
  161SAPE  H17X18126   3.749   5.187   8.534  1.5566 -0.0529  0.0494
  161SAPE  H17Y18127   3.741   5.132   8.706  1.3764 -2.3845  0.4488
  161SAPE  C31818128   3.567   5.089   8.584  0.6829 -0.5046  0.0773
  161SAPE  H18X18129   3.531   4.988   8.613 -3.7619  0.9058  0.2209
  161SAPE  H18Y18130   3.532   5.102   8.480 -1.0756 -0.8071  0.5993
  161SAPE  H18Z18131   3.511   5.162   8.647  0.1131  0.3666 -1.3785
  162SAPE     N18132   5.454   3.499   6.143 -0.8081  0.5312  0.1783
  162SAPE   HN118133   5.355   3.471   6.123 -0.1001 -2.6389  0.4874
  162SAPE   HN218134   5.460   3.596   6.107 -1.6650  0.0576 -1.3873
  162SAPE   HN318135   5.511   3.424   6.098 -1.1792  0.0546  0.4883
  162SAPE   C1218136   5.494   3.504   6.282 -0.0868  0.4441 -0.3855
  162SAPE  H12A18137   5.442   3.585   6.338  1.2050  1.5365 -0.7522
  162SAPE  H12B18138   5.599   3.538   6.289 -0.1317  0.3856  0.9203
  162SAPE   C1118139   5.490   3.363   6.348  0.0274 -0.3799 -0.5309
  162SAPE  H11A18140   5.385   3.338   6.373 -0.1048  0.1180 -0.5735
  162SAPE  H11B18141   5.532   3.378   6.450 -0.6569 -3.5690  0.3165
  162SAPE     P18142   5.575   3.114   6.333 -0.1329 -0.0178  0.4473
  162SAPE   O1318143   5.467   3.019   6.280  0.0334 -0.3882  0.1180
  162SAPE   O1418144   5.710   3.069   6.298 -0.0547 -0.0775  0.4527
  162SAPE   O1218145   5.552   3.267   6.269 -0.5940  0.0199 -0.2901
  162SAPE   O1118146   5.569   3.134   6.490 -0.8027 -0.3350  0.1304
  162SAPE    C118147   5.651   3.044   6.571  0.4303 -0.2328  0.1892
  162SAPE    HA18148   5.755   3.022   6.540  0.1016  0.1832 -1.2941
  162SAPE    HB18149   5.672   3.081   6.673  1.6776 -0.8409  0.1648
  162SAPE    C218150   5.593   2.904   6.602  0.8293 -0.6384  0.0502
  162SAPE    HS18151   5.581   2.840   6.512 -0.4138  0.4798 -0.6313
  162SAPE   O2118152   5.458   2.927   6.648 -0.7061 -0.0061 -0.1726
  162SAPE   C2118153   5.376   2.823   6.641  0.1777 -0.1983 -0.7843
  162SAPE   O2218154   5.405   2.718   6.590  0.2689 -0.6071  0.3138
  162SAPE   C2218155   5.237   2.846   6.705  0.1366  0.2091 -0.8365
  162SAPE   H2R18156   5.252   2.935   6.769 -2.6379  0.4357 -0.3789
  162SAPE   H2S18157   5.169   2.871   6.621 -0.0187  0.2273 -0.7047
  162SAPE    C318158   5.678   2.824   6.699 -0.1806  0.7651  0.1743
  162SAPE    HX18159   5.780   2.808   6.657 -0.0795  0.7914  0.4083
  162SAPE    HY18160   5.635   2.725   6.724  0.5089  0.1878 -0.8288
  162SAPE   O3118161   5.702   2.895   6.819  0.2342 -0.7707 -0.3776
  162SAPE   C3118162   5.650   2.846   6.930 -0.3840  0.2207  0.0490
  162SAPE   O3218163   5.595   2.739   6.941 -0.0285  0.2176 -0.1210
  162SAPE   C3218164   5.669   2.944   7.047  0.0948 -0.5971 -0.0040
  162SAPE   H2X18165   5.606   3.031   7.017  1.8940  0.7132 -0.0949
  162SAPE   H2Y18166   5.777   2.969   7.050 -0.1847  0.9217 -1.3076
  162SAPE   C2318167   5.185   2.722   6.787  0.5527 -0.1700 -0.1625
  162SAPE   H3R18168   5.257   2.688   6.865 -0.6315 -0.6658  0.7498
  162SAPE   H3S18169   5.168   2.628   6.730  0.9102 -0.0897 -0.4057
  162SAPE   C2418170   5.047   2.761   6.853 -0.1109 -0.3033  0.1583
  162SAPE   H4R18171   4.964   2.793   6.786 -1.1809 -0.6766  1.2504
  162SAPE   H4S18172   5.065   2.848   6.919  0.3488 -1.6959  1.9609
  162SAPE   C2518173   4.998   2.648   6.938  0.1207  0.2167  0.3055
  162SAPE   H5R18174   4.941   2.569   6.886 -0.4523  0.9546 -0.2191
  162SAPE   C2618175   5.003   2.642   7.074 -0.4736  0.0085  0.0961
  162SAPE   H6R18176   4.985   2.553   7.136  0.3406  1.4010  2.4640
  162SAPE   C2718177   5.049   2.755   7.169 -0.1723 -0.1951  0.1729
  162SAPE   H7R18178   5.109   2.833   7.117  0.3468  0.1978  1.3169
  162SAPE   H7S18179   5.124   2.716   7.241  1.3248  0.8594 -0.7612
  162SAPE   C2818180   4.942   2.821   7.247  0.4203  0.2029  0.6721
  162SAPE   H8R18181   4.893   2.905   7.195 -0.8964 -1.4909 -0.9789
  162SAPE   C2918182   4.885   2.766   7.349 -0.4534  0.4626 -1.0976
  162SAPE   H9R18183   4.814   2.824   7.410  1.9771  0.5016  1.9289
  162SAPE  C21018184   4.925   2.631   7.410 -0.7196 -0.0165 -0.4017
  162SAPE  H10R18185   5.035   2.623   7.398 -0.5795 -3.3811  1.8642
  162SAPE  H10S18186   4.862   2.557   7.356 -1.1580 -0.5047  0.7543
  162SAPE  C21118187   4.894   2.621   7.560  0.0023 -0.0602  0.2238
  162SAPE  H11R18188   4.811   2.552   7.579 -0.6486  0.5632 -0.2987
  162SAPE  C21218189   4.957   2.685   7.659  1.2884  0.1333 -0.1018
  162SAPE  H12R18190   4.936   2.652   7.762 -0.6526  3.3623  0.6674
  162SAPE  C21318191   5.074   2.776   7.644  0.1892 -0.3172  0.5297
  162SAPE  H13R18192   5.031   2.878   7.658 -0.0788 -0.7176  3.0800
  162SAPE  H13S18193   5.102   2.773   7.536 -2.3082 -0.0583 -0.1920
  162SAPE  C21418194   5.185   2.757   7.744 -0.3596 -0.2281 -0.1590
  162SAPE  H14R18195   5.154   2.774   7.848 -0.5153 -1.8253  0.0857
  162SAPE  C21518196   5.318   2.731   7.720  0.2025  0.4139 -0.0185
  162SAPE  H15R18197   5.388   2.729   7.804  0.9198 -2.3065 -0.5651
  162SAPE  C21618198   5.377   2.717   7.579 -1.0303  0.5063  0.0309
  162SAPE  H16R18199   5.486   2.740   7.583 -0.7619 -0.8410  1.1132
  162SAPE  H16S18200   5.331   2.786   7.504 -1.9136 -2.4210 -2.3278
  162SAPE  C21718201   5.363   2.565   7.528  0.3459  0.3351 -0.5871
  162SAPE  H17R18202   5.258   2.533   7.547  1.1708 -0.7008  3.2120
  162SAPE  H17S18203   5.441   2.504   7.578  0.0343  0.4290  0.0270
  162SAPE  C21818204   5.401   2.556   7.381 -0.2311 -0.4486  0.2578
  162SAPE  H18R18205   5.511   2.542   7.381  0.2021  2.3917 -0.5993
  162SAPE  H18S18206   5.373   2.644   7.319 -2.2365 -0.7462  0.6774
  162SAPE  C21918207   5.347   2.439   7.302  0.0933 -0.8602 -0.0650
  162SAPE  H19R18208   5.237   2.422   7.306 -0.2512  0.9637 -0.5330
  162SAPE  H19S18209   5.395   2.353   7.352 -1.7031 -1.2618  1.0509
  162SAPE  C22018210   5.387   2.445   7.160  0.0830  0.0418  0.0272
  162SAPE  H20R18211   5.391   2.550   7.125  0.1149  0.8060  2.1774
  162SAPE  H20S18212   5.317   2.391   7.091 -0.9989  0.5937  0.6640
  162SAPE  H20T18213   5.492   2.415   7.139 -0.1354  0.1800 -1.3565
  162SAPE   C3318214   5.628   2.880   7.185  0.6336 -0.3977 -0.2696
  162SAPE   H3X18215   5.686   2.787   7.203  2.2014  0.5631 -0.1847
  162SAPE   H3Y18216   5.520   2.854   7.181  0.5159  0.1949 -1.1855
  162SAPE   C3418217   5.671   2.974   7.301  0.3737  0.5892  0.7642
  162SAPE   H4X18218   5.622   3.071   7.282  1.7705  1.0418 -0.8516
  162SAPE   H4Y18219   5.776   3.005   7.280  0.3353 -0.9567 -2.2261
  162SAPE   C3518220   5.639   2.934   7.437 -0.2987  0.3180  0.5327
  162SAPE   H5X18221   5.676   2.830   7.447 -0.1212  0.0254 -2.2697
  162SAPE   H5Y18222   5.533   2.936   7.467 -0.3701 -0.0589  0.3135
  162SAPE   C3618223   5.721   3.016   7.538  0.0179  0.2446  1.1705
  162SAPE   H6X18224   5.700   3.125   7.532 -0.1942  0.1533 -0.1226
  162SAPE   H6Y18225   5.827   2.996   7.513 -0.5778 -1.5054 -0.1886
  162SAPE   C3718226   5.699   2.972   7.676  0.2306  0.6839 -0.2757
  162SAPE   H7X18227   5.705   2.862   7.691  0.4101  0.6816 -0.3679
  162SAPE   H7Y18228   5.595   3.011   7.685 -0.4282 -0.5761 -1.8409
  162SAPE   C3818229   5.800   3.028   7.781  0.2657  0.5408  0.1860
  162SAPE   H8X18230   5.835   3.127   7.745  2.3789  0.4055  1.6973
  162SAPE   H8Y18231   5.882   2.954   7.786  0.3258  0.5680 -0.3709
  162SAPE   C3918232   5.741   3.046   7.927  0.8427 -0.1912 -0.0897
  162SAPE   H9X18233   5.691   2.949   7.948  0.9583 -0.0224  1.0609
  162SAPE   H9Y18234   5.656   3.116   7.926 -0.4856 -1.7085  1.0503
  162SAPE  C31018235   5.832   3.111   8.031  0.2313 -0.2662 -0.9505
  162SAPE  H10X18236   5.889   3.191   7.978  2.0892 -2.0854 -1.8402
  162SAPE  H10Y18237   5.914   3.040   8.057 -0.1361 -0.6962 -0.9600
  162SAPE  C31118238   5.756   3.162   8.149  0.4707 -0.8367 -0.0797
  162SAPE  H11X18239   5.810   3.166   8.246 -1.2044 -3.4579  1.0935
  162SAPE  H11Y18240   5.676   3.090   8.178 -0.3622  1.5028  4.3339
  162SAPE  C31218241   5.693   3.304   8.119  0.4776 -0.2205 -0.1464
  162SAPE  H12X18242   5.608   3.306   8.047  1.1338 -0.9514 -0.9571
  162SAPE  H12Y18243   5.769   3.358   8.058  2.3760 -0.9505  1.4704
  162SAPE  C31318244   5.662   3.385   8.240 -0.2328 -1.1243  0.4243
  162SAPE  H13X18245   5.610   3.477   8.207  2.4419  0.4462  0.2956
  162SAPE  H13Y18246   5.755   3.421   8.290 -0.8609  0.4024  0.5399
  162SAPE  C31418247   5.589   3.310   8.359  0.0879  0.1707  0.9590
  162SAPE  H14X18248   5.663   3.248   8.414  0.1022  0.5269  1.3468
  162SAPE  H14Y18249   5.514   3.239   8.320 -2.1774  2.1704  1.4458
  162SAPE  C31518250   5.521   3.397   8.466 -0.5368 -0.2872 -0.1329
  162SAPE  H15X18251   5.593   3.476   8.496 -1.1425  0.2744 -0.1149
  162SAPE  H15Y18252   5.510   3.333   8.556 -0.1970  0.4831  0.4731
  162SAPE  C31618253   5.394   3.464   8.416 -0.7472  0.0759 -0.4269
  162SAPE  H16X18254   5.326   3.390   8.368  1.1890 -3.5911  1.9717
  162SAPE  H16Y18255   5.440   3.525   8.335 -2.3448  1.2181 -0.5122
  162SAPE  C31718256   5.331   3.560   8.516  0.4794 -0.5176  0.1726
  162SAPE  H17X18257   5.407   3.602   8.586  0.5715 -0.0941 -0.1736
  162SAPE  H17Y18258   5.267   3.501   8.585 -1.3988 -2.2072 -2.8088
  162SAPE  C31818259   5.241   3.670   8.457  0.8332 -0.3656 -0.2637
  162SAPE  H18X18260   5.216   3.749   8.530  0.5130 -0.2564 -0.4893
  162SAPE  H18Y18261   5.141   3.628   8.434  0.9593 -1.1806  0.6280
  162SAPE  H18Z18262   5.279   3.723   8.366 -1.5004  0.4122 -0.8517
  163SAPE     N18263   4.971   0.405   6.498 -0.2531 -0.6021 -0.0419
  163SAPE   HN118264   5.022   0.489   6.465  1.6260 -1.1645  1.2344
  163SAPE   HN218265   5.032   0.321   6.491 -0.6948 -1.0220  0.9510
  163SAPE   HN318266   4.887   0.395   6.438 -1.0826  1.4685  0.7105
  163SAPE   C1218267   4.924   0.429   6.641 -0.3364 -0.2300  0.0961
  163SAPE  H12A18268   4.855   0.350   6.677 -1.1598  2.3360  4.9652
  163SAPE  H12B18269   4.865   0.523   6.648  0.1417  0.1922 -1.1738
  163SAPE   C1118270   5.052   0.442   6.731 -0.6037  0.0637 -0.0979
  163SAPE  H11A18271   5.117   0.355   6.709  0.9240  1.1695 -0.1390
  163SAPE  H11B18272   5.045   0.445   6.842  2.9736  0.4689  0.2319
  163SAPE     P18273   5.104   0.700   6.739 -0.1062  0.1421 -0.1041
  163SAPE   O1318274   5.189   0.795   6.661  0.0651  0.2323 -0.1675
  163SAPE   O1418275   4.962   0.722   6.735 -0.1466 -0.0086 -0.1137
  163SAPE   O1218276   5.131   0.555   6.688  0.3901  0.3586  0.2490
  163SAPE   O1118277   5.150   0.692   6.890 -0.3968 -0.4337  0.5409
  163SAPE    C118278   5.291   0.724   6.918 -0.6577  0.5577 -1.0027
  163SAPE    HA18279   5.343   0.805   6.864  1.4474 -0.6161 -0.8555
  163SAPE    HB18280   5.287   0.771   7.019 -1.4638  0.6885 -1.0872
  163SAPE    C218281   5.386   0.596   6.918 -0.1712  0.7326  0.2461
  163SAPE    HS18282   5.393   0.571   6.810 -0.6854 -0.9970  0.5798
  163SAPE   O2118283   5.312   0.485   6.983  0.1928  0.0832 -0.3852
  163SAPE   C2118284   5.304   0.369   6.915  1.1386 -0.3214  0.1033
  163SAPE   O2218285   5.357   0.340   6.810 -0.1407 -0.1819 -0.5223
  163SAPE   C2218286   5.220   0.273   6.992 -0.2293 -0.1934 -0.6439
  163SAPE   H2R18287   5.141   0.329   7.046 -0.9359  0.1469 -1.9825
  163SAPE   H2S18288   5.170   0.208   6.917 -2.4031  0.4283  0.1962
  163SAPE    C318289   5.524   0.628   6.987  0.2135 -0.1178  0.5675
  163SAPE    HX18290   5.553   0.720   6.931  1.0526  0.5386  2.0040
  163SAPE    HY18291   5.601   0.549   6.980  0.0824 -0.3288  1.4057
  163SAPE   O3118292   5.497   0.668   7.122 -0.6532  0.2878  0.0905
  163SAPE   C3118293   5.529   0.577   7.214  0.1690 -0.1215 -0.3340
  163SAPE   O3218294   5.575   0.466   7.193 -0.2516 -0.3136  0.0876
  163SAPE   C3218295   5.483   0.639   7.343 -0.1043  0.5916  0.0800
  163SAPE   H2X18296   5.374   0.622   7.346  0.1805 -1.4000  0.3182
  163SAPE   H2Y18297   5.519   0.744   7.334  3.3623 -0.4328  0.3394
  163SAPE   C2318298   5.309   0.191   7.088  1.0158 -0.0877 -0.0308
  163SAPE   H3R18299   5.371   0.265   7.142  1.1046 -1.4417  1.7957
  163SAPE   H3S18300   5.375   0.122   7.031  0.7401 -2.1558  1.9885
  163SAPE   C2418301   5.210   0.102   7.162 -0.7418  0.1469 -0.0387
  163SAPE   H4R18302   5.132   0.065   7.092  0.3526 -1.4696 -0.4741
  163SAPE   H4S18303   5.169   0.182   7.227 -2.8086 -0.2286 -0.8199
  163SAPE   C2518304   5.291  -0.002   7.240 -0.3281  0.7979 -0.2238
  163SAPE   H5R18305   5.329  -0.083   7.175 -0.5304  1.9450 -1.8463
  163SAPE   C2618306   5.318  -0.008   7.376  0.0311 -0.1046 -0.6882
  163SAPE   H6R18307   5.372  -0.093   7.421 -0.9889 -1.9613 -2.7385
  163SAPE   C2718308   5.272   0.097   7.475  0.5301  0.2131  0.4001
  163SAPE   H7R18309   5.173   0.138   7.444  0.3799  0.0240  0.6280
  163SAPE   H7S18310   5.352   0.173   7.471  1.6275 -0.8386  1.7981
  163SAPE   C2818311   5.281   0.036   7.619  0.2766 -0.4238 -0.0279
  163SAPE   H8R18312   5.225  -0.056   7.641  0.3997 -0.3243  0.7231
  163SAPE   C2918313   5.376   0.064   7.714  0.6634 -0.4237  0.2814
  163SAPE   H9R18314   5.368   0.026   7.817 -0.2052  3.6044  1.8764
  163SAPE  C21018315   5.483   0.166   7.700  0.0134 -0.2118  0.1816
  163SAPE  H10R18316   5.457   0.230   7.613  0.6693  2.3379  1.7372
  163SAPE  H10S18317   5.583   0.119   7.691 -1.0779 -2.3887 -1.1359
  163SAPE  C21118318   5.502   0.263   7.816 -0.1097  0.2722 -0.3391
  163SAPE  H11R18319   5.478   0.370   7.799 -1.7588  0.4162  2.3675
  163SAPE  C21218320   5.543   0.231   7.940 -0.2328  0.0325 -0.1978
  163SAPE  H12R18321   5.544   0.305   8.021 -0.8660 -1.6769  1.4301
  163SAPE  C21318322   5.580   0.086   7.983  0.1264 -0.2743 -0.6075
  163SAPE  H13R18323   5.554   0.019   7.898 -1.0114  1.2252 -1.5159
  163SAPE  H13S18324   5.530   0.060   8.078 -0.1235 -1.1777 -0.9774
  163SAPE  C21418325   5.733   0.080   8.002  0.3321  0.4159  0.2651
  163SAPE  H14R18326   5.794   0.058   7.914  0.7117 -1.1122  0.8745
  163SAPE  C21518327   5.809   0.088   8.107  0.2639  0.0729 -0.2170
  163SAPE  H15R18328   5.917   0.090   8.090  0.2443 -2.0853 -0.9264
  163SAPE  C21618329   5.766   0.111   8.248  0.4103  0.1955 -0.2572
  163SAPE  H16R18330   5.829   0.051   8.316  0.3835  1.5521  1.0033
  163SAPE  H16S18331   5.661   0.076   8.255  0.2082  0.4257 -1.7488
  163SAPE  C21718332   5.778   0.261   8.286  0.4724  0.4217 -0.5804
  163SAPE  H17R18333   5.742   0.325   8.203  1.0413  0.0965 -1.0833
  163SAPE  H17S18334   5.888   0.273   8.287  0.7843 -1.6856  1.6403
  163SAPE  C21818335   5.716   0.313   8.418  0.4046  0.1486 -0.8289
  163SAPE  H18R18336   5.762   0.257   8.502 -0.7715  0.5615  0.1257
  163SAPE  H18S18337   5.609   0.284   8.413 -0.3589  2.6281 -0.2810
  163SAPE  C21918338   5.732   0.463   8.446 -0.2042  0.0930  0.4157
  163SAPE  H19R18339   5.671   0.519   8.371 -3.2358 -1.1868  1.7418
  163SAPE  H19S18340   5.839   0.490   8.440 -0.0883 -0.4938 -0.2799
  163SAPE  C22018341   5.693   0.506   8.591 -0.5940  0.1778  0.5925
  163SAPE  H20R18342   5.740   0.605   8.608  1.4278 -0.4897 -0.8508
  163SAPE  H20S18343   5.730   0.428   8.662 -0.0215 -0.1065 -0.0189
  163SAPE  H20T18344   5.586   0.523   8.617 -0.6641 -1.4666  1.5582
  163SAPE   C3318345   5.544   0.578   7.468  0.2068 -0.2284  0.0389
  163SAPE   H3X18346   5.653   0.591   7.452  0.3618 -0.8516  0.5404
  163SAPE   H3Y18347   5.526   0.469   7.465 -2.8604  0.1300  1.4305
  163SAPE   C3418348   5.495   0.631   7.604 -0.4666 -0.4813 -0.8062
  163SAPE   H4X18349   5.410   0.565   7.631 -2.3869  1.5111 -1.7448
  163SAPE   H4Y18350   5.466   0.736   7.585  2.7151  0.4655 -0.9699
  163SAPE   C3518351   5.614   0.637   7.702  0.1839 -0.2733 -1.6869
  163SAPE   H5X18352   5.707   0.657   7.644  0.4046  0.7400 -1.0258
  163SAPE   H5Y18353   5.625   0.534   7.743  0.7631 -0.2392 -1.7486
  163SAPE   C3618354   5.586   0.732   7.818 -0.1696 -0.0018 -0.7184
  163SAPE   H6X18355   5.489   0.695   7.856 -0.7610 -0.0075 -2.2016
  163SAPE   H6Y18356   5.577   0.838   7.785 -0.4101  0.3947  0.5291
  163SAPE   C3718357   5.680   0.742   7.943  0.8420  0.6547  0.7525
  163SAPE   H7X18358   5.788   0.761   7.926  1.3281 -0.4231  2.3415
  163SAPE   H7Y18359   5.674   0.639   7.984 -1.5300  0.0882 -0.8355
  163SAPE   C3818360   5.629   0.836   8.055 -0.4866  0.4203 -0.3912
  163SAPE   H8X18361   5.520   0.829   8.075 -0.8381  4.1670 -0.3783
  163SAPE   H8Y18362   5.642   0.939   8.016  1.1852  0.8929  1.2278
  163SAPE   C3918363   5.701   0.809   8.191 -0.1771  0.6464  0.3188
  163SAPE   H9X18364   5.809   0.819   8.168  0.0153  1.1615  1.4000
  163SAPE   H9Y18365   5.697   0.700   8.213  0.3858 -0.2801 -3.4119
  163SAPE  C31018366   5.654   0.897   8.306 -0.3641 -0.1952  0.4069
  163SAPE  H10X18367   5.548   0.888   8.340 -0.9819 -1.6620 -1.7273
  163SAPE  H10Y18368   5.670   1.002   8.274 -0.1778  0.0045  1.1347
  163SAPE  C31118369   5.755   0.878   8.425  0.2462  0.6219 -0.2183
  163SAPE  H11X18370   5.851   0.928   8.401  0.4953 -0.5305 -1.7535
  163SAPE  H11Y18371   5.770   0.771   8.452  1.4500  0.2031 -2.2941
  163SAPE  C31218372   5.685   0.940   8.547 -0.1843  0.1701 -0.7263
  163SAPE  H12X18373   5.580   0.906   8.556  0.1592 -1.6444 -2.7341
  163SAPE  H12Y18374   5.683   1.047   8.517  3.1902 -0.0854 -2.3740
  163SAPE  C31318375   5.768   0.927   8.677 -0.4466  0.2415 -0.3880
  163SAPE  H13X18376   5.876   0.938   8.654 -1.0033  1.9423 -2.4815
  163SAPE  H13Y18377   5.758   0.825   8.721  0.4440 -0.2203 -1.2146
  163SAPE  C31418378   5.708   1.025   8.781  0.3135 -0.2657  0.5932
  163SAPE  H14X18379   5.637   0.986   8.857 -1.4506  1.8235  0.1444
  163SAPE  H14Y18380   5.652   1.109   8.734 -0.6950 -1.0936  0.2931
  163SAPE  C31518381   5.822   1.077   8.872  0.1041  0.1824  0.3095
  163SAPE  H15X18382   5.893   1.132   8.806  1.5788 -1.4055  0.4731
  163SAPE  H15Y18383   5.875   0.993   8.922 -1.3253 -0.4118  0.8502
  163SAPE  C31618384   5.768   1.168   8.981  0.2431 -0.2409 -0.2320
  163SAPE  H16X18385   5.694   1.107   9.037  1.9178 -0.8181  1.4571
  163SAPE  H16Y18386   5.712   1.250   8.931 -1.8957 -0.0176  2.3283
  163SAPE  C31718387   5.885   1.217   9.079  0.3728  0.0642 -0.1977
  163SAPE  H17X18388   5.823   1.256   9.163  1.1048 -0.9544  0.8500
  163SAPE  H17Y18389   5.930   1.304   9.026  1.1891 -0.4043 -0.2882
  163SAPE  C31818390   5.987   1.111   9.131  0.1451 -0.2366 -0.3517
  163SAPE  H18X18391   6.059   1.156   9.202  0.3612 -2.1122  0.6763
  163SAPE  H18Y18392   6.038   1.054   9.050  1.5892 -1.7121  1.5231
  163SAPE  H18Z18393   5.937   1.039   9.200 -1.7033  1.7753  0.5346
  164SAPE     N18394   0.749   4.853   5.591 -0.3894  0.0637  0.1759
  164SAPE   HN118395   0.689   4.928   5.553  0.5842  1.1758  0.7633
  164SAPE   HN218396   0.846   4.878   5.563 -1.1487  2.5214 -0.4482
  164SAPE   HN318397   0.717   4.760   5.556  1.3742 -0.4652 -0.1502
  164SAPE   C1218398   0.743   4.854   5.740 -0.5479 -0.5867 -0.5090
  164SAPE  H12A18399   0.811   4.771   5.767  0.2396  0.6141  1.4476
  164SAPE  H12B18400   0.637   4.852   5.775 -0.4238  3.4158  0.6472
  164SAPE   C1118401   0.829   4.981   5.791 -0.4562 -0.0861 -0.0251
  164SAPE  H11A18402   0.854   4.965   5.898  2.2414  2.1123 -0.2142
  164SAPE  H11B18403   0.765   5.071   5.779 -1.2795 -0.8623 -1.8280
  164SAPE     P18404   1.083   4.928   5.724  0.3088  0.0008 -0.2095
  164SAPE   O1318405   1.090   4.799   5.650  0.0026  0.0965 -0.5453
  164SAPE   O1418406   1.177   5.034   5.684 -0.6304 -0.2041  0.3257
  164SAPE   O1218407   0.945   4.987   5.706 -0.2131 -0.9887  0.3173
  164SAPE   O1118408   1.100   4.912   5.880  0.5399  0.9235 -0.3178
  164SAPE    C118409   1.062   4.784   5.941  0.3045 -0.0477 -0.3669
  164SAPE    HA18410   0.957   4.761   5.913  0.6867 -0.9733 -1.1044
  164SAPE    HB18411   1.118   4.697   5.899 -2.0312 -2.2670  0.7976
  164SAPE    C218412   1.105   4.786   6.089  0.9560  0.4475  0.5922
  164SAPE    HS18413   1.079   4.686   6.129 -1.2554 -1.0960 -4.0108
  164SAPE   O2118414   1.030   4.882   6.165  1.0599 -0.5783 -0.3237
  164SAPE   C2118415   0.901   4.863   6.169 -0.4623 -0.6693  0.0248
  164SAPE   O2218416   0.841   4.772   6.116 -0.2816 -0.1736 -0.1816
  164SAPE   C2218417   0.834   4.980   6.234 -0.2329 -0.1278  0.1852
  164SAPE   H2R18418   0.902   5.018   6.314  2.9588  0.9902 -2.8326
  164SAPE   H2S18419   0.837   5.056   6.154  1.0415  0.2820  0.5969
  164SAPE    C318420   1.259   4.804   6.102  0.0264 -0.3123  0.1474
  164SAPE    HX18421   1.274   4.890   6.033 -1.8802 -1.3666 -1.7291
  164SAPE    HY18422   1.313   4.717   6.060  0.7666  0.2924 -0.1764
  164SAPE   O3118423   1.306   4.844   6.225  0.1800 -0.4548  1.2766
  164SAPE   C3118424   1.428   4.892   6.221  0.6509 -0.3359  0.4573
  164SAPE   O3218425   1.496   4.909   6.121  0.6475 -0.3232 -0.3575
  164SAPE   C3218426   1.457   4.932   6.373  0.4479 -0.6335 -0.1537
  164SAPE   H2X18427   1.374   4.903   6.441  2.1925 -3.2645  1.0290
  164SAPE   H2Y18428   1.478   5.040   6.361  0.2777 -0.6510 -0.6332
  164SAPE   C2318429   0.686   4.955   6.276 -0.0975  0.4851  0.4741
  164SAPE   H3R18430   0.690   4.861   6.336  1.4551  0.2892  0.0917
  164SAPE   H3S18431   0.629   4.930   6.184 -0.5495  0.0078  0.8733
  164SAPE   C2418432   0.631   5.072   6.350 -0.3016 -0.6735 -0.5786
  164SAPE   H4R18433   0.633   5.150   6.272 -1.9356 -1.5714 -1.5897
  164SAPE   H4S18434   0.710   5.112   6.416  0.6823 -2.9243 -0.2818
  164SAPE   C2518435   0.491   5.059   6.405 -0.5127  0.0828 -0.2943
  164SAPE   H5R18436   0.410   5.031   6.336 -1.1441  2.0547 -0.4130
  164SAPE   C2618437   0.461   5.066   6.533  0.0383  0.4413  0.1194
  164SAPE   H6R18438   0.354   5.053   6.555 -0.0428  1.3759  0.2811
  164SAPE   C2718439   0.554   5.097   6.648  0.1855 -0.0875  0.3451
  164SAPE   H7R18440   0.651   5.053   6.619  0.4734  0.2357  0.7959
  164SAPE   H7S18441   0.520   5.043   6.739  1.2429 -1.6360 -0.1418
  164SAPE   C2818442   0.576   5.243   6.685  0.5952 -0.3236  0.1079
  164SAPE   H8R18443   0.583   5.311   6.599  1.4885 -1.5980 -0.8888
  164SAPE   C2918444   0.585   5.299   6.808 -0.4236  0.4844  0.0994
  164SAPE   H9R18445   0.594   5.409   6.809  3.9996  0.3199 -0.4758
  164SAPE  C21018446   0.577   5.222   6.935  0.1433  0.3865 -0.8296
  164SAPE  H10R18447   0.643   5.133   6.943 -1.0709 -0.3985  1.4002
  164SAPE  H10S18448   0.479   5.173   6.921 -0.2650  1.1495 -0.7102
  164SAPE  C21118449   0.590   5.310   7.058  0.0121  0.4023  0.0907
  164SAPE  H11R18450   0.677   5.378   7.052 -0.8205  1.5480  0.4989
  164SAPE  C21218451   0.507   5.325   7.159 -0.1499  0.5206 -0.1940
  164SAPE  H12R18452   0.539   5.396   7.237  0.5596  1.3311 -1.2044
  164SAPE  C21318453   0.378   5.256   7.183 -0.3976  0.6321  0.4187
  164SAPE  H13R18454   0.406   5.149   7.195 -0.9588  0.5214  0.7662
  164SAPE  H13S18455   0.316   5.257   7.091 -1.6430 -2.3295  1.1260
  164SAPE  C21418456   0.302   5.293   7.307 -0.7035  0.2464  0.1860
  164SAPE  H14R18457   0.270   5.206   7.366 -2.9321 -0.2959 -1.6831
  164SAPE  C21518458   0.252   5.412   7.348 -0.0478 -0.9347  0.5567
  164SAPE  H15R18459   0.211   5.433   7.448 -2.2870  0.6441 -0.5860
  164SAPE  C21618460   0.257   5.539   7.264 -0.6058 -0.2331 -0.1235
  164SAPE  H16R18461   0.153   5.575   7.248 -1.0889 -0.4615  2.2492
  164SAPE  H16S18462   0.299   5.507   7.166  0.9368  1.3895 -0.0514
  164SAPE  C21718463   0.338   5.659   7.311 -0.1455  0.4740  0.2744
  164SAPE  H17R18464   0.290   5.698   7.404  0.2236  0.2799  0.5477
  164SAPE  H17S18465   0.319   5.745   7.243  0.0480  0.7835  0.6057
  164SAPE  C21818466   0.478   5.630   7.358  0.1650 -0.2732  0.0557
  164SAPE  H18R18467   0.529   5.573   7.278  0.9211 -1.8784  1.6097
  164SAPE  H18S18468   0.488   5.561   7.445  0.2027 -0.1353  0.1605
  164SAPE  C21918469   0.552   5.767   7.390  0.1427 -0.5352  0.0985
  164SAPE  H19R18470   0.502   5.799   7.485 -0.4380  0.4584 -0.5161
  164SAPE  H19S18471   0.543   5.838   7.305  1.3365 -2.0109 -1.3248
  164SAPE  C22018472   0.695   5.749   7.420 -0.8880 -0.7754 -0.6882
  164SAPE  H20R18473   0.733   5.853   7.433 -1.2272 -0.8108  0.7604
  164SAPE  H20S18474   0.754   5.705   7.336  2.7842  0.2580  1.1419
  164SAPE  H20T18475   0.715   5.703   7.519  2.4233  1.4277 -0.1743
  164SAPE   C3318476   1.589   4.864   6.422 -0.3206 -0.2389  0.2091
  164SAPE   H3X18477   1.640   4.932   6.493  0.7659 -1.3031  0.4794
  164SAPE   H3Y18478   1.657   4.865   6.334  1.9731  0.7768  1.9055
  164SAPE   C3418479   1.580   4.721   6.480 -0.5475 -0.6197 -0.4292
  164SAPE   H4X18480   1.679   4.670   6.486 -0.2844  0.0551  2.6719
  164SAPE   H4Y18481   1.525   4.672   6.396  0.9171  1.7654 -2.9715
  164SAPE   C3518482   1.516   4.718   6.617 -0.7458 -0.1864 -0.2561
  164SAPE   H5X18483   1.418   4.770   6.617  0.0631  1.4029 -1.6668
  164SAPE   H5Y18484   1.575   4.768   6.696 -0.4008  0.0303 -0.6477
  164SAPE   C3618485   1.475   4.570   6.650 -0.0365 -0.1420 -0.6157
  164SAPE   H6X18486   1.572   4.516   6.642 -0.7180 -1.7700  1.1352
  164SAPE   H6Y18487   1.406   4.530   6.573  0.1934 -0.3274 -0.7263
  164SAPE   C3718488   1.424   4.539   6.795 -0.0695  0.1302  0.6248
  164SAPE   H7X18489   1.441   4.431   6.815  4.8873 -0.3135 -3.7106
  164SAPE   H7Y18490   1.320   4.576   6.784  0.2004  0.5352 -0.8080
  164SAPE   C3818491   1.500   4.624   6.903  0.3985  0.3248 -0.4835
  164SAPE   H8X18492   1.480   4.731   6.882 -0.1931  0.5970  1.2816
  164SAPE   H8Y18493   1.610   4.614   6.914  0.1683  0.0861  2.3658
  164SAPE   C3918494   1.432   4.614   7.039 -0.6917 -0.4931 -0.3410
  164SAPE   H9X18495   1.376   4.518   7.039 -2.8030  0.6716 -0.0202
  164SAPE   H9Y18496   1.352   4.690   7.052  1.2634  1.7271 -0.6689
  164SAPE  C31018497   1.535   4.624   7.152  0.0218 -0.6864  0.3011
  164SAPE  H10X18498   1.579   4.725   7.161  1.2605 -1.0754 -1.0191
  164SAPE  H10Y18499   1.622   4.561   7.124 -1.4645 -2.3329 -0.8501
  164SAPE  C31118500   1.481   4.582   7.288 -0.0824  0.1163 -0.0399
  164SAPE  H11X18501   1.421   4.489   7.277 -0.7165  0.6548 -1.4663
  164SAPE  H11Y18502   1.406   4.662   7.301 -0.2666  0.0421 -0.6045
  164SAPE  C31218503   1.578   4.580   7.407 -0.7098  0.4313 -0.4156
  164SAPE  H12X18504   1.635   4.675   7.411  1.3568 -0.7703 -0.0396
  164SAPE  H12Y18505   1.642   4.490   7.393  1.5319  1.5851  1.7032
  164SAPE  C31318506   1.514   4.566   7.546 -0.4060 -0.0239 -0.0291
  164SAPE  H13X18507   1.460   4.468   7.553 -0.3172  0.0260  1.7927
  164SAPE  H13Y18508   1.436   4.642   7.565  0.3840  0.9621 -0.6560
  164SAPE  C31418509   1.624   4.571   7.651  0.0085 -0.0593 -0.3910
  164SAPE  H14X18510   1.673   4.671   7.656  0.4197 -0.0537 -3.2593
  164SAPE  H14Y18511   1.708   4.506   7.620 -1.7643 -1.6485 -2.1232
  164SAPE  C31518512   1.568   4.535   7.790 -0.6298  0.0263 -0.7006
  164SAPE  H15X18513   1.519   4.436   7.778 -0.1615 -0.2325 -0.5077
  164SAPE  H15Y18514   1.486   4.602   7.824  0.5384  0.9186  0.4170
  164SAPE  C31618515   1.684   4.512   7.889  0.2405  0.3227  0.2002
  164SAPE  H16X18516   1.766   4.584   7.869  1.6158 -1.2920 -0.2092
  164SAPE  H16Y18517   1.737   4.421   7.855  1.4554  0.7413  0.9004
  164SAPE  C31718518   1.641   4.501   8.033  0.7313 -0.3480  0.4328
  164SAPE  H17X18519   1.568   4.418   8.044 -0.7782  0.9126  0.3655
  164SAPE  H17Y18520   1.584   4.594   8.054  1.1645  0.3146 -1.1823
  164SAPE  C31818521   1.760   4.500   8.127  0.2819 -0.0086 -0.0090
  164SAPE  H18X18522   1.816   4.595   8.143 -1.7795  1.0631  1.2229
  164SAPE  H18Y18523   1.826   4.422   8.084 -0.6385 -0.9085  0.1747
  164SAPE  H18Z18524   1.723   4.464   8.225  0.8962 -1.3164 -0.2317
  165SAPE     N18525   3.596   3.042   6.230  0.1205  0.1052 -0.2865
  165SAPE   HN118526   3.600   2.982   6.144 -0.3486 -0.6571  0.2097
  165SAPE   HN218527   3.562   3.133   6.191  1.9885  2.0582  2.3285
  165SAPE   HN318528   3.693   3.038   6.266 -0.5085 -0.2631  1.4389
  165SAPE   C1218529   3.498   3.001   6.333  0.3651  0.2571 -0.8732
  165SAPE  H12A18530   3.473   3.090   6.395 -1.6858 -0.2860 -0.8470
  165SAPE  H12B18531   3.547   2.922   6.394 -0.3075  1.2092  0.9673
  165SAPE   C1118532   3.361   2.957   6.259  0.3238 -0.0761  0.4781
  165SAPE  H11A18533   3.284   2.941   6.338  0.5534 -0.5583  0.6040
  165SAPE  H11B18534   3.381   2.862   6.206  0.3020  0.9063 -1.3892
  165SAPE     P18535   3.161   3.048   6.134 -0.3714 -0.1166 -0.6885
  165SAPE   O1318536   3.123   3.142   6.023 -0.6279 -0.0826  0.1943
  165SAPE   O1418537   3.126   2.907   6.123  0.1473 -0.0499  0.2190
  165SAPE   O1218538   3.319   3.055   6.167  0.0856  0.4328 -0.8257
  165SAPE   O1118539   3.096   3.110   6.269  0.0389  0.7396 -0.1383
  165SAPE    C118540   2.956   3.088   6.301 -0.4735 -0.1804 -0.3242
  165SAPE    HA18541   2.894   3.054   6.215 -0.1805  1.7555 -1.3464
  165SAPE    HB18542   2.952   3.001   6.370 -2.3795 -0.2119 -0.4160
  165SAPE    C218543   2.881   3.217   6.336  0.6591 -0.1522  0.1636
  165SAPE    HS18544   2.915   3.289   6.258 -0.2298  0.2012  0.0868
  165SAPE   O2118545   2.905   3.254   6.470  0.7619  0.3315  0.1495
  165SAPE   C2118546   2.861   3.379   6.497  0.2708 -0.1923  0.0674
  165SAPE   O2218547   2.816   3.455   6.417  0.3856 -0.4215 -0.1834
  165SAPE   C2218548   2.896   3.403   6.640  0.0023  0.4377 -0.2752
  165SAPE   H2R18549   2.854   3.324   6.706  1.6621  1.3238  1.9761
  165SAPE   H2S18550   3.006   3.398   6.652  0.0346 -1.2673 -0.9381
  165SAPE    C318551   2.731   3.190   6.307  0.0996 -0.2057  0.1250
  165SAPE    HX18552   2.717   3.187   6.197  0.3236  1.2841  0.0350
  165SAPE    HY18553   2.670   3.278   6.340  0.3254 -0.4816  1.3357
  165SAPE   O3118554   2.683   3.064   6.370 -0.5882 -0.8303 -0.0673
  165SAPE   C3118555   2.632   3.086   6.492 -0.0161 -0.1393  1.1814
  165SAPE   O3218556   2.599   3.199   6.535 -0.3441 -0.1234 -0.1488
  165SAPE   C3218557   2.622   2.954   6.572 -0.2884 -0.8617  0.1926
  165SAPE   H2X18558   2.710   2.890   6.547  0.2541  0.2762 -0.9539
  165SAPE   H2Y18559   2.533   2.897   6.539 -2.0320 -0.1254  3.2109
  165SAPE   C2318560   2.842   3.545   6.683 -0.3790  0.2075 -0.0870
  165SAPE   H3R18561   2.733   3.556   6.671 -0.9884 -1.9185  2.4675
  165SAPE   H3S18562   2.893   3.627   6.628  0.5880  0.2299  0.7916
  165SAPE   C2418563   2.875   3.567   6.828  0.6472  0.6796  0.0349
  165SAPE   H4R18564   2.822   3.481   6.876  4.2851 -1.3703  0.7013
  165SAPE   H4S18565   2.829   3.662   6.863 -0.0210  0.5053 -0.3484
  165SAPE   C2518566   3.012   3.564   6.885 -0.2038 -0.0312  0.6187
  165SAPE   H5R18567   3.087   3.583   6.806 -2.8325 -2.2560 -2.6999
  165SAPE   C2618568   3.050   3.542   7.009 -0.7168  0.8994 -0.8229
  165SAPE   H6R18569   3.157   3.533   7.032 -0.4334 -0.1749 -2.4256
  165SAPE   C2718570   2.969   3.513   7.135 -0.2203 -0.0541 -0.5038
  165SAPE   H7R18571   2.861   3.500   7.111 -1.1134 -0.9933  3.4372
  165SAPE   H7S18572   2.974   3.599   7.205  3.5126 -1.9201  1.8409
  165SAPE   C2818573   3.029   3.388   7.195 -0.0426 -0.0104  0.3399
  165SAPE   H8R18574   3.057   3.307   7.126 -0.5413 -0.4875  0.6856
  165SAPE   C2918575   3.038   3.348   7.325  0.6413  0.1802 -0.9334
  165SAPE   H9R18576   3.104   3.261   7.341  0.1419 -0.6371 -2.9531
  165SAPE  C21018577   2.994   3.421   7.444 -0.0730 -0.7092  0.1326
  165SAPE  H10R18578   2.950   3.348   7.515 -0.8701 -1.1458 -0.8008
  165SAPE  H10S18579   2.916   3.496   7.420 -0.8015 -0.6130  2.5202
  165SAPE  C21118580   3.102   3.499   7.517 -0.1456  0.1213  0.1549
  165SAPE  H11R18581   3.152   3.569   7.450  1.2869 -2.2657 -1.4161
  165SAPE  C21218582   3.139   3.484   7.644 -0.2778 -0.4181 -0.3894
  165SAPE  H12R18583   3.205   3.562   7.685 -0.8465 -0.2184  0.1573
  165SAPE  C21318584   3.087   3.379   7.741 -0.2780  0.0753  0.3390
  165SAPE  H13R18585   3.166   3.351   7.814  0.0561 -0.1534 -0.1044
  165SAPE  H13S18586   3.058   3.287   7.685  0.5281 -0.0351  0.0839
  165SAPE  C21418587   2.966   3.436   7.816  0.0019  0.8439 -0.1799
  165SAPE  H14R18588   2.905   3.499   7.748 -2.0705 -0.2898  0.5400
  165SAPE  C21518589   2.930   3.401   7.943  0.0030  0.1615  0.8235
  165SAPE  H15R18590   2.835   3.444   7.977  0.8181  2.7299  0.0397
  165SAPE  C21618591   2.987   3.300   8.034  0.9913  0.5407 -0.0776
  165SAPE  H16R18592   3.087   3.255   8.019  2.3047  1.7359  3.7456
  165SAPE  H16S18593   2.911   3.221   8.044 -2.2573  3.2346 -1.5612
  165SAPE  C21718594   2.996   3.369   8.171 -0.8865  0.3792  0.1587
  165SAPE  H17R18595   2.898   3.383   8.221 -0.2216 -1.7412  2.1989
  165SAPE  H17S18596   3.033   3.474   8.161 -0.5126  0.2202 -0.1518
  165SAPE  C21818597   3.082   3.288   8.269 -0.2535 -0.0769 -0.3638
  165SAPE  H18R18598   3.182   3.277   8.222 -0.3361 -0.3340 -0.4798
  165SAPE  H18S18599   3.039   3.186   8.281 -2.4561  0.6308 -1.7825
  165SAPE  C21918600   3.088   3.350   8.412 -0.6820  0.0244  0.6709
  165SAPE  H19R18601   2.984   3.353   8.451 -0.6842 -0.9191  0.7612
  165SAPE  H19S18602   3.130   3.451   8.394  0.5904 -0.9031 -2.1591
  165SAPE  C22018603   3.189   3.280   8.499 -0.3818 -0.1865 -0.9364
  165SAPE  H20R18604   3.288   3.305   8.455  0.2443  0.5118  0.7639
  165SAPE  H20S18605   3.178   3.171   8.514 -1.6223  0.2484  2.1193
  165SAPE  H20T18606   3.192   3.321   8.603  3.1121  1.0399 -1.3743
  165SAPE   C3318607   2.615   2.978   6.729 -0.6381  0.3337  0.1365
  165SAPE   H3X18608   2.555   2.901   6.781  1.0455 -0.0481  1.5828
  165SAPE   H3Y18609   2.570   3.079   6.743 -2.4242 -0.3576 -0.2709
  165SAPE   C3418610   2.751   2.979   6.802  0.0685 -0.7063  0.2998
  165SAPE   H4X18611   2.809   3.074   6.796  0.0053 -0.5751  1.5346
  165SAPE   H4Y18612   2.817   2.895   6.769  1.7120  0.3389  0.7794
  165SAPE   C3518613   2.718   2.955   6.946 -0.5652 -0.0186 -0.5882
  165SAPE   H5X18614   2.696   2.848   6.964 -1.5799  0.5013  1.5668
  165SAPE   H5Y18615   2.631   3.017   6.975  0.3897  0.4275  1.5313
  165SAPE   C3618616   2.831   2.994   7.044 -0.2323 -0.1468  0.1172
  165SAPE   H6X18617   2.853   3.100   7.022 -2.8825  0.3107 -0.6633
  165SAPE   H6Y18618   2.915   2.923   7.028  0.2484 -0.4022  3.1683
  165SAPE   C3718619   2.783   2.973   7.189 -0.2136  0.5933 -0.5169
  165SAPE   H7X18620   2.740   2.871   7.195  0.9250  0.1546  0.8359
  165SAPE   H7Y18621   2.708   3.051   7.215 -0.4472 -0.4665  2.2827
  165SAPE   C3818622   2.887   2.988   7.297 -0.5756 -0.9836 -0.6448
  165SAPE   H8X18623   2.899   3.097   7.314 -0.8143 -1.1720  0.8686
  165SAPE   H8Y18624   2.987   2.951   7.264 -0.0054  0.3578 -0.5076
  165SAPE   C3918625   2.853   2.931   7.437  0.0393 -0.1619  0.1752
  165SAPE   H9X18626   2.846   2.821   7.433 -0.5877 -0.0812 -3.0484
  165SAPE   H9Y18627   2.757   2.981   7.463 -1.2674 -1.6541 -1.5268
  165SAPE  C31018628   2.956   2.961   7.546 -0.8195 -0.2471  0.5359
  165SAPE  H10X18629   2.964   3.071   7.563  0.3894 -0.4164  1.1967
  165SAPE  H10Y18630   3.052   2.919   7.507  0.6898  4.2438 -1.3157
  165SAPE  C31118631   2.933   2.899   7.682  0.1980  0.0733 -0.2735
  165SAPE  H11X18632   3.009   2.960   7.736  0.2586  2.7520 -3.0605
  165SAPE  H11Y18633   2.951   2.790   7.673  0.6491 -0.0921  2.0602
  165SAPE  C31218634   2.797   2.922   7.748 -0.2225 -0.7096 -0.1992
  165SAPE  H12X18635   2.720   2.869   7.688  0.1978 -0.9302 -0.5478
  165SAPE  H12Y18636   2.786   3.033   7.748  1.6398 -0.4704 -1.8210
  165SAPE  C31318637   2.793   2.870   7.889 -0.1464  0.0748 -0.1168
  165SAPE  H13X18638   2.887   2.894   7.944  0.6428 -0.6003 -1.1288
  165SAPE  H13Y18639   2.797   2.760   7.871  0.7146  0.2252 -0.8709
  165SAPE  C31418640   2.668   2.905   7.968  0.3532  0.7443  0.6892
  165SAPE  H14X18641   2.587   2.910   7.891  1.5085  0.7769 -0.5693
  165SAPE  H14Y18642   2.684   3.000   8.021 -1.1060  2.0383 -1.0320
  165SAPE  C31518643   2.632   2.786   8.056 -0.2159 -1.0032 -0.7873
  165SAPE  H15X18644   2.668   2.688   8.019  3.2610  0.0053 -0.4159
  165SAPE  H15Y18645   2.523   2.781   8.074  0.2321 -0.9558  2.5527
  165SAPE  C31618646   2.698   2.803   8.197  0.9103 -0.4693 -0.1875
  165SAPE  H16X18647   2.694   2.903   8.245 -0.1695 -0.3139 -0.5685
  165SAPE  H16Y18648   2.805   2.802   8.164  0.2125 -1.1058 -2.6565
  165SAPE  C31718649   2.639   2.706   8.300  0.3726  0.4462  0.3348
  165SAPE  H17X18650   2.654   2.603   8.261  1.3303  0.7939 -0.2483
  165SAPE  H17Y18651   2.530   2.716   8.317 -0.8285 -3.2363 -3.4265
  165SAPE  C31818652   2.713   2.714   8.432  0.7979 -0.1300 -0.5549
  165SAPE  H18X18653   2.696   2.807   8.490  0.5106  0.5605 -1.7114
  165SAPE  H18Y18654   2.822   2.695   8.419  1.2921  0.8873  1.6440
  165SAPE  H18Z18655   2.675   2.635   8.500  1.8758 -0.7045 -0.5873
  166SAPE     N18656   0.460   5.503   5.853 -0.3140  0.4680 -0.2781
  166SAPE   HN118657   0.388   5.560   5.804 -0.8691 -0.0368 -0.0672
  166SAPE   HN218658   0.554   5.526   5.814  0.3835  0.0575  1.1049
  166SAPE   HN318659   0.441   5.409   5.813 -0.7624  0.1712  0.6077
  166SAPE   C1218660   0.456   5.535   6.000 -0.2330  0.2518  0.1486
  166SAPE  H12A18661   0.521   5.461   6.052  0.9594  0.3732 -1.0937
  166SAPE  H12B18662   0.351   5.512   6.026 -0.0811  0.0142  0.5759
  166SAPE   C1118663   0.499   5.681   6.037  0.3849 -0.5118  0.1396
  166SAPE  H11A18664   0.592   5.700   5.980  1.0503 -0.8569  1.0836
  166SAPE  H11B18665   0.540   5.709   6.137  0.4626  0.8999 -0.2589
  166SAPE     P18666   0.274   5.823   6.067 -0.7774 -0.1813 -0.1342
  166SAPE   O1318667   0.231   5.951   6.011  0.1231  0.2773 -0.2118
  166SAPE   O1418668   0.171   5.718   6.077 -0.3203 -0.6465  0.4230
  166SAPE   O1218669   0.398   5.761   5.979 -0.0709 -0.7893  0.2228
  166SAPE   O1118670   0.339   5.848   6.210  0.2802 -0.0497  0.9131
  166SAPE    C118671   0.419   5.965   6.240  0.2114  0.2227 -0.0626
  166SAPE    HA18672   0.464   6.003   6.145  0.2799  1.4124  0.4293
  166SAPE    HB18673   0.355   6.051   6.269 -0.9624 -0.6527 -0.0000
  166SAPE    C218674   0.532   5.933   6.345  0.2048 -0.6757  0.2860
  166SAPE    HS18675   0.574   5.834   6.316  0.3832  0.0205 -2.0339
  166SAPE   O2118676   0.473   5.938   6.476 -0.3259  1.0933  0.7976
  166SAPE   C2118677   0.418   5.824   6.519 -0.2731  0.5983 -0.0838
  166SAPE   O2218678   0.436   5.716   6.465 -0.3761  0.1317 -0.1625
  166SAPE   C2218679   0.351   5.855   6.653 -0.7671  0.1072 -0.5297
  166SAPE   H2R18680   0.333   5.964   6.655 -1.1399  0.0877 -1.7511
  166SAPE   H2S18681   0.256   5.797   6.645 -0.3638 -1.0293  1.9504
  166SAPE    C318682   0.643   6.038   6.339  0.1938  0.6120 -0.4416
  166SAPE    HX18683   0.617   6.141   6.372  2.2730  0.6702  1.2169
  166SAPE    HY18684   0.682   6.054   6.236  1.9039 -0.6069 -0.0286
  166SAPE   O3118685   0.754   5.984   6.418  0.0187 -0.0380 -0.5713
  166SAPE   C3118686   0.789   6.056   6.524  0.6213 -0.1442 -0.9983
  166SAPE   O3218687   0.756   6.173   6.545  0.2304  0.5243 -0.2665
  166SAPE   C3218688   0.895   5.979   6.600  0.6360 -0.4673  0.1148
  166SAPE   H2X18689   0.988   5.961   6.543  1.9374 -2.8517  2.7228
  166SAPE   H2Y18690   0.850   5.878   6.609 -1.4030  0.5181  2.1612
  166SAPE   C2318691   0.439   5.807   6.774 -0.7102  0.2215 -0.4246
  166SAPE   H3R18692   0.493   5.709   6.776 -0.5058  0.3308  1.1069
  166SAPE   H3S18693   0.383   5.801   6.870  0.4228  2.1111  0.4079
  166SAPE   C2418694   0.542   5.920   6.809  1.0020 -0.5760  0.7868
  166SAPE   H4R18695   0.479   6.010   6.827 -1.1519 -1.8742  0.1719
  166SAPE   H4S18696   0.594   5.940   6.714  0.4147  0.8827  0.7451
  166SAPE   C2518697   0.631   5.890   6.918 -0.1394  1.1176 -0.6300
  166SAPE   H5R18698   0.676   5.790   6.909 -2.9585 -0.5936  2.0661
  166SAPE   C2618699   0.637   5.954   7.030 -0.1082 -0.4959 -0.2085
  166SAPE   H6R18700   0.700   5.925   7.116  0.9949 -0.2509 -0.9109
  166SAPE   C2718701   0.565   6.089   7.048  0.5344 -0.4965  0.0825
  166SAPE   H7R18702   0.578   6.110   7.156  1.0637  1.8414 -0.3954
  166SAPE   H7S18703   0.457   6.069   7.029  0.8303  0.0428 -2.5638
  166SAPE   C2818704   0.619   6.201   6.965  0.1451  0.3905 -0.3548
  166SAPE   H8R18705   0.581   6.213   6.862 -1.2660  2.1650  0.3322
  166SAPE   C2918706   0.725   6.274   7.000 -0.6617  0.4493  0.2079
  166SAPE   H9R18707   0.776   6.335   6.925  2.2030 -1.7469  0.1978
  166SAPE  C21018708   0.801   6.253   7.129 -0.4488 -0.2797 -0.0916
  166SAPE  H10R18709   0.906   6.272   7.099 -0.4743  0.2181  0.1094
  166SAPE  H10S18710   0.775   6.151   7.164  1.3212 -0.5348  0.5564
  166SAPE  C21118711   0.765   6.354   7.238 -0.8715 -0.0459  0.6050
  166SAPE  H11R18712   0.762   6.460   7.209  1.9235  0.2097  0.9224
  166SAPE  C21218713   0.751   6.321   7.362 -0.3060  0.5477 -1.0574
  166SAPE  H12R18714   0.726   6.405   7.428  1.0460  1.7448 -1.9936
  166SAPE  C21318715   0.767   6.191   7.429 -0.3676  0.1829  0.3225
  166SAPE  H13R18716   0.742   6.115   7.351 -1.6616  1.3530 -0.4483
  166SAPE  H13S18717   0.706   6.174   7.520 -1.8489  1.2530 -0.4443
  166SAPE  C21418718   0.913   6.175   7.455  0.1320  0.2049 -0.0804
  166SAPE  H14R18719   0.985   6.177   7.372  0.4463 -0.9022  0.1456
  166SAPE  C21518720   0.969   6.144   7.572  0.0036 -0.7244 -1.0124
  166SAPE  H15R18721   1.076   6.122   7.575  0.0221 -0.6112 -0.8629
  166SAPE  C21618722   0.895   6.119   7.701  0.1401  0.5392  0.6359
  166SAPE  H16R18723   0.953   6.055   7.770  1.4235 -0.4047 -1.2452
  166SAPE  H16S18724   0.803   6.064   7.672  0.6320  0.6518 -1.2778
  166SAPE  C21718725   0.846   6.246   7.774 -0.4965 -0.0701 -0.0601
  166SAPE  H17R18726   0.752   6.281   7.726 -0.5000  0.4242  0.3047
  166SAPE  H17S18727   0.930   6.318   7.774  3.1498 -3.9233 -0.6100
  166SAPE  C21818728   0.817   6.224   7.924  0.1089  0.4796  0.1535
  166SAPE  H18R18729   0.914   6.209   7.977 -1.3810  0.4747  3.0643
  166SAPE  H18S18730   0.771   6.125   7.941  1.0731 -0.2553 -1.3428
  166SAPE  C21918731   0.728   6.324   8.005 -0.6037  0.3845  0.0937
  166SAPE  H19R18732   0.650   6.368   7.939 -0.0927 -2.0604 -2.2989
  166SAPE  H19S18733   0.783   6.415   8.039  0.5194 -0.9361  1.9682
  166SAPE  C22018734   0.676   6.260   8.131  0.6351  0.5041 -0.1893
  166SAPE  H20R18735   0.751   6.213   8.198 -0.5549 -0.0536  0.7873
  166SAPE  H20S18736   0.598   6.181   8.117  1.4587 -0.8622  2.2967
  166SAPE  H20T18737   0.634   6.338   8.197  0.3338 -2.2579  3.1833
  166SAPE   C3318738   0.926   6.016   6.746  0.2227 -0.3479  0.6451
  166SAPE   H3X18739   0.834   6.034   6.805  0.0799  0.3178  0.2307
  166SAPE   H3Y18740   0.981   6.113   6.738  0.0783 -0.3651 -0.7388
  166SAPE   C3418741   1.017   5.921   6.824  0.4354 -0.5018  0.6661
  166SAPE   H4X18742   1.114   5.904   6.771  1.8089  0.0587  2.8465
  166SAPE   H4Y18743   0.975   5.819   6.836  0.9215 -0.8158 -0.1888
  166SAPE   C3518744   1.061   5.986   6.961 -0.1569  0.4143 -0.1475
  166SAPE   H5X18745   0.967   6.020   7.009  1.3389  2.4261  1.5264
  166SAPE   H5Y18746   1.119   6.079   6.943  0.5918 -0.1356 -0.6401
  166SAPE   C3618747   1.145   5.891   7.053 -0.2495 -0.5938 -0.7130
  166SAPE   H6X18748   1.232   5.851   6.996 -0.7436 -1.8785 -0.6090
  166SAPE   H6Y18749   1.091   5.795   7.069  2.1900 -2.1812 -1.5233
  166SAPE   C3718750   1.210   5.957   7.179  0.6696  0.3026  0.0444
  166SAPE   H7X18751   1.127   5.989   7.246  0.8941  2.4227 -0.6074
  166SAPE   H7Y18752   1.266   6.047   7.146  1.7047 -1.6383 -4.1901
  166SAPE   C3818753   1.297   5.854   7.254  0.6016 -0.1940  0.3492
  166SAPE   H8X18754   1.380   5.830   7.185 -0.0556 -1.0589 -0.1653
  166SAPE   H8Y18755   1.247   5.762   7.292  0.2891 -0.1317  0.0908
  166SAPE   C3918756   1.361   5.920   7.374  0.0532 -0.6938  0.1784
  166SAPE   H9X18757   1.269   5.929   7.436 -0.8208 -3.7139 -0.5368
  166SAPE   H9Y18758   1.401   6.021   7.349  0.2042 -0.8669 -0.2798
  166SAPE  C31018759   1.467   5.842   7.454  0.1193 -0.2224  0.5392
  166SAPE  H10X18760   1.547   5.795   7.393 -0.0944 -2.2110  1.7069
  166SAPE  H10Y18761   1.406   5.765   7.504 -0.1600  0.8898  1.9794
  166SAPE  C31118762   1.536   5.927   7.564 -0.1873  0.1125  0.3984
  166SAPE  H11X18763   1.457   5.964   7.632  0.2320  1.0535  0.3813
  166SAPE  H11Y18764   1.590   6.016   7.527 -0.5743  0.0807 -0.2654
  166SAPE  C31218765   1.632   5.838   7.632 -0.5453 -0.2618 -0.2478
  166SAPE  H12X18766   1.686   5.775   7.558 -1.8132  0.4243 -1.8116
  166SAPE  H12Y18767   1.576   5.770   7.699  1.3453 -0.7647  0.9091
  166SAPE  C31318768   1.734   5.911   7.718 -0.5928 -0.4995 -0.4523
  166SAPE  H13X18769   1.689   5.998   7.771  0.9638  1.7567 -2.6322
  166SAPE  H13Y18770   1.793   5.968   7.643  0.9900 -1.9033 -0.3120
  166SAPE  C31418771   1.830   5.830   7.803 -0.3401 -0.1242 -0.7718
  166SAPE  H14X18772   1.908   5.904   7.829  1.2605 -0.8082 -3.2041
  166SAPE  H14Y18773   1.867   5.746   7.740 -0.9513 -0.5768 -0.5390
  166SAPE  C31518774   1.766   5.757   7.925 -0.4032 -0.5578  0.9127
  166SAPE  H15X18775   1.854   5.700   7.962  1.5667 -0.4081 -3.0210
  166SAPE  H15Y18776   1.684   5.688   7.896 -1.9972  1.2888  0.8682
  166SAPE  C31618777   1.725   5.854   8.032  0.6719  0.0916 -0.5150
  166SAPE  H16X18778   1.655   5.931   7.994  1.5238  0.4596 -1.4110
  166SAPE  H16Y18779   1.824   5.902   8.049  1.0390 -0.4179 -1.1710
  166SAPE  C31718780   1.663   5.793   8.159  0.4838 -0.8871  0.7019
  166SAPE  H17X18781   1.631   5.878   8.224 -0.0186  1.6073 -2.5609
  166SAPE  H17Y18782   1.741   5.734   8.211 -0.0617 -2.7540 -0.4709
  166SAPE  C31818783   1.536   5.707   8.136 -1.2254 -0.1683 -0.8145
  166SAPE  H18X18784   1.573   5.628   8.067 -1.3144 -1.4472  0.5440
  166SAPE  H18Y18785   1.453   5.761   8.086  0.2730  0.9259 -2.2357
  166SAPE  H18Z18786   1.504   5.655   8.229  1.9926 -0.2141  0.3978
  167SAPE     N18787   2.725   5.492   6.009  0.4318  0.4595 -0.5504
  167SAPE   HN118788   2.706   5.479   5.908 -0.5053  1.4497 -0.5204
  167SAPE   HN218789   2.697   5.588   6.040 -1.3619  0.5463 -2.2194
  167SAPE   HN318790   2.828   5.488   6.021  0.5270  2.2962 -0.3450
  167SAPE   C1218791   2.678   5.375   6.091 -0.1361 -0.2806 -0.2362
  167SAPE  H12A18792   2.762   5.305   6.110 -0.9521 -2.1223 -2.8652
  167SAPE  H12B18793   2.591   5.335   6.034 -0.5370  0.6471 -0.3004
  167SAPE   C1118794   2.624   5.437   6.221 -0.1527  0.0729 -0.5117
  167SAPE  H11A18795   2.710   5.469   6.284 -0.2654 -1.9801  0.7707
  167SAPE  H11B18796   2.582   5.359   6.288  2.2374 -1.0054 -0.1589
  167SAPE     P18797   2.387   5.563   6.246  0.2794  0.2861  0.1922
  167SAPE   O1318798   2.338   5.699   6.226 -0.4499  0.3131  0.2808
  167SAPE   O1418799   2.318   5.463   6.175  0.2294  0.0716 -0.3635
  167SAPE   O1218800   2.538   5.548   6.202  0.2783  1.1324 -0.2009
  167SAPE   O1118801   2.391   5.537   6.403  0.0961  0.0158  0.9570
  167SAPE    C118802   2.490   5.577   6.499  0.2859 -0.4031  0.3518
  167SAPE    HA18803   2.563   5.496   6.517  0.7295  0.1936  1.3383
  167SAPE    HB18804   2.542   5.672   6.475  4.4008 -2.4382  0.3593
  167SAPE    C218805   2.415   5.608   6.634 -0.7487  0.0079 -0.6685
  167SAPE    HS18806   2.365   5.706   6.622 -0.4358  0.2050 -0.3928
  167SAPE   O2118807   2.518   5.624   6.742  0.2491  0.2878 -0.5379
  167SAPE   C2118808   2.575   5.737   6.739  0.0303  1.1149  0.2069
  167SAPE   O2218809   2.542   5.833   6.672 -0.3946  0.0599  0.2364
  167SAPE   C2218810   2.699   5.738   6.830  0.2582  0.4262  0.1761
  167SAPE   H2R18811   2.722   5.646   6.889  1.5694  1.0220  0.6353
  167SAPE   H2S18812   2.787   5.769   6.770 -0.0807 -0.2547 -0.6930
  167SAPE    C318813   2.306   5.505   6.669  0.2873  0.5885 -0.6516
  167SAPE    HX18814   2.363   5.413   6.694 -0.7121  0.1883  0.2316
  167SAPE    HY18815   2.242   5.493   6.579 -1.5552  0.9411  0.5571
  167SAPE   O3118816   2.220   5.547   6.781 -0.2596 -0.3287 -0.0047
  167SAPE   C3118817   2.140   5.451   6.830 -0.0727 -0.8650 -0.3547
  167SAPE   O3218818   2.141   5.339   6.788 -0.8308 -0.0020 -0.4444
  167SAPE   C3218819   2.071   5.501   6.960  0.1740  0.1251 -0.0869
  167SAPE   H2X18820   1.999   5.422   6.991  1.7897 -2.3074 -2.0617
  167SAPE   H2Y18821   2.019   5.598   6.945 -0.4700 -0.0439  0.9585
  167SAPE   C2318822   2.677   5.848   6.933 -0.6129 -0.0918  0.2368
  167SAPE   H3R18823   2.697   5.945   6.883  0.2539  0.3820  1.4373
  167SAPE   H3S18824   2.764   5.832   7.001  0.4769 -2.9942 -1.6437
  167SAPE   C2418825   2.551   5.832   7.030 -1.0046 -0.2439 -0.5072
  167SAPE   H4R18826   2.517   5.726   7.030  1.6835 -1.2143  1.2907
  167SAPE   H4S18827   2.464   5.881   6.982 -1.5937  1.1243  1.8158
  167SAPE   C2518828   2.571   5.899   7.164 -0.4374 -0.4332 -0.0424
  167SAPE   H5R18829   2.538   6.004   7.164  0.0568 -0.2605 -1.0790
  167SAPE   C2618830   2.618   5.844   7.279  0.3196  0.2254 -0.3165
  167SAPE   H6R18831   2.624   5.908   7.368 -0.3583  0.3538 -0.3587
  167SAPE   C2718832   2.657   5.699   7.294  0.2691 -0.2052  0.3539
  167SAPE   H7R18833   2.680   5.650   7.197  1.8068 -4.5369  2.6652
  167SAPE   H7S18834   2.580   5.642   7.350 -0.0326  1.2487  1.4769
  167SAPE   C2818835   2.790   5.698   7.362  0.0781 -0.3520 -0.0079
  167SAPE   H8R18836   2.871   5.687   7.289 -1.7896  0.9210 -2.3996
  167SAPE   C2918837   2.823   5.712   7.491 -0.1583  0.3617 -0.1441
  167SAPE   H9R18838   2.928   5.698   7.520 -1.0394 -1.2276  2.5947
  167SAPE  C21018839   2.733   5.715   7.616  0.0733  0.0532  0.6991
  167SAPE  H10R18840   2.684   5.814   7.622  0.6427  0.3722  0.1093
  167SAPE  H10S18841   2.800   5.722   7.705 -0.2493 -0.7047  1.0131
  167SAPE  C21118842   2.626   5.603   7.636 -0.2057 -0.3781  0.7144
  167SAPE  H11R18843   2.589   5.565   7.540  1.9178 -1.3996  0.2579
  167SAPE  C21218844   2.600   5.546   7.753  0.5181 -0.1286 -0.2399
  167SAPE  H12R18845   2.527   5.464   7.757 -0.5220  0.7903  0.2030
  167SAPE  C21318846   2.652   5.584   7.892 -0.2166  0.8419  0.9018
  167SAPE  H13R18847   2.567   5.596   7.963 -0.5947  2.8953  0.1821
  167SAPE  H13S18848   2.701   5.683   7.899  2.1482 -0.2146  0.2436
  167SAPE  C21418849   2.759   5.492   7.940 -0.3802 -0.5235 -0.2720
  167SAPE  H14R18850   2.763   5.388   7.903  0.9008 -0.3372 -0.7013
  167SAPE  C21518851   2.855   5.530   8.030  0.3411 -0.6312  0.3283
  167SAPE  H15R18852   2.926   5.452   8.063 -0.0644 -1.2886 -0.3393
  167SAPE  C21618853   2.875   5.658   8.102 -0.4589 -0.4438  0.4179
  167SAPE  H16R18854   2.881   5.645   8.212 -1.2884  1.3613  0.7265
  167SAPE  H16S18855   2.796   5.733   8.083  1.7793  1.8456 -0.5494
  167SAPE  C21718856   3.024   5.694   8.057  0.0717 -0.2604 -0.2694
  167SAPE  H17R18857   3.090   5.605   8.053  4.0381  2.3326  1.4125
  167SAPE  H17S18858   3.051   5.762   8.141  0.8039  2.2298 -2.3948
  167SAPE  C21818859   3.043   5.778   7.926  0.2279  0.1260  0.2458
  167SAPE  H18R18860   2.987   5.724   7.847 -2.0382  0.0729  1.7899
  167SAPE  H18S18861   3.150   5.797   7.905 -0.3717  0.8637 -2.3799
  167SAPE  C21918862   2.969   5.921   7.939 -0.5298  0.1101  0.4292
  167SAPE  H19R18863   3.039   5.981   8.000 -0.7610 -1.6901  2.6271
  167SAPE  H19S18864   2.876   5.901   7.997 -1.8237 -2.1365 -2.1409
  167SAPE  C22018865   2.931   5.991   7.804 -0.1826  0.0374 -0.1103
  167SAPE  H20R18866   2.894   6.094   7.821 -2.1383 -0.7547  0.7365
  167SAPE  H20S18867   2.850   5.932   7.757 -2.9108  0.2560  3.8176
  167SAPE  H20T18868   3.024   6.005   7.744 -0.4795  1.4825 -0.2761
  167SAPE   C3318869   2.176   5.518   7.068 -0.3200 -0.3157 -0.0798
  167SAPE   H3X18870   2.256   5.591   7.045  1.7841 -1.3773  3.1592
  167SAPE   H3Y18871   2.216   5.418   7.097  1.7655  0.8078  1.1723
  167SAPE   C3418872   2.109   5.577   7.202 -0.3289 -0.5546  0.5917
  167SAPE   H4X18873   2.018   5.520   7.228 -0.2410 -1.3789 -0.8117
  167SAPE   H4Y18874   2.077   5.682   7.191 -0.9834 -0.9460 -1.7740
  167SAPE   C3518875   2.203   5.576   7.322  0.3113  0.0716  1.4032
  167SAPE   H5X18876   2.292   5.642   7.311 -0.5029  0.8931 -0.7493
  167SAPE   H5Y18877   2.243   5.473   7.337  1.6244  0.3369 -0.0047
  167SAPE   C3618878   2.136   5.616   7.448 -0.2187 -0.0506 -0.0080
  167SAPE   H6X18879   2.053   5.547   7.477 -0.6132  0.5655  0.3601
  167SAPE   H6Y18880   2.084   5.713   7.436 -0.9063 -0.3656  0.3389
  167SAPE   C3718881   2.229   5.620   7.565  0.3374 -0.7147  0.0254
  167SAPE   H7X18882   2.313   5.685   7.530 -1.9103  1.2839 -2.0684
  167SAPE   H7Y18883   2.264   5.515   7.569  0.0822 -0.7830  0.4217
  167SAPE   C3818884   2.159   5.667   7.699  0.1237 -0.4461  0.1405
  167SAPE   H8X18885   2.086   5.588   7.727  1.5645 -1.3626  1.4854
  167SAPE   H8Y18886   2.104   5.763   7.688 -1.7699 -1.3280  1.2953
  167SAPE   C3918887   2.252   5.689   7.811  0.6228 -0.4189 -0.5910
  167SAPE   H9X18888   2.311   5.778   7.783 -3.4617  2.3674 -1.2588
  167SAPE   H9Y18889   2.321   5.603   7.824  1.6256  0.3581 -0.6479
  167SAPE  C31018890   2.192   5.727   7.953  0.5844  0.2520 -0.8680
  167SAPE  H10X18891   2.107   5.799   7.950 -2.3703 -2.7152  1.7906
  167SAPE  H10Y18892   2.274   5.778   8.008  0.3376 -2.0010  1.8004
  167SAPE  C31118893   2.136   5.601   8.025 -0.2545  0.1861 -0.7938
  167SAPE  H11X18894   2.224   5.534   8.024 -0.1363  0.3057  0.3327
  167SAPE  H11Y18895   2.057   5.548   7.968 -0.7905 -0.4972  0.5599
  167SAPE  C31218896   2.089   5.640   8.168  0.8079 -0.1415 -0.1912
  167SAPE  H12X18897   2.013   5.720   8.163 -1.0204 -1.5903  2.2494
  167SAPE  H12Y18898   2.173   5.663   8.237  1.2395 -1.9097 -0.0789
  167SAPE  C31318899   2.002   5.525   8.226  0.9748 -0.2436 -0.6688
  167SAPE  H13X18900   2.067   5.438   8.202  2.0412  0.0512  1.0226
  167SAPE  H13Y18901   1.912   5.513   8.163 -2.3998 -0.1432  3.7021
  167SAPE  C31418902   1.971   5.537   8.378  0.1892  0.5689 -0.1126
  167SAPE  H14X18903   1.898   5.617   8.401  0.5296  1.1431 -0.9896
  167SAPE  H14Y18904   2.064   5.584   8.416  0.2269 -1.1893  2.1778
  167SAPE  C31518905   1.951   5.407   8.460 -0.0069  0.5356  0.0732
  167SAPE  H15X18906   1.885   5.349   8.392 -0.1433 -1.4162  1.7696
  167SAPE  H15Y18907   1.909   5.420   8.562  4.2067  0.8448  1.9507
  167SAPE  C31618908   2.084   5.331   8.482  0.2652  0.8787 -0.3367
  167SAPE  H16X18909   2.145   5.391   8.553  1.1903 -0.0120 -0.3539
  167SAPE  H16Y18910   2.132   5.315   8.383 -0.3557  0.0358 -0.5134
  167SAPE  C31718911   2.061   5.194   8.547  0.8012  0.0550 -0.7233
  167SAPE  H17X18912   1.990   5.132   8.488 -0.8840  1.2021  0.0401
  167SAPE  H17Y18913   2.015   5.216   8.646 -0.6625  0.3721 -1.4507
  167SAPE  C31818914   2.186   5.098   8.572 -0.2638  0.1655  0.6565
  167SAPE  H18X18915   2.162   5.018   8.645 -0.1199  0.1344  0.6690
  167SAPE  H18Y18916   2.269   5.153   8.620  1.4915 -1.0797 -0.8131
  167SAPE  H18Z18917   2.211   5.061   8.470 -0.9029  0.2747  0.4560
  168SAPE     N18918   4.893   6.796   6.068  0.3141 -0.4072 -0.0943
  168SAPE   HN118919   4.933   6.702   6.090  4.2897  0.5852 -2.0060
  168SAPE   HN218920   4.790   6.809   6.065  0.1083 -1.3924  1.6169
  168SAPE   HN318921   4.932   6.816   5.974  3.2365 -0.2285  1.0607
  168SAPE   C1218922   4.951   6.900   6.170 -0.1211  0.5410 -0.0360
  168SAPE  H12A18923   4.923   7.001   6.135 -0.7643  0.4245  0.1334
  168SAPE  H12B18924   5.061   6.886   6.177 -0.0389  0.1928 -1.5730
  168SAPE   C1118925   4.887   6.887   6.302  0.4346  0.5423 -0.2101
  168SAPE  H11A18926   4.926   6.967   6.368  0.6456 -0.5967  1.0897
  168SAPE  H11B18927   4.928   6.789   6.335 -0.4164 -0.2244 -1.3526
  168SAPE     P18928   4.663   7.009   6.354  0.0566  0.8085 -0.2350
  168SAPE   O1318929   4.743   7.130   6.366 -0.2637  0.6540  0.1189
  168SAPE   O1418930   4.536   7.021   6.278  0.6409  0.5842  0.1744
  168SAPE   O1218931   4.744   6.879   6.299  0.1607 -0.0999  0.0628
  168SAPE   O1118932   4.629   6.967   6.493  0.1348 -0.0262  0.0091
  168SAPE    C118933   4.628   6.826   6.548  0.2494 -0.0827 -0.4678
  168SAPE    HA18934   4.550   6.764   6.500  1.3995 -2.0399  0.1037
  168SAPE    HB18935   4.727   6.778   6.532  0.6797 -0.7918  3.3168
  168SAPE    C218936   4.594   6.829   6.702 -0.7377 -0.0297 -0.2795
  168SAPE    HS18937   4.483   6.836   6.700 -0.9058 -1.1770  1.9598
  168SAPE   O2118938   4.654   6.948   6.752  0.2082 -0.0553  0.0966
  168SAPE   C2118939   4.581   7.016   6.839  0.0945 -1.0171 -0.3168
  168SAPE   O2218940   4.461   6.997   6.850  0.3970 -0.7820 -0.3638
  168SAPE   C2218941   4.668   7.109   6.927 -0.6554  0.3588  0.1523
  168SAPE   H2R18942   4.773   7.075   6.911 -1.1019 -1.7567  1.4395
  168SAPE   H2S18943   4.670   7.215   6.894  2.1551  0.3075 -0.0707
  168SAPE    C318944   4.639   6.700   6.772 -0.3968 -0.1752 -0.1121
  168SAPE    HX18945   4.750   6.692   6.772 -0.4352 -0.7885 -0.4733
  168SAPE    HY18946   4.591   6.623   6.708 -0.0346 -0.8094  0.3692
  168SAPE   O3118947   4.591   6.689   6.903  0.0241 -0.3241  0.5131
  168SAPE   C3118948   4.622   6.562   6.958  0.2957 -1.1654 -0.3434
  168SAPE   O3218949   4.676   6.474   6.901 -0.1347  0.2964 -0.4527
  168SAPE   C3218950   4.557   6.552   7.095 -0.1951  0.1647  0.0883
  168SAPE   H2X18951   4.456   6.510   7.073 -0.1911  1.0598 -1.8035
  168SAPE   H2Y18952   4.532   6.646   7.148 -0.7492  0.8434 -1.3320
  168SAPE   C2318953   4.632   7.100   7.075  0.9197  0.1413 -0.4796
  168SAPE   H3R18954   4.540   7.154   7.105  0.5514 -1.5145  1.6086
  168SAPE   H3S18955   4.713   7.157   7.125 -1.5633  2.6298  0.9455
  168SAPE   C2418956   4.604   6.964   7.133  0.1240  0.0820 -0.4554
  168SAPE   H4R18957   4.514   6.913   7.092 -0.7235  0.8966  0.3368
  168SAPE   H4S18958   4.554   6.977   7.232 -2.9215 -1.2400 -1.6958
  168SAPE   C2518959   4.723   6.870   7.142 -0.1543  0.0969  0.2696
  168SAPE   H5R18960   4.746   6.829   7.042 -0.4256  0.3774  0.0879
  168SAPE   C2618961   4.783   6.812   7.246  0.2482  0.6671  0.1031
  168SAPE   H6R18962   4.875   6.757   7.222 -0.2661  0.6465 -2.0274
  168SAPE   C2718963   4.761   6.822   7.392 -0.3047  0.4577  0.0964
  168SAPE   H7R18964   4.659   6.861   7.410 -0.0250  0.9919  0.5576
  168SAPE   H7S18965   4.831   6.889   7.447 -0.6170  1.7468 -1.0336
  168SAPE   C2818966   4.782   6.692   7.463 -0.4394  0.0205  0.1943
  168SAPE   H8R18967   4.841   6.616   7.410 -1.6159  0.1655 -1.4075
  168SAPE   C2918968   4.756   6.673   7.591  0.6482  0.4488 -0.3657
  168SAPE   H9R18969   4.779   6.579   7.644  0.6804  1.3873  1.3725
  168SAPE  C21018970   4.699   6.776   7.688 -0.1932  0.1187  0.2537
  168SAPE  H10R18971   4.687   6.873   7.636  0.3609 -0.4105 -0.9223
  168SAPE  H10S18972   4.772   6.786   7.771 -1.7389 -1.9239  1.9781
  168SAPE  C21118973   4.556   6.732   7.734  0.1928 -1.0741 -0.4016
  168SAPE  H11R18974   4.479   6.781   7.672  0.4931  1.0077  0.7821
  168SAPE  C21218975   4.530   6.646   7.837 -0.2055 -0.4704 -0.2312
  168SAPE  H12R18976   4.424   6.631   7.863 -0.0728 -0.4172  0.3407
  168SAPE  C21318977   4.632   6.571   7.918  0.7286 -0.9031 -0.3015
  168SAPE  H13R18978   4.727   6.552   7.864  0.2416 -1.9636 -0.8095
  168SAPE  H13S18979   4.604   6.469   7.953  0.9018 -0.5897  0.7997
  168SAPE  C21418980   4.667   6.663   8.031  0.6766 -0.1665 -0.2281
  168SAPE  H14R18981   4.728   6.748   7.998  1.2603 -0.0672  1.0609
  168SAPE  C21518982   4.627   6.648   8.164 -0.5568  0.2234  0.1139
  168SAPE  H15R18983   4.650   6.722   8.242 -2.7671  1.1329 -0.0389
  168SAPE  C21618984   4.536   6.533   8.201  0.3833  0.2706 -0.0747
  168SAPE  H16R18985   4.480   6.499   8.111  1.2300 -2.6929  0.4345
  168SAPE  H16S18986   4.452   6.573   8.261  0.1429  1.1640 -0.9708
  168SAPE  C21718987   4.594   6.410   8.264 -0.5736  0.1433  0.3483
  168SAPE  H17R18988   4.655   6.355   8.189 -0.4956 -0.0646  0.5632
  168SAPE  H17S18989   4.512   6.338   8.283 -2.1859  1.3124 -1.7427
  168SAPE  C21818990   4.681   6.439   8.397 -0.0284  0.2924 -0.1109
  168SAPE  H18R18991   4.611   6.496   8.462  0.0775 -0.9484  1.1145
  168SAPE  H18S18992   4.763   6.509   8.369  1.5958 -0.6767  1.9711
  168SAPE  C21918993   4.730   6.312   8.471 -0.1386  0.6469  0.0775
  168SAPE  H19R18994   4.808   6.333   8.547 -0.0386 -2.7631  1.1058
  168SAPE  H19S18995   4.798   6.253   8.406  0.2933  0.7599  0.4189
  168SAPE  C22018996   4.612   6.229   8.539 -0.0168  0.9679  0.0231
  168SAPE  H20R18997   4.648   6.144   8.601 -1.8970  1.3909  1.8125
  168SAPE  H20S18998   4.548   6.198   8.453  0.4959 -0.1041  0.0084
  168SAPE  H20T18999   4.553   6.292   8.609  0.5516  3.4311 -1.5996
  168SAPE   C3319000   4.627   6.450   7.187  0.3320  0.1577  0.8098
  168SAPE   H3X19001   4.730   6.487   7.209 -0.1600  1.3683  1.1598
  168SAPE   H3Y19002   4.628   6.350   7.138 -2.7498  0.2039  0.4338
  168SAPE   C3419003   4.557   6.432   7.322 -0.3378 -0.1957 -0.4369
  168SAPE   H4X19004   4.457   6.384   7.317 -0.3307 -0.4279  1.1569
  168SAPE   H4Y19005   4.532   6.529   7.371 -1.7291 -0.4506 -0.5929
  168SAPE   C3519006   4.624   6.332   7.420  0.1523  0.2461 -0.0171
  168SAPE   H5X19007   4.730   6.365   7.424  0.3006 -0.3184  1.8663
  168SAPE   H5Y19008   4.624   6.229   7.377 -3.1959  0.9352 -2.0473
  168SAPE   C3619009   4.591   6.329   7.570  0.4287  0.3572  0.4124
  168SAPE   H6X19010   4.484   6.361   7.573 -0.4101 -1.4493 -3.6754
  168SAPE   H6Y19011   4.647   6.416   7.612  3.8519 -1.5139  0.0252
  168SAPE   C3719012   4.620   6.198   7.646  1.0315  0.2610 -0.3890
  168SAPE   H7X19013   4.726   6.175   7.623  1.0529  1.3165 -1.4074
  168SAPE   H7Y19014   4.559   6.118   7.598 -0.5817  1.3987 -0.2948
  168SAPE   C3819015   4.606   6.200   7.798  0.0771 -0.0893 -0.2838
  168SAPE   H8X19016   4.515   6.246   7.841 -0.6643  0.6037 -2.4570
  168SAPE   H8Y19017   4.695   6.256   7.832 -0.2224  0.9699 -1.1875
  168SAPE   C3919018   4.610   6.070   7.864 -0.4610 -0.4151 -0.3016
  168SAPE   H9X19019   4.695   6.012   7.823 -2.2793 -1.3270 -3.0404
  168SAPE   H9Y19020   4.521   6.011   7.832  0.4203 -2.1169  0.2529
  168SAPE  C31019021   4.608   6.069   8.018 -0.2089  0.4992 -0.1778
  168SAPE  H10X19022   4.554   6.162   8.046 -1.4068 -0.6560  1.5263
  168SAPE  H10Y19023   4.715   6.083   8.046 -0.6439 -0.0309  1.9456
  168SAPE  C31119024   4.534   5.948   8.085 -0.6115  0.2445 -0.0389
  168SAPE  H11X19025   4.597   5.860   8.059  0.2831  0.9987 -0.4867
  168SAPE  H11Y19026   4.439   5.941   8.028  0.0658  3.5244 -1.8301
  168SAPE  C31219027   4.510   5.955   8.239  0.0740 -0.4067 -0.3679
  168SAPE  H12X19028   4.454   6.049   8.258  3.5274  1.4879  1.5089
  168SAPE  H12Y19029   4.604   5.970   8.296 -0.8044 -0.0969  1.0472
  168SAPE  C31319030   4.445   5.834   8.297  0.2287  0.1438  0.1419
  168SAPE  H13X19031   4.528   5.761   8.285  0.8816  0.7972  0.6389
  168SAPE  H13Y19032   4.363   5.801   8.230  0.2912 -1.7444  0.9372
  168SAPE  C31419033   4.405   5.861   8.448  0.2274 -0.4466  0.7091
  168SAPE  H14X19034   4.334   5.946   8.455  2.1641  1.4061 -0.9239
  168SAPE  H14Y19035   4.490   5.901   8.506 -1.1442  0.4050  2.1947
  168SAPE  C31519036   4.370   5.728   8.511  0.1132  0.0325  0.2602
  168SAPE  H15X19037   4.444   5.647   8.495  1.8008  1.3381  1.0377
  168SAPE  H15Y19038   4.291   5.681   8.450  0.7443  0.0401 -0.5814
  168SAPE  C31619039   4.335   5.729   8.661 -0.0236 -0.4555 -0.9403
  168SAPE  H16X19040   4.429   5.750   8.718 -0.5427 -1.9241  0.5493
  168SAPE  H16Y19041   4.311   5.624   8.688  1.8590 -0.7417 -0.2028
  168SAPE  C31719042   4.208   5.805   8.712 -0.5603 -0.1168 -0.7313
  168SAPE  H17X19043   4.225   5.914   8.699 -0.9345 -0.0752 -0.8800
  168SAPE  H17Y19044   4.195   5.779   8.819 -2.1186  1.0212 -0.6139
  168SAPE  C31819045   4.073   5.766   8.637 -0.0495 -0.0295  0.5452
  168SAPE  H18X19046   4.060   5.816   8.539  1.9756 -0.1835  0.1613
  168SAPE  H18Y19047   3.992   5.804   8.703 -1.2146 -2.4822  0.6534
  168SAPE  H18Z19048   4.050   5.659   8.619  2.0324 -0.2785 -0.9988
  169SAPE     N19049   0.786   1.053   6.176 -0.6794  0.0700  0.0720
  169SAPE   HN119050   0.684   1.053   6.159 -0.2758 -0.9301 -3.0280
  169SAPE   HN219051   0.823   1.144   6.208  3.5493 -1.9263  1.6371
  169SAPE   HN319052   0.839   1.018   6.092 -1.7508 -0.9480 -0.2075
  169SAPE   C1219053   0.822   0.971   6.302  0.0287  0.2632  0.4598
  169SAPE  H12A19054   0.816   0.864   6.273  1.4126 -0.0084  1.0750
  169SAPE  H12B19055   0.737   0.989   6.371  0.1178 -0.9203  0.8905
  169SAPE   C1119056   0.965   0.991   6.351  0.1520 -0.1194  0.2932
  169SAPE  H11A19057   0.970   0.930   6.444  1.2609 -1.8774 -0.8616
  169SAPE  H11B19058   0.980   1.094   6.388 -2.6167  0.6962 -0.6022
  169SAPE     P19059   1.090   0.808   6.209 -0.2033 -0.0374 -0.1345
  169SAPE   O1319060   0.992   0.718   6.275  0.8116 -0.4862  0.0354
  169SAPE   O1419061   1.105   0.797   6.059 -0.3708 -0.1886 -0.5302
  169SAPE   O1219062   1.063   0.959   6.252  0.9198  0.5737  0.0423
  169SAPE   O1119063   1.231   0.797   6.279 -0.5062  0.7306  0.2304
  169SAPE    C119064   1.246   0.786   6.425 -0.8780  0.9397  0.7886
  169SAPE    HA19065   1.154   0.743   6.469 -0.0081  0.3189  2.0500
  169SAPE    HB19066   1.323   0.708   6.443  0.3211  1.9384  0.1264
  169SAPE    C219067   1.292   0.912   6.500  0.3618 -0.8887 -0.1646
  169SAPE    HS19068   1.210   0.987   6.498  0.7225 -0.2019  3.3620
  169SAPE   O2119069   1.419   0.954   6.450  0.6395  0.1432  0.3081
  169SAPE   C2119070   1.428   1.084   6.417  0.1325  0.5819  0.0457
  169SAPE   O2219071   1.339   1.166   6.404  0.0766  0.5170 -0.6485
  169SAPE   C2219072   1.581   1.111   6.410  0.3668 -0.4642 -0.0136
  169SAPE   H2R19073   1.630   1.013   6.429  0.5532 -0.4858 -0.5902
  169SAPE   H2S19074   1.612   1.139   6.307 -0.3653  4.5311  0.8903
  169SAPE    C319075   1.318   0.889   6.649 -0.1679  0.1203 -0.6625
  169SAPE    HX19076   1.343   0.980   6.708 -0.4853 -0.8368  1.0475
  169SAPE    HY19077   1.406   0.821   6.661 -0.8127 -0.7902 -1.0058
  169SAPE   O3119078   1.212   0.829   6.719  0.2457 -0.2986  0.0795
  169SAPE   C3119079   1.112   0.906   6.740  0.0089  0.3439 -0.4509
  169SAPE   O3219080   1.099   1.018   6.694 -0.0968  0.8646 -0.2720
  169SAPE   C3219081   1.010   0.836   6.835 -0.3399 -0.1881 -0.4111
  169SAPE   H2X19082   1.024   0.726   6.829 -0.1820 -0.3929  2.3291
  169SAPE   H2Y19083   0.906   0.872   6.818 -0.0199  1.1933  0.4151
  169SAPE   C2319084   1.626   1.211   6.516  0.2130  0.6715  0.4086
  169SAPE   H3R19085   1.588   1.313   6.493 -1.7743  0.2597  1.6311
  169SAPE   H3S19086   1.737   1.209   6.509  0.1607 -0.4820 -0.4029
  169SAPE   C2419087   1.589   1.180   6.654 -0.2395 -0.6340 -0.7398
  169SAPE   H4R19088   1.591   1.071   6.676  0.5286 -0.5203 -0.2064
  169SAPE   H4S19089   1.482   1.196   6.676  0.3639  1.2870  1.1708
  169SAPE   C2519090   1.672   1.247   6.754  0.1865 -0.4677  0.0662
  169SAPE   H5R19091   1.770   1.282   6.721  0.6041 -0.1182  1.5903
  169SAPE   C2619092   1.649   1.238   6.885  0.7082  0.0648 -0.5131
  169SAPE   H6R19093   1.719   1.290   6.952 -0.5826  1.6206 -0.3075
  169SAPE   C2719094   1.539   1.163   6.954 -0.0593 -0.2433 -0.5234
  169SAPE   H7R19095   1.590   1.130   7.048 -0.5766  3.0023  1.0253
  169SAPE   H7S19096   1.496   1.075   6.901 -2.0935 -1.1110  2.3168
  169SAPE   C2819097   1.414   1.244   6.991 -0.2939 -0.3008 -0.2180
  169SAPE   H8R19098   1.343   1.257   6.909 -0.5396  0.9041  0.1641
  169SAPE   C2919099   1.386   1.293   7.115  0.9131 -0.0068  0.1305
  169SAPE   H9R19100   1.291   1.348   7.124  0.4992 -0.7828  0.6580
  169SAPE  C21019101   1.457   1.272   7.248 -0.1190  0.5936  0.1618
  169SAPE  H10R19102   1.488   1.166   7.248 -0.5772  0.3992  2.4635
  169SAPE  H10S19103   1.379   1.274   7.327  0.4129  0.7393  0.6863
  169SAPE  C21119104   1.571   1.357   7.291 -0.2003  0.0358 -0.3100
  169SAPE  H11R19105   1.640   1.382   7.209  0.2190  1.5025  0.4590
  169SAPE  C21219106   1.593   1.404   7.415 -0.2655  0.0692 -0.0034
  169SAPE  H12R19107   1.678   1.470   7.437  2.6990 -2.7607 -1.9613
  169SAPE  C21319108   1.501   1.381   7.532 -0.0763  0.2332  0.5296
  169SAPE  H13R19109   1.399   1.403   7.494  0.1398 -1.3548 -1.1381
  169SAPE  H13S19110   1.523   1.459   7.607  1.0823 -0.1238  0.5895
  169SAPE  C21419111   1.500   1.241   7.595 -0.5969  0.4419 -0.2682
  169SAPE  H14R19112   1.510   1.154   7.528 -1.2076 -1.2830  1.7999
  169SAPE  C21519113   1.468   1.207   7.717 -0.0796 -0.5477 -0.1744
  169SAPE  H15R19114   1.467   1.102   7.752 -1.3919 -0.1808  0.9595
  169SAPE  C21619115   1.427   1.299   7.830  0.1115 -0.0192  0.5027
  169SAPE  H16R19116   1.336   1.357   7.802 -0.3873 -1.0650 -0.0858
  169SAPE  H16S19117   1.506   1.373   7.853 -1.0916  1.2010  0.8847
  169SAPE  C21719118   1.386   1.231   7.954 -0.1473  1.1556 -0.4549
  169SAPE  H17R19119   1.304   1.160   7.935 -0.0703  1.1680 -0.8291
  169SAPE  H17S19120   1.337   1.294   8.031 -0.1146  0.2578  0.3141
  169SAPE  C21819121   1.505   1.168   8.025  0.9224 -0.1994 -0.9032
  169SAPE  H18R19122   1.589   1.241   8.024  0.0564  0.9499  1.7593
  169SAPE  H18S19123   1.541   1.081   7.966  2.8112  0.0866 -0.2276
  169SAPE  C21919124   1.473   1.107   8.161 -0.4256  0.2170 -0.0751
  169SAPE  H19R19125   1.443   1.186   8.233  0.5782  0.5460 -0.0064
  169SAPE  H19S19126   1.567   1.062   8.199 -1.0333  1.3210  3.0022
  169SAPE  C22019127   1.358   1.008   8.161  0.6425  0.1043 -0.2160
  169SAPE  H20R19128   1.266   1.071   8.153  2.3218  2.5353 -1.6599
  169SAPE  H20S19129   1.350   0.943   8.251 -1.1845 -1.8642 -1.6873
  169SAPE  H20T19130   1.366   0.939   8.074  2.1231  0.4348 -0.3710
  169SAPE   C3319131   1.052   0.884   6.979  0.0710  0.5112 -0.1607
  169SAPE   H3X19132   1.058   0.995   6.969  2.5538  0.5305  0.7891
  169SAPE   H3Y19133   1.156   0.847   6.990  0.1599  0.7503 -0.1868
  169SAPE   C3419134   0.952   0.832   7.085 -0.7047  0.2443  0.6598
  169SAPE   H4X19135   0.906   0.746   7.031  0.6573 -1.4166  2.0338
  169SAPE   H4Y19136   0.885   0.920   7.096 -0.3093  0.4654  1.3066
  169SAPE   C3519137   1.003   0.791   7.218 -0.7255  0.3581  0.7756
  169SAPE   H5X19138   0.918   0.785   7.289 -0.9674 -1.2890  0.3950
  169SAPE   H5Y19139   1.081   0.853   7.267  1.3476 -1.8409  0.4926
  169SAPE   C3619140   1.069   0.649   7.203  0.6461 -1.2327  0.1559
  169SAPE   H6X19141   1.170   0.675   7.164  0.7480  0.3543  1.3702
  169SAPE   H6Y19142   1.022   0.574   7.136  3.1205 -1.5848 -1.2991
  169SAPE   C3719143   1.091   0.586   7.343  0.4748 -1.0272  0.2023
  169SAPE   H7X19144   1.001   0.600   7.406  2.3995  0.6726  2.8121
  169SAPE   H7Y19145   1.166   0.652   7.392  1.9452 -1.9564 -0.7017
  169SAPE   C3819146   1.137   0.446   7.343 -0.5252 -0.7018 -0.2206
  169SAPE   H8X19147   1.229   0.435   7.283 -0.6128 -1.2936 -0.2476
  169SAPE   H8Y19148   1.056   0.384   7.297 -0.5186 -1.0681  0.2570
  169SAPE   C3919149   1.159   0.399   7.489 -1.1009  0.4336  0.0089
  169SAPE   H9X19150   1.067   0.427   7.545 -2.1068 -2.6914  0.1115
  169SAPE   H9Y19151   1.236   0.464   7.535  0.2536  0.0409 -1.5879
  169SAPE  C31019152   1.187   0.249   7.497  0.3984 -0.2222 -0.3911
  169SAPE  H10X19153   1.294   0.242   7.466  0.1153  1.0528 -1.7677
  169SAPE  H10Y19154   1.115   0.205   7.425  0.7582 -1.9632  0.2558
  169SAPE  C31119155   1.159   0.193   7.634 -0.2444  0.4212 -0.0686
  169SAPE  H11X19156   1.181   0.084   7.643  0.8076  0.6497  0.2773
  169SAPE  H11Y19157   1.050   0.208   7.650 -0.8329 -1.1157 -2.1265
  169SAPE  C31219158   1.245   0.256   7.743 -0.0430 -0.1693 -0.3814
  169SAPE  H12X19159   1.216   0.363   7.743  0.4591 -0.0245 -1.4245
  169SAPE  H12Y19160   1.354   0.254   7.720 -0.1700 -2.9933 -1.1196
  169SAPE  C31319161   1.223   0.192   7.883 -0.2383 -0.3443  0.8314
  169SAPE  H13X19162   1.254   0.085   7.883  0.8887 -0.0534 -0.6669
  169SAPE  H13Y19163   1.113   0.179   7.890 -0.3513 -1.6160 -2.1816
  169SAPE  C31419164   1.298   0.263   7.997  0.6996 -0.4841  0.1920
  169SAPE  H14X19165   1.247   0.361   8.013  2.3758  0.3345  0.8435
  169SAPE  H14Y19166   1.397   0.301   7.961 -0.5865  1.9018 -1.0913
  169SAPE  C31519167   1.302   0.171   8.121 -0.6047 -0.1434  0.2855
  169SAPE  H15X19168   1.355   0.076   8.100  3.2397  2.0976 -1.0700
  169SAPE  H15Y19169   1.197   0.145   8.148  0.1322 -3.8239  0.2302
  169SAPE  C31619170   1.377   0.238   8.233  1.1930 -0.1506 -0.6614
  169SAPE  H16X19171   1.477   0.279   8.207  0.7879  2.6719  1.7371
  169SAPE  H16Y19172   1.386   0.165   8.316 -0.0136  0.9022  0.4305
  169SAPE  C31719173   1.291   0.359   8.291  0.8841  0.0552 -0.1894
  169SAPE  H17X19174   1.189   0.318   8.303  0.6361 -0.3634 -3.1841
  169SAPE  H17Y19175   1.288   0.438   8.213 -1.8124 -0.1629 -0.3762
  169SAPE  C31819176   1.342   0.418   8.416 -0.3837 -0.2377  0.0296
  169SAPE  H18X19177   1.429   0.483   8.392  1.2783 -2.3503  0.0724
  169SAPE  H18Y19178   1.384   0.337   8.479 -0.7293  0.2377  0.8918
  169SAPE  H18Z19179   1.262   0.473   8.470 -0.7102 -0.3362 -0.3509
  170SAPE     N19180   3.858   0.250   6.249  0.0657 -0.1840 -0.6045
  170SAPE   HN119181   3.754   0.254   6.239 -0.0079 -1.5761 -0.6299
  170SAPE   HN219182   3.874   0.165   6.306 -0.0629  1.7762  2.6156
  170SAPE   HN319183   3.895   0.333   6.299  2.1482 -2.7058  2.3475
  170SAPE   C1219184   3.935   0.230   6.126  0.3541 -0.0071  1.0490
  170SAPE  H12A19185   3.882   0.146   6.076 -1.1476  1.4881  0.0204
  170SAPE  H12B19186   4.039   0.199   6.150  1.4041  2.6340  0.2862
  170SAPE   C1119187   3.941   0.355   6.037  0.3590 -0.3238 -0.1263
  170SAPE  H11A19188   3.836   0.371   6.005 -0.0051 -1.3058  0.5357
  170SAPE  H11B19189   4.007   0.345   5.948  1.3710  0.1544  0.5486
  170SAPE     P19190   4.123   0.497   6.147 -0.2437 -0.0829 -0.0540
  170SAPE   O1319191   4.212   0.435   6.050 -0.4218  0.0369  0.4567
  170SAPE   O1419192   4.145   0.644   6.157 -0.8090  0.1088  0.0437
  170SAPE   O1219193   3.974   0.473   6.107 -0.3901  0.2942 -0.5141
  170SAPE   O1119194   4.144   0.427   6.293  0.1504 -0.4255  0.1392
  170SAPE    C119195   4.084   0.504   6.401  0.3664 -0.1980  0.2483
  170SAPE    HA19196   4.000   0.567   6.363  0.3697 -0.8978 -0.9339
  170SAPE    HB19197   4.041   0.439   6.481 -3.6337  1.0900 -0.5953
  170SAPE    C219198   4.181   0.613   6.454  0.0069 -0.2259  0.4614
  170SAPE    HS19199   4.218   0.667   6.364 -0.7337  0.6792  0.6890
  170SAPE   O2119200   4.289   0.549   6.532 -0.6982  0.3770 -0.0073
  170SAPE   C2119201   4.402   0.523   6.468  0.1896 -0.3112 -0.3596
  170SAPE   O2219202   4.423   0.542   6.348  0.3310 -0.3229 -0.7167
  170SAPE   C2219203   4.506   0.470   6.565  0.0923 -0.7478  0.0253
  170SAPE   H2R19204   4.459   0.386   6.620  1.4337 -1.6381 -0.1346
  170SAPE   H2S19205   4.591   0.434   6.503  0.8442  1.1715 -0.1512
  170SAPE    C319206   4.111   0.714   6.551  0.7312 -0.3441  0.7397
  170SAPE    HX19207   4.056   0.792   6.495  2.2433  0.8470  0.8502
  170SAPE    HY19208   4.191   0.769   6.606 -0.0578 -1.7236  3.4964
  170SAPE   O3119209   4.030   0.643   6.652 -0.0003 -0.2930 -0.2421
  170SAPE   C3119210   3.901   0.659   6.646  0.0293  0.9522  0.1482
  170SAPE   O3219211   3.829   0.703   6.562  0.4493 -0.3716 -0.4452
  170SAPE   C3219212   3.852   0.615   6.787 -0.0072  0.1088 -0.1602
  170SAPE   H2X19213   3.928   0.648   6.862  2.0987  2.2086 -3.0005
  170SAPE   H2Y19214   3.838   0.505   6.781  0.2967  0.1504 -2.7837
  170SAPE   C2319215   4.557   0.597   6.649  0.0987  0.3872 -0.1062
  170SAPE   H3R19216   4.620   0.644   6.570 -1.0861 -1.5501 -2.3443
  170SAPE   H3S19217   4.641   0.568   6.716  2.5780  1.2688 -2.6518
  170SAPE   C2419218   4.463   0.686   6.724  0.3952 -0.1105  0.2746
  170SAPE   H4R19219   4.396   0.748   6.660 -0.0550 -1.6286 -0.7691
  170SAPE   H4S19220   4.535   0.761   6.763 -1.2467  1.3121  0.6916
  170SAPE   C2519221   4.394   0.614   6.835 -0.3337  0.2575 -0.8735
  170SAPE   H5R19222   4.307   0.556   6.803 -2.4774  1.3287  2.5126
  170SAPE   C2619223   4.414   0.620   6.968  0.5224  0.2421 -0.6541
  170SAPE   H6R19224   4.357   0.560   7.041  1.2966  1.6512  1.2037
  170SAPE   C2719225   4.521   0.703   7.034  0.0602  0.0768 -0.5674
  170SAPE   H7R19226   4.494   0.810   7.049 -1.0312 -0.2122 -0.4055
  170SAPE   H7S19227   4.615   0.700   6.975 -0.1744 -0.5613 -0.9056
  170SAPE   C2819228   4.555   0.647   7.172 -0.4248 -0.1528  0.1050
  170SAPE   H8R19229   4.596   0.545   7.169 -1.6502 -0.7506  1.9269
  170SAPE   C2919230   4.535   0.696   7.298 -0.0084 -0.3164  0.1794
  170SAPE   H9R19231   4.577   0.649   7.388  0.6573 -1.4128 -0.6807
  170SAPE  C21019232   4.474   0.833   7.329 -0.0187 -1.2559 -0.6748
  170SAPE  H10R19233   4.431   0.821   7.431  2.4013 -1.1918  0.4418
  170SAPE  H10S19234   4.390   0.852   7.259 -0.3470  0.9553  0.2149
  170SAPE  C21119235   4.559   0.961   7.316  0.2362  0.7172  0.2334
  170SAPE  H11R19236   4.596   0.988   7.217  0.7027 -0.7266 -0.0113
  170SAPE  C21219237   4.599   1.041   7.410 -0.3297  0.6965 -0.5061
  170SAPE  H12R19238   4.669   1.122   7.387 -1.0779  1.9755  1.4444
  170SAPE  C21319239   4.584   1.018   7.557  0.2347 -0.1866 -0.1976
  170SAPE  H13R19240   4.514   0.935   7.579 -1.7372  1.6734  0.9230
  170SAPE  H13S19241   4.510   1.094   7.591 -0.9093 -2.1150  1.9169
  170SAPE  C21419242   4.717   1.015   7.629  0.8030 -0.0952  0.3253
  170SAPE  H14R19243   4.794   1.082   7.589 -0.9757  0.2931 -2.7797
  170SAPE  C21519244   4.748   0.945   7.738 -0.4519 -0.4972  0.4512
  170SAPE  H15R19245   4.845   0.965   7.786 -1.0036  0.1717  1.3191
  170SAPE  C21619246   4.653   0.854   7.817 -0.6628 -0.1347  0.0456
  170SAPE  H16R19247   4.698   0.753   7.807  0.7002  0.5327 -0.9149
  170SAPE  H16S19248   4.557   0.850   7.761  0.1544 -0.8908 -1.3750
  170SAPE  C21719249   4.622   0.907   7.960 -0.4582  0.0674  0.2225
  170SAPE  H17R19250   4.523   0.861   7.981 -0.6732  0.6879  0.5916
  170SAPE  H17S19251   4.605   1.016   7.970 -0.6901 -0.1337  2.8689
  170SAPE  C21819252   4.732   0.876   8.063  0.3283  0.2743  0.1075
  170SAPE  H18R19253   4.827   0.930   8.043 -0.2428  1.2336 -0.1074
  170SAPE  H18S19254   4.758   0.769   8.050  0.0002  0.0883  0.9052
  170SAPE  C21919255   4.706   0.896   8.213 -0.0594  0.4174 -0.1423
  170SAPE  H19R19256   4.654   0.994   8.214 -1.1254 -0.1373  0.2512
  170SAPE  H19S19257   4.803   0.892   8.267 -0.8210 -1.1455  1.2189
  170SAPE  C22019258   4.617   0.801   8.283 -0.0764  0.0011 -0.0936
  170SAPE  H20R19259   4.616   0.832   8.389 -2.1944 -1.9339  0.5103
  170SAPE  H20S19260   4.652   0.696   8.288  1.9530  0.6661  0.8829
  170SAPE  H20T19261   4.512   0.790   8.248 -1.4871 -0.2397  3.7373
  170SAPE   C3319262   3.721   0.683   6.833 -0.8742 -0.4479 -0.4202
  170SAPE   H3X19263   3.643   0.676   6.754 -2.7038 -0.6174  1.3446
  170SAPE   H3Y19264   3.736   0.791   6.854 -1.5539 -0.3803 -0.2742
  170SAPE   C3419265   3.659   0.608   6.953 -0.6801 -0.2803  0.9563
  170SAPE   H4X19266   3.636   0.503   6.926 -0.5058  0.0602 -0.6033
  170SAPE   H4Y19267   3.567   0.664   6.980 -1.0047  0.0740 -0.7518
  170SAPE   C3519268   3.755   0.611   7.073  0.0300  0.4485 -0.0023
  170SAPE   H5X19269   3.778   0.717   7.099  1.5132  0.3260 -0.7389
  170SAPE   H5Y19270   3.859   0.580   7.053 -0.4023 -1.3891  0.4399
  170SAPE   C3619271   3.702   0.549   7.203  0.2190 -0.2722 -0.5013
  170SAPE   H6X19272   3.755   0.603   7.285  2.0100  0.1576 -1.8612
  170SAPE   H6Y19273   3.725   0.441   7.199 -0.2486 -0.4388  0.7880
  170SAPE   C3719274   3.556   0.565   7.245  0.2124  0.1246  0.3294
  170SAPE   H7X19275   3.490   0.559   7.156 -0.1608 -0.8016  0.6571
  170SAPE   H7Y19276   3.549   0.670   7.281 -1.2554 -0.0596  0.6382
  170SAPE   C3819277   3.512   0.468   7.348  0.4341  0.0322 -0.2235
  170SAPE   H8X19278   3.542   0.516   7.444 -1.4659  0.0086  0.4307
  170SAPE   H8Y19279   3.573   0.375   7.352  0.6461  0.2036  1.4403
  170SAPE   C3919280   3.359   0.440   7.358  0.1218 -0.7619  0.1148
  170SAPE   H9X19281   3.334   0.375   7.272 -0.9265 -1.4041  0.8819
  170SAPE   H9Y19282   3.307   0.538   7.359  2.0740  0.3334 -0.2026
  170SAPE  C31019283   3.316   0.364   7.483  0.2518  0.4314 -0.3004
  170SAPE  H10X19284   3.358   0.262   7.478 -0.0352  0.0878  2.3917
  170SAPE  H10Y19285   3.207   0.352   7.496  0.2649  0.9793  0.3779
  170SAPE  C31119286   3.359   0.438   7.606 -0.0020 -0.4688  0.0285
  170SAPE  H11X19287   3.301   0.532   7.616 -0.5140 -0.8554  0.7987
  170SAPE  H11Y19288   3.469   0.456   7.603 -0.1988  0.8542  0.4911
  170SAPE  C31219289   3.316   0.362   7.733 -0.1036 -0.1382  0.4079
  170SAPE  H12X19290   3.355   0.258   7.725  2.6303  0.8405  0.0081
  170SAPE  H12Y19291   3.205   0.369   7.740  0.0170  3.4656  0.6921
  170SAPE  C31319292   3.383   0.411   7.864 -0.1915 -0.1585 -0.3031
  170SAPE  H13X19293   3.352   0.517   7.881  2.0816  1.2686 -3.9160
  170SAPE  H13Y19294   3.490   0.421   7.839 -0.3251 -1.3038 -1.4258
  170SAPE  C31419295   3.355   0.313   7.987  0.4180 -0.0659  0.6275
  170SAPE  H14X19296   3.438   0.305   8.060 -0.5500 -2.1192  1.6094
  170SAPE  H14Y19297   3.350   0.214   7.937 -1.8713  0.2168  0.1805
  170SAPE  C31519298   3.218   0.317   8.061 -0.1715 -1.1306  1.0577
  170SAPE  H15X19299   3.221   0.235   8.136 -1.8646 -1.5767  0.6847
  170SAPE  H15Y19300   3.145   0.285   7.984  1.2633  1.8082 -1.7581
  170SAPE  C31619301   3.177   0.450   8.119  0.0894 -0.2200  0.3956
  170SAPE  H16X19302   3.077   0.425   8.160  0.6321 -3.4185  0.0743
  170SAPE  H16Y19303   3.172   0.525   8.037  0.7328 -0.0847  0.4717
  170SAPE  C31719304   3.269   0.499   8.231 -0.2692  0.2077 -0.0579
  170SAPE  H17X19305   3.367   0.485   8.180  0.1223 -0.8801  0.9546
  170SAPE  H17Y19306   3.281   0.438   8.323 -0.3340  2.4413  1.5094
  170SAPE  C31819307   3.242   0.646   8.265 -0.3681  0.0516  0.4094
  170SAPE  H18X19308   3.240   0.704   8.170 -0.2333  1.1551  1.0598
  170SAPE  H18Y19309   3.310   0.693   8.340 -0.0096 -0.1995  0.2465
  170SAPE  H18Z19310   3.136   0.649   8.297 -0.4740 -0.1979  0.0856
  171SAPE     N19311   5.564   0.161   6.748 -0.3835 -0.1968  0.3345
  171SAPE   HN119312   5.478   0.164   6.690 -0.6824 -0.1017  0.7813
  171SAPE   HN219313   5.589   0.063   6.772  0.3137 -0.4203 -1.1575
  171SAPE   HN319314   5.558   0.216   6.836 -2.1243 -0.4411  0.3964
  171SAPE   C1219315   5.679   0.220   6.677 -1.0979  0.0689 -0.1669
  171SAPE  H12A19316   5.772   0.193   6.733 -0.2537  1.0863 -1.0354
  171SAPE  H12B19317   5.670   0.330   6.670  0.1026  0.1705 -0.3749
  171SAPE   C1119318   5.682   0.173   6.527 -0.6624 -0.9196  0.5425
  171SAPE  H11A19319   5.773   0.208   6.475  0.1243 -1.0900  1.7540
  171SAPE  H11B19320   5.591   0.226   6.492  0.3218 -0.7245 -1.8543
  171SAPE     P19321   5.791  -0.068   6.535 -0.3382 -0.2148  0.3333
  171SAPE   O1319322   5.744  -0.201   6.552  0.1974  0.5397  0.2490
  171SAPE   O1419323   5.885  -0.051   6.421  0.1044  0.3259  0.0381
  171SAPE   O1219324   5.669   0.033   6.513  0.1042  0.8749 -0.7334
  171SAPE   O1119325   5.870  -0.020   6.667 -0.0343  1.0355  0.0083
  171SAPE    C119326   6.010   0.011   6.678 -0.2476 -0.3709  0.0702
  171SAPE    HA19327   6.073  -0.078   6.664  0.7260  0.3307 -0.0810
  171SAPE    HB19328   6.040   0.091   6.607 -0.8842 -0.3932 -0.2313
  171SAPE    C219329   6.043   0.069   6.823  0.8653  0.0637  0.2193
  171SAPE    HS19330   5.992   0.167   6.816  1.2993  0.1915 -1.4044
  171SAPE   O2119331   6.186   0.081   6.828 -0.1116 -0.3582  0.2376
  171SAPE   C2119332   6.235   0.176   6.903 -0.0435 -0.0573  0.0522
  171SAPE   O2219333   6.168   0.265   6.959 -0.2092  0.3766 -0.0408
  171SAPE   C2219334   6.384   0.166   6.919 -0.5350  0.0767  0.0275
  171SAPE   H2R19335   6.439   0.156   6.823 -0.4260  0.3268  0.0641
  171SAPE   H2S19336   6.419   0.267   6.951  1.3283 -0.8271  0.9810
  171SAPE    C319337   5.993  -0.026   6.937 -0.5261  0.3562 -0.2998
  171SAPE    HX19338   6.040  -0.127   6.934 -2.1634 -0.4308 -1.3965
  171SAPE    HY19339   5.886  -0.046   6.914 -0.4124 -0.0265 -0.5079
  171SAPE   O3119340   6.000   0.030   7.072  0.3982  0.2898 -0.2046
  171SAPE   C3119341   5.919   0.134   7.095 -0.3544  0.3505  0.3409
  171SAPE   O3219342   5.823   0.156   7.023 -0.1577 -0.3999 -0.0335
  171SAPE   C3219343   5.962   0.209   7.219 -0.1175 -0.7663  0.6362
  171SAPE   H2X19344   6.060   0.258   7.203  0.9136 -1.9393  2.8673
  171SAPE   H2Y19345   5.994   0.131   7.291  3.3755 -0.7386 -0.6837
  171SAPE   C2319346   6.416   0.064   7.035 -0.3444  0.3436  0.3068
  171SAPE   H3R19347   6.526   0.061   7.024 -0.4795  2.2855 -3.3096
  171SAPE   H3S19348   6.377  -0.036   7.007 -0.3721 -0.3699  2.7196
  171SAPE   C2419349   6.378   0.111   7.175  0.1520 -0.1697  0.6840
  171SAPE   H4R19350   6.267   0.114   7.179 -0.1001  1.3571 -3.0291
  171SAPE   H4S19351   6.415   0.215   7.176  1.1284 -0.3962 -2.3191
  171SAPE   C2519352   6.452   0.039   7.280 -0.2991 -0.1934 -0.6938
  171SAPE   H5R19353   6.562   0.052   7.279 -0.4360  1.0648 -1.1980
  171SAPE   C2619354   6.400  -0.038   7.378  0.3152 -0.0325 -0.0828
  171SAPE   H6R19355   6.468  -0.083   7.453  0.6606  0.7307  0.0700
  171SAPE   C2719356   6.257  -0.070   7.404  0.7175  0.3953 -0.3348
  171SAPE   H7R19357   6.194   0.020   7.384  1.2954  0.4925 -1.7843
  171SAPE   H7S19358   6.242  -0.102   7.510  0.8744 -2.1370 -1.0212
  171SAPE   C2819359   6.228  -0.188   7.311  0.0792 -0.1066  0.1691
  171SAPE   H8R19360   6.236  -0.160   7.205  1.8176  2.4730  0.8879
  171SAPE   C2919361   6.204  -0.317   7.342 -0.1354 -0.5566  0.2359
  171SAPE   H9R19362   6.186  -0.388   7.259 -0.5550 -0.1207 -0.0504
  171SAPE  C21019363   6.196  -0.374   7.487  0.5327  0.6718 -0.0676
  171SAPE  H10R19364   6.091  -0.371   7.524  0.0017  0.0871 -1.4522
  171SAPE  H10S19365   6.264  -0.321   7.557  1.6998 -0.6962 -0.1175
  171SAPE  C21119366   6.249  -0.513   7.496  0.3171  0.9788 -0.4238
  171SAPE  H11R19367   6.325  -0.542   7.422  1.6509  0.4785  1.0753
  171SAPE  C21219368   6.238  -0.601   7.605  0.0534 -0.0182  1.1776
  171SAPE  H12R19369   6.273  -0.703   7.582 -1.6759 -0.3655 -0.0870
  171SAPE  C21319370   6.157  -0.587   7.731 -0.5216  0.3750  0.5413
  171SAPE  H13R19371   6.080  -0.666   7.743 -0.4288  0.6512  4.0077
  171SAPE  H13S19372   6.094  -0.496   7.739 -0.0616  0.8954 -1.3276
  171SAPE  C21419373   6.252  -0.601   7.845 -0.5531  1.0437  0.3051
  171SAPE  H14R19374   6.302  -0.699   7.848  0.0146  1.3557  1.1825
  171SAPE  C21519375   6.280  -0.506   7.936  0.3754  0.0251 -0.5016
  171SAPE  H15R19376   6.350  -0.531   8.017  0.2706  2.4919  0.4309
  171SAPE  C21619377   6.199  -0.383   7.959  0.1397  0.8989 -0.8197
  171SAPE  H16R19378   6.092  -0.395   7.932  0.2630  0.2449 -1.0274
  171SAPE  H16S19379   6.234  -0.298   7.898  3.3772  1.9524  2.1592
  171SAPE  C21719380   6.199  -0.338   8.107  0.1929  0.1182 -0.5747
  171SAPE  H17R19381   6.302  -0.330   8.148 -0.5975  0.5498  1.4792
  171SAPE  H17S19382   6.152  -0.415   8.172 -0.5681 -1.6531 -3.0748
  171SAPE  C21819383   6.126  -0.199   8.136  0.0317 -0.1332  0.7054
  171SAPE  H18R19384   6.023  -0.205   8.094 -0.3032  0.3518  1.4297
  171SAPE  H18S19385   6.178  -0.115   8.084 -0.0926  2.0713  3.8836
  171SAPE  C21919386   6.125  -0.151   8.278  0.0612  0.2107  0.7146
  171SAPE  H19R19387   6.053  -0.069   8.296 -0.6670 -0.3185  0.2477
  171SAPE  H19S19388   6.230  -0.126   8.304 -0.2340 -0.5134  2.7395
  171SAPE  C22019389   6.097  -0.260   8.380 -0.0259  0.3606 -0.8121
  171SAPE  H20R19390   6.108  -0.215   8.481  0.3166  0.3725 -0.8531
  171SAPE  H20S19391   6.145  -0.359   8.370  1.9940  1.1580  0.4358
  171SAPE  H20T19392   5.986  -0.257   8.376 -0.0753  2.6550  0.4730
  171SAPE   C3319393   5.855   0.304   7.271  0.4894 -0.3476 -0.5005
  171SAPE   H3X19394   5.755   0.257   7.268 -0.1227  0.9541 -1.3141
  171SAPE   H3Y19395   5.836   0.380   7.193 -0.7761  0.3489  0.4543
  171SAPE   C3419396   5.876   0.364   7.406 -0.1579  0.2835 -0.6263
  171SAPE   H4X19397   5.816   0.456   7.421  0.6313  0.5788  0.8970
  171SAPE   H4Y19398   5.981   0.400   7.409  0.3374 -1.1299 -0.3106
  171SAPE   C3519399   5.843   0.266   7.509 -0.3497  0.2866 -0.0451
  171SAPE   H5X19400   5.909   0.177   7.503 -0.8469  0.0022 -1.7039
  171SAPE   H5Y19401   5.745   0.216   7.495 -0.2199 -0.2512  0.8229
  171SAPE   C3619402   5.846   0.311   7.651 -0.3907  0.2307 -0.7437
  171SAPE   H6X19403   5.796   0.233   7.712 -0.3668  1.7775  1.3725
  171SAPE   H6Y19404   5.773   0.394   7.660 -1.6433 -0.7520 -1.6979
  171SAPE   C3719405   5.992   0.350   7.695  0.2600  0.0460 -0.2185
  171SAPE   H7X19406   6.033   0.436   7.638 -1.8680  0.1969 -1.6098
  171SAPE   H7Y19407   6.053   0.259   7.677  0.0015 -0.0701 -0.4934
  171SAPE   C3819408   5.996   0.376   7.846 -0.2905  0.3260 -0.4704
  171SAPE   H8X19409   6.094   0.415   7.879 -0.6108 -0.6254  1.8326
  171SAPE   H8Y19410   5.961   0.277   7.882 -0.1506 -0.7388 -3.1050
  171SAPE   C3919411   5.917   0.499   7.892 -0.1069  0.3713  0.0618
  171SAPE   H9X19412   5.811   0.479   7.864  0.5917  0.0688 -2.6178
  171SAPE   H9Y19413   5.940   0.597   7.845  1.0621 -0.0452 -0.2770
  171SAPE  C31019414   5.937   0.518   8.051 -0.1407 -0.2217 -0.2259
  171SAPE  H10X19415   5.927   0.422   8.105  0.4718 -0.8071 -1.1192
  171SAPE  H10Y19416   5.848   0.570   8.091  0.0953 -1.1525  1.5732
  171SAPE  C31119417   6.055   0.603   8.096 -0.4162  0.2518  0.4455
  171SAPE  H11X19418   6.065   0.695   8.036 -3.2641  1.4179  1.5749
  171SAPE  H11Y19419   6.151   0.549   8.080 -0.1048  1.2130 -1.1716
  171SAPE  C31219420   6.049   0.646   8.247 -0.1085 -0.0662  0.3911
  171SAPE  H12X19421   6.008   0.565   8.310 -2.1060  1.3714  1.0184
  171SAPE  H12Y19422   5.979   0.728   8.271  1.0665  1.4306 -1.0163
  171SAPE  C31319423   6.191   0.696   8.290 -0.1114 -0.4230  0.8182
  171SAPE  H13X19424   6.218   0.781   8.223 -1.1810 -1.0612 -0.4822
  171SAPE  H13Y19425   6.263   0.612   8.282 -1.5720 -1.5476 -2.3375
  171SAPE  C31419426   6.188   0.762   8.430 -0.0526  0.0747 -0.1811
  171SAPE  H14X19427   6.128   0.700   8.500 -0.5848  0.9072  0.1138
  171SAPE  H14Y19428   6.132   0.857   8.421  0.8357  0.4674 -2.0659
  171SAPE  C31519429   6.326   0.776   8.500  0.5203  0.4428  0.2255
  171SAPE  H15X19430   6.399   0.824   8.431 -0.3374  2.3926  0.6101
  171SAPE  H15Y19431   6.363   0.682   8.548  1.5704 -1.0178 -3.1243
  171SAPE  C31619432   6.324   0.877   8.610  0.0747  0.7686  0.0077
  171SAPE  H16X19433   6.288   0.975   8.572  1.7734  1.7477  0.8161
  171SAPE  H16Y19434   6.429   0.886   8.647  0.9393 -1.3645 -1.6668
  171SAPE  C31719435   6.235   0.855   8.737 -0.3401 -0.4230  0.0292
  171SAPE  H17X19436   6.281   0.761   8.775 -1.3154 -0.6586  0.6664
  171SAPE  H17Y19437   6.125   0.844   8.720 -0.4402  0.1508  0.2665
  171SAPE  C31819438   6.236   0.951   8.858 -0.1362 -0.4060 -0.0320
  171SAPE  H18X19439   6.207   1.051   8.821 -0.2074 -1.0209 -1.7155
  171SAPE  H18Y19440   6.333   0.944   8.912  1.2960  1.2373 -2.2412
  171SAPE  H18Z19441   6.162   0.917   8.935 -0.1007  2.8513  1.6021
  172SAPE     N19442   5.042   3.784   6.312 -0.0956  0.0913 -0.0244
  172SAPE   HN119443   5.088   3.798   6.220  0.7559  0.2144  0.4130
  172SAPE   HN219444   5.075   3.704   6.369 -2.1676 -2.0590 -1.6512
  172SAPE   HN319445   4.943   3.760   6.291 -0.2934  1.5362 -0.9351
  172SAPE   C1219446   5.052   3.905   6.404  0.3490  0.3009  0.4494
  172SAPE  H12A19447   5.158   3.938   6.394  0.3942 -0.2189 -1.0187
  172SAPE  H12B19448   5.036   3.873   6.509 -0.4654  0.1632  0.2870
  172SAPE   C1119449   4.954   4.008   6.363 -0.2069 -0.1606  0.1601
  172SAPE  H11A19450   4.932   4.076   6.449  1.4582  1.3371 -0.5168
  172SAPE  H11B19451   4.858   3.955   6.347  0.3509 -0.4778 -2.6304
  172SAPE     P19452   5.088   4.201   6.244  0.2819  0.4546 -0.2048
  172SAPE   O1319453   5.226   4.157   6.263 -0.4509  0.5860  1.1481
  172SAPE   O1419454   5.058   4.283   6.125 -0.0050 -0.1322  0.1936
  172SAPE   O1219455   4.996   4.079   6.248 -0.0375  0.9673  0.0172
  172SAPE   O1119456   5.035   4.288   6.371 -0.3950 -0.3013 -0.0586
  172SAPE    C119457   5.116   4.390   6.424 -0.4993  0.0037 -0.3245
  172SAPE    HA19458   5.154   4.454   6.341 -0.6825  1.1665  0.4607
  172SAPE    HB19459   5.049   4.453   6.486 -0.1734  0.6444 -0.6161
  172SAPE    C219460   5.215   4.343   6.536  0.4568  0.1029 -0.3531
  172SAPE    HS19461   5.295   4.286   6.484 -0.2036 -1.1281 -0.0609
  172SAPE   O2119462   5.144   4.268   6.639 -0.2166 -0.2628  0.1072
  172SAPE   C2119463   5.178   4.141   6.654 -0.5331  0.1648 -1.0244
  172SAPE   O2219464   5.260   4.082   6.594 -0.1082  0.2940 -0.5293
  172SAPE   C2219465   5.118   4.092   6.780 -0.1366  0.1349  0.0011
  172SAPE   H2R19466   5.010   4.121   6.777 -0.7127 -1.8417  0.3049
  172SAPE   H2S19467   5.113   3.982   6.794  0.7991  0.1641  0.5992
  172SAPE    C319468   5.270   4.469   6.603 -0.8477 -0.2930  0.1928
  172SAPE    HX19469   5.186   4.504   6.666 -1.2835  1.9122 -1.5287
  172SAPE    HY19470   5.302   4.546   6.530  3.0342 -1.7387  0.1125
  172SAPE   O3119471   5.380   4.438   6.686 -0.3893  0.5485 -0.7663
  172SAPE   C3119472   5.391   4.506   6.805  0.4023 -0.2273  0.2912
  172SAPE   O3219473   5.307   4.591   6.842 -0.4128 -0.6270 -0.3081
  172SAPE   C3219474   5.505   4.457   6.893 -0.2407  0.1230 -1.0125
  172SAPE   H2X19475   5.586   4.456   6.816  1.6355  1.3531  0.8393
  172SAPE   H2Y19476   5.496   4.350   6.922 -0.7483  0.2808 -0.5751
  172SAPE   C2319477   5.197   4.150   6.896 -0.3920 -0.2327  0.3220
  172SAPE   H3R19478   5.208   4.261   6.894 -0.6628 -0.1415  2.0723
  172SAPE   H3S19479   5.303   4.118   6.885  0.4966  1.0222  3.7783
  172SAPE   C2419480   5.156   4.109   7.035  0.0628  0.0038  1.3754
  172SAPE   H4R19481   5.238   4.150   7.098 -0.0851  3.1585 -0.2637
  172SAPE   H4S19482   5.143   4.000   7.052  1.1602 -0.1413  1.3370
  172SAPE   C2519483   5.030   4.187   7.074  0.3100 -0.5401 -0.7016
  172SAPE   H5R19484   4.958   4.206   6.993 -0.5359  0.8885  0.3422
  172SAPE   C2619485   4.996   4.242   7.197  1.1032  0.3375  0.2943
  172SAPE   H6R19486   4.910   4.310   7.197 -0.4360 -1.5218 -0.5104
  172SAPE   C2719487   5.073   4.259   7.332  0.0719 -0.3415  0.0705
  172SAPE   H7R19488   5.010   4.332   7.388 -2.4874 -2.3234 -0.0316
  172SAPE   H7S19489   5.172   4.307   7.316  0.9680 -2.7766 -2.6760
  172SAPE   C2819490   5.081   4.122   7.406 -0.4976 -0.3542 -0.4474
  172SAPE   H8R19491   5.119   4.040   7.343 -0.1872 -0.4502 -0.1396
  172SAPE   C2919492   5.080   4.102   7.541  0.2743  0.6344  0.0286
  172SAPE   H9R19493   5.075   3.997   7.576 -0.0145  0.2287 -1.1761
  172SAPE  C21019494   5.056   4.203   7.648 -0.1236 -1.0566  0.4210
  172SAPE  H10R19495   4.972   4.174   7.715 -0.8324  0.1519  0.0918
  172SAPE  H10S19496   5.011   4.291   7.597 -0.7352 -0.9076  1.1972
  172SAPE  C21119497   5.178   4.248   7.726 -0.4106 -0.3130  0.1926
  172SAPE  H11R19498   5.273   4.247   7.669 -0.5130  1.0765 -0.0281
  172SAPE  C21219499   5.170   4.290   7.854  0.1079 -0.3834 -0.7302
  172SAPE  H12R19500   5.261   4.311   7.913 -1.2517  0.2132  1.2274
  172SAPE  C21319501   5.050   4.304   7.944 -0.1241  0.4883 -0.6617
  172SAPE  H13R19502   4.970   4.360   7.891  0.6314  2.0283 -0.2576
  172SAPE  H13S19503   5.083   4.367   8.030  1.3485 -2.5381  1.1466
  172SAPE  C21419504   4.983   4.172   7.989  0.1222  0.5861 -0.3143
  172SAPE  H14R19505   5.011   4.079   7.939 -0.6583 -0.1104  0.5140
  172SAPE  C21519506   4.894   4.147   8.089 -0.4770 -1.1350  0.7694
  172SAPE  H15R19507   4.867   4.042   8.110  1.2608 -2.9201 -4.3615
  172SAPE  C21619508   4.859   4.254   8.193 -0.1985  0.5008  0.6190
  172SAPE  H16R19509   4.872   4.357   8.153 -0.5170  1.4756  2.8619
  172SAPE  H16S19510   4.924   4.243   8.282  0.1690  1.8450  0.5449
  172SAPE  C21719511   4.714   4.250   8.249  0.0008 -0.1907 -0.4942
  172SAPE  H17R19512   4.646   4.253   8.161  0.0994 -1.8226 -0.6651
  172SAPE  H17S19513   4.705   4.342   8.310 -0.2673  1.0027 -2.2565
  172SAPE  C21819514   4.674   4.129   8.335  0.3678 -0.4339  0.3266
  172SAPE  H18R19515   4.680   4.044   8.264 -1.0665  1.0443 -1.7279
  172SAPE  H18S19516   4.564   4.120   8.347 -0.2779 -0.5221 -3.9202
  172SAPE  C21919517   4.744   4.119   8.469  0.2683  0.4229 -0.1288
  172SAPE  H19R19518   4.721   4.200   8.542  0.7896 -0.9078  1.5631
  172SAPE  H19S19519   4.854   4.111   8.460  0.0759 -3.2842 -0.8919
  172SAPE  C22019520   4.699   3.988   8.542  0.2327  0.6752  0.3995
  172SAPE  H20R19521   4.750   3.977   8.640 -2.5673 -1.5925  1.7334
  172SAPE  H20S19522   4.716   3.898   8.480 -4.3947 -0.1815  0.0468
  172SAPE  H20T19523   4.590   3.999   8.557  0.1941  2.1688 -0.7125
  172SAPE   C3319524   5.534   4.545   7.018 -0.1188  0.1565 -0.5102
  172SAPE   H3X19525   5.516   4.654   7.011  1.8312  0.7444  2.0028
  172SAPE   H3Y19526   5.641   4.530   7.046 -0.0727 -0.0218 -0.7715
  172SAPE   C3419527   5.444   4.506   7.140 -0.6344  0.4447 -0.2052
  172SAPE   H4X19528   5.449   4.396   7.158  0.8447  0.8957  2.7756
  172SAPE   H4Y19529   5.338   4.522   7.111 -1.7399 -1.1020  2.5951
  172SAPE   C3519530   5.481   4.578   7.269  0.4029 -0.3754  0.3872
  172SAPE   H5X19531   5.495   4.686   7.252  1.0958 -0.3874  0.8791
  172SAPE   H5Y19532   5.581   4.546   7.303 -0.7482 -0.5629  4.0149
  172SAPE   C3619533   5.385   4.567   7.382 -0.3728 -0.2005 -0.4062
  172SAPE   H6X19534   5.368   4.460   7.406 -0.4407 -0.6967 -2.5292
  172SAPE   H6Y19535   5.282   4.603   7.361 -1.4038 -2.3933  0.5177
  172SAPE   C3719536   5.437   4.623   7.515 -0.4475 -0.4440 -0.2571
  172SAPE   H7X19537   5.427   4.733   7.509 -0.2813 -0.4663 -1.0525
  172SAPE   H7Y19538   5.546   4.604   7.528 -0.5076 -0.1572  0.7441
  172SAPE   C3819539   5.356   4.570   7.634 -0.3662 -0.0773 -0.0738
  172SAPE   H8X19540   5.389   4.465   7.647  1.1151  0.4262  0.3641
  172SAPE   H8Y19541   5.247   4.574   7.613 -0.5909 -2.4215  0.3284
  172SAPE   C3919542   5.372   4.637   7.773  0.2528  0.0163  0.1097
  172SAPE   H9X19543   5.291   4.598   7.838 -1.1312  0.5095 -1.2762
  172SAPE   H9Y19544   5.367   4.748   7.771 -0.6393 -0.0365 -0.5509
  172SAPE  C31019545   5.504   4.595   7.840  0.1581  0.1496 -0.6469
  172SAPE  H10X19546   5.589   4.636   7.781  0.8999  0.7059  0.7502
  172SAPE  H10Y19547   5.514   4.485   7.845  0.2760  0.1709 -0.4290
  172SAPE  C31119548   5.515   4.654   7.973  0.2273  0.8009 -0.3292
  172SAPE  H11X19549   5.425   4.621   8.029  0.9386  0.9033  0.9278
  172SAPE  H11Y19550   5.497   4.764   7.966 -1.1566  0.5804 -0.5390
  172SAPE  C31219551   5.658   4.620   8.044  0.9804  0.0150 -0.4859
  172SAPE  H12X19552   5.674   4.510   8.052  3.5114  0.4649  3.2039
  172SAPE  H12Y19553   5.663   4.660   8.148  1.2556  0.0728 -0.5211
  172SAPE  C31319554   5.774   4.683   7.969 -0.3482 -0.3257  0.1421
  172SAPE  H13X19555   5.748   4.788   7.945 -0.5691  0.4999  3.4453
  172SAPE  H13Y19556   5.782   4.625   7.874  0.0490  3.0827 -2.0550
  172SAPE  C31419557   5.910   4.689   8.042 -0.2991  0.8954 -0.2644
  172SAPE  H14X19558   5.916   4.741   8.140  1.9089  1.7223 -0.7728
  172SAPE  H14Y19559   5.989   4.740   7.982  1.5757 -0.6012  0.8176
  172SAPE  C31519560   5.972   4.547   8.067  0.4813 -0.3166 -0.1450
  172SAPE  H15X19561   5.935   4.490   7.980 -1.8390  0.1666  0.4632
  172SAPE  H15Y19562   5.918   4.506   8.155 -0.8712  2.3936  0.3927
  172SAPE  C31619563   6.124   4.564   8.077  0.2077 -0.0608  0.3525
  172SAPE  H16X19564   6.145   4.622   8.170  0.1013  1.3319 -0.4595
  172SAPE  H16Y19565   6.167   4.632   8.000 -0.8559 -0.0225 -0.2180
  172SAPE  C31719566   6.194   4.424   8.087  0.1986 -1.0128 -0.2309
  172SAPE  H17X19567   6.300   4.452   8.100 -0.4839  1.6106  0.3381
  172SAPE  H17Y19568   6.176   4.370   7.992 -1.4199  1.3713 -1.3964
  172SAPE  C31819569   6.147   4.332   8.206  0.1552 -0.9755  0.4022
  172SAPE  H18X19570   6.225   4.257   8.232  3.4353  1.2971 -2.1461
  172SAPE  H18Y19571   6.055   4.273   8.185 -1.9380  1.8819  1.0200
  172SAPE  H18Z19572   6.118   4.395   8.293 -0.1679 -0.6476  0.0583
  173SOPE     N19573   0.854   3.565  11.115 -0.1529 -0.6315 -0.3871
  173SOPE   HN119574   0.841   3.668  11.108  0.8360 -0.3052  1.6457
  173SOPE   HN219575   0.772   3.523  11.163 -1.1109  0.4036 -1.0843
  173SOPE   HN319576   0.940   3.543  11.169  0.2982  1.4204 -0.1844
  173SOPE   C1219577   0.852   3.511  10.979  0.2870  0.3428  0.1000
  173SOPE  H12A19578   0.774   3.562  10.918  1.8952  1.1627 -1.3488
  173SOPE  H12B19579   0.854   3.401  10.992  0.0690  0.5560  2.3399
  173SOPE   C1119580   0.984   3.549  10.922 -0.4859  0.3242 -0.6534
  173SOPE  H11A19581   1.008   3.657  10.925 -2.1792  0.7284 -0.7048
  173SOPE  H11B19582   0.977   3.526  10.813 -1.5173 -4.0153  0.1160
  173SOPE     P19583   1.246   3.513  10.963  0.2463  0.0921 -0.1282
  173SOPE   O1319584   1.325   3.392  10.999 -0.2232  0.5564  0.2256
  173SOPE   O1419585   1.247   3.621  11.066  0.4059  0.5803  0.0329
  173SOPE   O1219586   1.089   3.465  10.962 -0.1753 -0.0284 -0.3587
  173SOPE   O1119587   1.270   3.564  10.821  0.4200  0.2934  0.1884
  173SOPE    C119588   1.328   3.477  10.722 -0.1865 -0.4422  0.0773
  173SOPE    HA19589   1.362   3.381  10.766  2.1215  0.7554  1.0475
  173SOPE    HB19590   1.418   3.536  10.694 -0.2734 -0.3582 -0.0258
  173SOPE    C219591   1.239   3.457  10.597  0.4854 -0.1980  0.3842
  173SOPE    HS19592   1.205   3.562  10.579  1.1666  0.6585  3.5080
  173SOPE   O2119593   1.138   3.362  10.630 -0.1384  0.4849 -0.9315
  173SOPE   C2119594   1.028   3.374  10.554  0.0058 -0.9507  0.1889
  173SOPE   O2219595   1.000   3.472  10.491  0.2856 -0.3705 -0.8801
  173SOPE   C2219596   0.945   3.244  10.554 -0.7853 -1.2051 -0.1654
  173SOPE   H2R19597   0.870   3.239  10.636  0.5715  0.3552  1.2353
  173SOPE   H2S19598   1.022   3.164  10.566 -0.3248 -0.9115 -1.0545
  173SOPE    C319599   1.316   3.411  10.478 -0.5473 -0.1646  0.1106
  173SOPE    HX19600   1.347   3.304  10.484 -0.9394 -0.4188 -1.7910
  173SOPE    HY19601   1.408   3.474  10.479  0.8421 -2.0884  0.7135
  173SOPE   O3119602   1.235   3.426  10.358  0.1679 -0.2774  0.1977
  173SOPE   C3119603   1.271   3.526  10.284  0.1674  0.1889  0.0520
  173SOPE   O3219604   1.352   3.611  10.316  0.6299 -0.9042  0.0387
  173SOPE   C3219605   1.176   3.540  10.159 -0.4176  0.7240  0.0338
  173SOPE   H2X19606   1.077   3.577  10.192  0.0660  1.6671  0.4461
  173SOPE   H2Y19607   1.159   3.444  10.105  3.8743  0.4090 -1.1157
  173SOPE   C2319608   0.863   3.221  10.427  0.0040 -0.1848 -0.2773
  173SOPE   H3R19609   0.782   3.297  10.413  0.8002  0.9503  1.0468
  173SOPE   H3S19610   0.812   3.123  10.438  1.5375 -0.8891  0.7372
  173SOPE   C2419611   0.944   3.214  10.307 -0.7565  0.1904 -0.0647
  173SOPE   H4R19612   0.961   3.316  10.265  0.5079  0.6173  1.3770
  173SOPE   H4S19613   1.043   3.166  10.321 -1.0449 -1.7668 -3.5260
  173SOPE   C2519614   0.880   3.133  10.189 -0.2051  0.0177  0.4618
  173SOPE   H5R19615   0.831   3.038  10.219 -0.2603  0.1258  0.7194
  173SOPE   H5S19616   0.801   3.184  10.130 -0.1785  0.1363  0.5277
  173SOPE   C2619617   0.993   3.088  10.093 -0.1346 -0.2835  0.4107
  173SOPE   H6R19618   1.047   3.175  10.048  0.1093 -1.0527 -0.8223
  173SOPE   H6S19619   1.059   3.026  10.158 -1.7427 -1.6389  0.7989
  173SOPE   C2719620   0.934   2.996   9.982 -0.2871  0.1582  0.5189
  173SOPE   H7R19621   0.874   2.918  10.034 -3.7880  2.8629  0.8381
  173SOPE   H7S19622   0.854   3.057   9.934  1.2653  2.7440  1.0650
  173SOPE   C2819623   1.034   2.934   9.883 -0.2084 -0.7758 -0.6784
  173SOPE   H8R19624   1.083   3.018   9.828 -0.0187  0.0160  0.6713
  173SOPE   H8S19625   1.105   2.874   9.945 -1.0432  0.0631  1.1471
  173SOPE   C2919626   0.973   2.842   9.783 -0.0453 -0.6639  0.4282
  173SOPE   H9119627   0.928   2.755   9.833  0.6155 -1.1381  0.2089
  173SOPE  C21019628   0.987   2.853   9.649  0.6400  0.3749 -0.4791
  173SOPE  H10119629   0.934   2.779   9.587  0.4734 -0.4372  0.6083
  173SOPE  C21119630   1.049   2.963   9.565 -0.1844  0.0942  0.3416
  173SOPE  H11R19631   1.150   2.994   9.600  0.3243 -0.6138 -0.4437
  173SOPE  H11S19632   0.979   3.049   9.569 -1.5665 -0.9852 -0.1479
  173SOPE  C21219633   1.064   2.923   9.421  0.7024  0.7714 -0.1929
  173SOPE  H12R19634   0.970   2.899   9.366  0.0576 -0.5867  1.4075
  173SOPE  H12S19635   1.132   2.835   9.419 -0.3527 -0.0948  0.4682
  173SOPE  C21319636   1.133   3.028   9.334  0.3130  0.3916  0.9881
  173SOPE  H13R19637   1.231   3.026   9.386 -0.0042 -1.5759  1.5808
  173SOPE  H13S19638   1.094   3.129   9.361  0.2827  0.6798 -0.0721
  173SOPE  C21419639   1.142   2.989   9.189  1.0021  0.0002  0.9353
  173SOPE  H14R19640   1.204   2.897   9.183  2.1475  0.8140 -0.4510
  173SOPE  H14S19641   1.201   3.064   9.133 -0.5276  0.8784  0.4558
  173SOPE  C21519642   1.006   2.965   9.115 -0.1954 -0.3927  0.2918
  173SOPE  H15R19643   0.945   2.880   9.154 -2.3390  0.7505 -0.4231
  173SOPE  H15S19644   1.020   2.947   9.006 -1.9860  2.1824 -0.4561
  173SOPE  C21619645   0.922   3.091   9.134 -0.1678 -0.1704  0.5946
  173SOPE  H16R19646   0.980   3.184   9.110  1.4622 -0.7935  1.9314
  173SOPE  H16S19647   0.887   3.109   9.237  1.8814  3.3712  0.8456
  173SOPE  C21719648   0.800   3.082   9.038 -0.5218  0.3748 -0.4518
  173SOPE  H17R19649   0.759   3.185   9.049  1.5118  1.3299 -1.3478
  173SOPE  H17S19650   0.724   3.007   9.070 -0.3875  1.6854  3.4702
  173SOPE  C21819651   0.844   3.073   8.893  0.3590 -0.2517  0.3504
  173SOPE  H18R19652   0.869   2.967   8.871  0.4214 -0.5483  1.7725
  173SOPE  H18S19653   0.929   3.136   8.859 -0.3737  0.3696 -0.3690
  173SOPE  H18T19654   0.762   3.098   8.823  1.1578  0.3449 -0.4054
  173SOPE   C3319655   1.218   3.637  10.051 -0.0165 -0.2877 -0.0744
  173SOPE   H3X19656   1.294   3.585   9.988  0.9937 -1.6490  2.1340
  173SOPE   H3Y19657   1.253   3.727  10.105 -0.5087 -0.6770  0.9223
  173SOPE   C3419658   1.101   3.679   9.964  0.3791  0.3533  0.1493
  173SOPE   H4X19659   1.017   3.734  10.011 -0.0488  0.8982 -1.1931
  173SOPE   H4Y19660   1.062   3.581   9.926 -1.7625  1.4423 -0.6433
  173SOPE   C3519661   1.139   3.755   9.840  0.3697 -0.2773  0.4009
  173SOPE   H5X19662   1.228   3.706   9.794  0.4631  0.6960 -0.5054
  173SOPE   H5Y19663   1.172   3.859   9.861  1.9775  0.1852 -3.5773
  173SOPE   C3619664   1.027   3.763   9.740  0.9547  0.2361  0.2299
  173SOPE   H6X19665   0.940   3.820   9.779 -0.8280 -2.1035 -0.0991
  173SOPE   H6Y19666   0.990   3.659   9.731  0.1605  0.4097  1.3270
  173SOPE   C3719667   1.063   3.829   9.599  0.0131 -0.0955  0.3512
  173SOPE   H7X19668   1.146   3.772   9.552 -0.4807 -1.1961  0.7612
  173SOPE   H7Y19669   1.086   3.937   9.612  0.7945 -0.1693 -0.3627
  173SOPE   C3819670   0.944   3.811   9.502  0.1141 -0.3602 -0.3150
  173SOPE   H8X19671   0.862   3.871   9.548  0.5804 -0.7822  1.1320
  173SOPE   H8Y19672   0.909   3.706   9.491 -0.0452 -0.3370 -0.0375
  173SOPE   C3919673   0.986   3.872   9.363 -0.4245 -0.3932 -0.0804
  173SOPE   H9X19674   1.053   3.959   9.381 -1.0140  0.2191 -0.7546
  173SOPE   H9Y19675   0.893   3.909   9.314  1.0570  2.3815 -1.0164
  173SOPE  C31019676   1.047   3.774   9.261 -0.5056  0.1378 -0.1153
  173SOPE  H10X19677   0.969   3.705   9.223 -0.4513 -1.5604  2.6141
  173SOPE  H10Y19678   1.117   3.713   9.322  0.3988  0.4711 -0.7871
  173SOPE  C31119679   1.121   3.849   9.144  0.3487 -0.5583  0.3339
  173SOPE  H11X19680   1.183   3.780   9.083 -2.6133 -2.1503 -1.1507
  173SOPE  H11Y19681   1.185   3.933   9.177  0.0504  0.3131 -1.1650
  173SOPE  C31219682   1.026   3.920   9.050  0.1567 -0.6889 -1.0785
  173SOPE  H12X19683   0.969   4.005   9.094 -1.8680 -1.5583 -1.9076
  173SOPE  H12Y19684   0.942   3.855   9.020  0.1882 -2.0696  1.5350
  173SOPE  C31319685   1.090   3.959   8.917  0.3609 -0.2355 -0.0081
  173SOPE  H13X19686   1.128   3.873   8.858  2.1427 -0.0005  0.7544
  173SOPE  H13Y19687   1.178   4.026   8.924  1.2434 -1.3099 -0.4402
  173SOPE  C31419688   0.999   4.050   8.831 -0.4533 -0.3333  0.4113
  173SOPE  H14X19689   0.998   4.151   8.878 -0.5981 -0.1267 -0.0258
  173SOPE  H14Y19690   0.894   4.015   8.836 -0.8292  0.0258 -2.9290
  173SOPE  C31519691   1.037   4.052   8.683 -0.2262 -0.4442  0.3910
  173SOPE  H15X19692   0.965   4.114   8.626  0.1304  1.2254  1.6664
  173SOPE  H15Y19693   1.026   3.950   8.640 -0.5911 -1.0334  1.8071
  173SOPE  C31619694   1.177   4.107   8.637 -0.1225 -0.2989  0.1991
  173SOPE  H16X19695   1.201   4.073   8.534 -0.6321 -2.2601  0.6834
  173SOPE  H16Y19696   1.271   4.091   8.693  0.9123  1.0849 -1.0887
  173SOPE  C31719697   1.168   4.264   8.632  0.1271 -0.5586  0.4516
  173SOPE  H17X19698   1.155   4.297   8.737  1.9338  0.9059  0.2659
  173SOPE  H17Y19699   1.072   4.294   8.584  0.8846 -0.0804 -0.8151
  173SOPE  C31819700   1.291   4.341   8.581 -0.3577  0.1215  0.5016
  173SOPE  H18X19701   1.287   4.447   8.612  0.7555  0.7194 -1.2325
  173SOPE  H18Y19702   1.296   4.345   8.470  3.3306  2.7276  0.6103
  173SOPE  H18Z19703   1.382   4.290   8.620  1.1517  1.2106 -1.4112
  174SOPE     N19704   4.587   3.984  10.919 -0.2319 -0.3465 -0.3422
  174SOPE   HN119705   4.562   4.075  10.962  0.8375 -0.8527  1.4843
  174SOPE   HN219706   4.536   3.901  10.956 -0.3497 -0.5169 -0.8766
  174SOPE   HN319707   4.681   3.962  10.959 -0.5601 -0.9372  0.1131
  174SOPE   C1219708   4.591   3.990  10.775  0.5292  0.4838 -0.1882
  174SOPE  H12A19709   4.491   4.032  10.748  0.0658  0.3558  1.2504
  174SOPE  H12B19710   4.599   3.888  10.732 -1.4132  0.1256  0.1883
  174SOPE   C1119711   4.697   4.079  10.723 -0.3115  0.6545 -0.5027
  174SOPE  H11A19712   4.673   4.183  10.754 -1.4616  0.1315  0.4474
  174SOPE  H11B19713   4.707   4.078  10.612 -0.1102  0.2738 -0.4833
  174SOPE     P19714   4.944   4.141  10.795 -0.0444 -0.4758 -0.5046
  174SOPE   O1319715   5.048   4.064  10.862  0.0051 -0.2174  0.3632
  174SOPE   O1419716   4.907   4.276  10.853 -0.4960 -0.4281  0.6412
  174SOPE   O1219717   4.818   4.044  10.784 -0.4715  0.0049  0.0058
  174SOPE   O1119718   4.990   4.165  10.649  0.3623  0.1578  0.8000
  174SOPE    C119719   5.020   4.052  10.570 -0.0762  0.1301 -0.5607
  174SOPE    HA19720   4.947   3.970  10.586 -2.2146  2.0761  0.1233
  174SOPE    HB19721   5.118   4.004  10.591 -0.6487 -1.8707 -2.1617
  174SOPE    C219722   5.010   4.066  10.410 -0.4367  0.3069 -0.1158
  174SOPE    HS19723   5.111   4.092  10.371 -0.4403  0.8868  0.2488
  174SOPE   O2119724   4.911   4.160  10.371 -0.1458 -0.3864  0.0934
  174SOPE   C2119725   4.936   4.289  10.358 -0.2071  0.0671 -0.2247
  174SOPE   O2219726   5.044   4.348  10.354 -0.0773  0.6544  0.6827
  174SOPE   C2219727   4.797   4.353  10.338 -0.7405 -0.2622  0.0186
  174SOPE   H2R19728   4.740   4.363  10.432 -0.6270  2.2174 -0.1077
  174SOPE   H2S19729   4.746   4.283  10.269  0.4882 -1.2179  0.0441
  174SOPE    C319730   4.977   3.927  10.343 -0.6068  0.2633  0.9896
  174SOPE    HX19731   4.886   3.882  10.387  0.3166 -2.7643  0.0599
  174SOPE    HY19732   5.064   3.860  10.363  0.3962  1.2672  0.1205
  174SOPE   O3119733   4.957   3.943  10.198  0.1612  0.0337 -0.5974
  174SOPE   C3119734   4.836   3.913  10.155  0.0558  0.5986  0.3284
  174SOPE   O3219735   4.739   3.884  10.222 -0.0508 -0.0228  0.0770
  174SOPE   C3219736   4.828   3.935  10.003  0.3928  1.4876 -0.0224
  174SOPE   H2X19737   4.891   4.023   9.978  0.4447  1.3470 -0.3891
  174SOPE   H2Y19738   4.722   3.966   9.985 -0.1047  1.2016  2.1528
  174SOPE   C2319739   4.804   4.492  10.282  0.0588 -0.3056 -0.2302
  174SOPE   H3R19740   4.863   4.565  10.342  2.4647 -1.6706 -0.7831
  174SOPE   H3S19741   4.698   4.521  10.273 -0.8267 -2.9727  0.6444
  174SOPE   C2419742   4.863   4.490  10.141  0.2584  0.0779 -0.0246
  174SOPE   H4R19743   4.842   4.593  10.105 -0.6490 -1.1957 -3.5968
  174SOPE   H4S19744   4.973   4.477  10.138  0.0288 -2.1675  0.1722
  174SOPE   C2519745   4.808   4.409  10.032  0.4148 -0.3490 -1.5631
  174SOPE   H5R19746   4.799   4.305  10.070  0.2717  0.7165  1.5595
  174SOPE   H5S19747   4.701   4.434  10.018 -0.7802 -2.7670  1.9335
  174SOPE   C2619748   4.884   4.419   9.899  0.3719  0.0424 -0.1475
  174SOPE   H6R19749   4.821   4.373   9.819 -1.7934  1.6046  0.5555
  174SOPE   H6S19750   4.892   4.525   9.866 -1.3808  0.2268 -0.0964
  174SOPE   C2719751   5.022   4.348   9.892  0.3693  0.3855 -0.5550
  174SOPE   H7R19752   5.093   4.410   9.951  1.3080 -0.5709 -0.6576
  174SOPE   H7S19753   5.019   4.251   9.946 -0.3852 -0.9004 -2.7732
  174SOPE   C2819754   5.077   4.299   9.759  0.1135 -0.2465  0.6502
  174SOPE   H8R19755   5.167   4.235   9.769  1.1205  1.2147  1.3628
  174SOPE   H8S19756   5.008   4.230   9.706  1.0937  0.9141 -2.3459
  174SOPE   C2919757   5.122   4.412   9.669  0.1547 -0.2574 -0.1235
  174SOPE   H9119758   5.195   4.481   9.714 -0.9707  1.1973 -0.4536
  174SOPE  C21019759   5.067   4.435   9.545 -0.3656  1.0256  0.3434
  174SOPE  H10119760   5.089   4.528   9.490  2.9093  1.1167  1.5852
  174SOPE  C21119761   4.960   4.349   9.481 -0.3086  0.2026 -0.0506
  174SOPE  H11R19762   4.860   4.396   9.492  0.4867  1.5659  1.9976
  174SOPE  H11S19763   4.956   4.243   9.516 -0.5465 -0.0112 -0.7154
  174SOPE  C21219764   4.988   4.343   9.330 -0.0280  0.9811 -0.1580
  174SOPE  H12R19765   5.094   4.319   9.307  0.3539 -0.5669  2.7257
  174SOPE  H12S19766   4.964   4.440   9.281 -1.9009  0.4094 -0.4813
  174SOPE  C21319767   4.889   4.245   9.253  0.6624 -0.4693 -0.6875
  174SOPE  H13R19768   4.783   4.275   9.259  1.0855  0.9305  0.1604
  174SOPE  H13S19769   4.897   4.151   9.311  0.7146 -0.9828 -1.5078
  174SOPE  C21419770   4.935   4.225   9.105  0.0812 -0.5637 -0.7901
  174SOPE  H14R19771   5.043   4.199   9.104  0.2186 -0.0466 -0.1396
  174SOPE  H14S19772   4.931   4.312   9.037 -0.7543  0.5461  0.6250
  174SOPE  C21519773   4.858   4.112   9.035  0.4782 -1.4003 -0.4702
  174SOPE  H15R19774   4.748   4.127   9.041  0.6342  1.9229 -2.9498
  174SOPE  H15S19775   4.873   4.023   9.100  0.1506 -2.7498 -2.1859
  174SOPE  C21619776   4.896   4.071   8.891  0.9235  0.4107 -0.6216
  174SOPE  H16R19777   4.877   4.152   8.817 -0.5222 -0.3918 -1.1533
  174SOPE  H16S19778   4.825   3.989   8.871 -0.9107  1.9312 -0.5843
  174SOPE  C21719779   5.039   4.012   8.887 -0.1148  0.1216 -0.2105
  174SOPE  H17R19780   5.056   3.944   8.973  0.7296  0.6420  0.0420
  174SOPE  H17S19781   5.117   4.090   8.901  1.0453 -1.0825  0.2057
  174SOPE  C21819782   5.070   3.938   8.753  0.2568  0.1621  0.6652
  174SOPE  H18R19783   5.023   3.993   8.668 -0.2623 -1.2321  0.0198
  174SOPE  H18S19784   5.026   3.837   8.764 -1.7427  0.9715  0.6263
  174SOPE  H18T19785   5.178   3.928   8.733  0.2576 -1.3154  1.2840
  174SOPE   C3319786   4.866   3.805   9.919  0.5347 -0.5985 -0.2898
  174SOPE   H3X19787   4.815   3.722   9.970  1.7032 -1.5827 -0.6606
  174SOPE   H3Y19788   4.977   3.795   9.912  0.4417 -0.7290 -2.4593
  174SOPE   C3419789   4.820   3.818   9.768  0.1242  0.1526  0.8096
  174SOPE   H4X19790   4.861   3.907   9.715 -0.3950 -1.5552 -2.7462
  174SOPE   H4Y19791   4.709   3.818   9.760  0.2790 -0.1060 -3.9653
  174SOPE   C3519792   4.875   3.698   9.683  0.1029 -0.8699  0.5762
  174SOPE   H5X19793   4.858   3.603   9.739  0.2553 -1.2882 -0.0762
  174SOPE   H5Y19794   4.981   3.712   9.653 -0.6640 -0.3319 -2.2173
  174SOPE   C3619795   4.793   3.667   9.548  0.3121 -0.2768 -1.3007
  174SOPE   H6X19796   4.866   3.610   9.487  0.6479 -1.6899  0.3606
  174SOPE   H6Y19797   4.773   3.764   9.497 -2.1139 -0.2194 -0.4007
  174SOPE   C3719798   4.673   3.569   9.552  0.6507 -0.1902  0.2120
  174SOPE   H7X19799   4.595   3.611   9.618  0.6692  2.3771 -1.2563
  174SOPE   H7Y19800   4.714   3.472   9.589  1.9800  0.7590  1.3255
  174SOPE   C3819801   4.610   3.562   9.410 -0.0988 -0.1511  0.0021
  174SOPE   H8X19802   4.652   3.479   9.349 -0.9153  0.3584 -1.2875
  174SOPE   H8Y19803   4.636   3.659   9.364  1.4702  0.4394  1.9973
  174SOPE   C3919804   4.460   3.556   9.408 -0.6107 -0.1566 -0.0458
  174SOPE   H9X19805   4.420   3.652   9.445  1.7418  0.7521  0.2807
  174SOPE   H9Y19806   4.424   3.484   9.485  0.3261  2.1825  2.7704
  174SOPE  C31019807   4.421   3.532   9.258  0.8508  0.2080  0.2033
  174SOPE  H10X19808   4.430   3.423   9.240  0.6122  0.3692 -0.9995
  174SOPE  H10Y19809   4.486   3.588   9.187  0.5901 -0.1978 -0.3650
  174SOPE  C31119810   4.274   3.563   9.215 -0.5562 -0.6115 -0.0942
  174SOPE  H11X19811   4.270   3.580   9.106  1.0728 -0.4611 -0.1519
  174SOPE  H11Y19812   4.249   3.660   9.263 -0.7176  0.0491 -1.4805
  174SOPE  C31219813   4.176   3.453   9.264  0.0304 -0.8230 -0.3890
  174SOPE  H12X19814   4.202   3.429   9.369 -0.7154  1.3797  0.3526
  174SOPE  H12Y19815   4.168   3.361   9.204 -1.4765 -0.2321 -1.1483
  174SOPE  C31319816   4.035   3.500   9.278 -0.0138 -0.1031  0.0015
  174SOPE  H13X19817   4.006   3.543   9.376 -0.9460  0.3996 -0.4805
  174SOPE  H13Y19818   3.977   3.405   9.283 -1.2774  0.6150 -0.3815
  174SOPE  C31419819   3.982   3.592   9.164 -0.6360 -0.0740 -0.2040
  174SOPE  H14X19820   4.021   3.558   9.065  1.7588 -1.4231  1.1052
  174SOPE  H14Y19821   4.028   3.692   9.175  2.3776 -1.4640  1.1671
  174SOPE  C31519822   3.836   3.602   9.152 -0.0461  0.2954 -0.3880
  174SOPE  H15X19823   3.779   3.631   9.243 -2.1053 -2.0329 -0.8224
  174SOPE  H15Y19824   3.796   3.499   9.139  0.9485 -0.2492  0.7409
  174SOPE  C31619825   3.802   3.682   9.021  0.9402  0.6387 -0.0577
  174SOPE  H16X19826   3.691   3.675   9.016  0.9419 -0.9878  1.2340
  174SOPE  H16Y19827   3.838   3.618   8.939 -0.0840 -1.6675  1.1924
  174SOPE  C31719828   3.860   3.824   9.013 -0.0681  1.1065 -0.5371
  174SOPE  H17X19829   3.971   3.820   9.008 -0.0048  1.8107  0.0288
  174SOPE  H17Y19830   3.845   3.878   9.109  1.5886 -2.5945  2.0519
  174SOPE  C31819831   3.816   3.905   8.886 -0.5152 -0.1409 -0.3638
  174SOPE  H18X19832   3.823   4.015   8.900 -0.7298 -0.3532  1.6661
  174SOPE  H18Y19833   3.712   3.884   8.856 -1.3589  2.4619  0.4584
  174SOPE  H18Z19834   3.879   3.873   8.800  1.5289 -1.5722  1.5429
  175SOPE     N19835   5.971   4.878  10.872  0.2280  0.0405 -0.1894
  175SOPE   HN119836   5.930   4.836  10.957 -0.3609  1.5342  0.3010
  175SOPE   HN219837   6.072   4.852  10.875  0.5815  1.0469 -1.7914
  175SOPE   HN319838   5.966   4.982  10.879 -0.2084 -0.0314  0.6744
  175SOPE   C1219839   5.891   4.832  10.757  0.0979  0.2882  0.3922
  175SOPE  H12A19840   5.812   4.907  10.732  1.9434  1.2973 -3.1490
  175SOPE  H12B19841   5.827   4.746  10.788  0.0096 -0.0869 -0.7552
  175SOPE   C1119842   5.985   4.794  10.633  0.1772 -0.0683  0.4015
  175SOPE  H11A19843   6.026   4.886  10.588 -0.7939 -0.2897 -1.0021
  175SOPE  H11B19844   5.934   4.743  10.549 -0.3918  0.2067  0.5777
  175SOPE     P19845   6.084   4.569  10.718 -0.2947 -0.2697 -0.1194
  175SOPE   O1319846   5.964   4.549  10.795 -0.2055  0.0900 -0.0878
  175SOPE   O1419847   6.211   4.500  10.754 -0.9697 -0.0819  0.0207
  175SOPE   O1219848   6.098   4.724  10.682  0.1719  0.3521 -0.0066
  175SOPE   O1119849   6.042   4.518  10.575  0.1784  0.8194 -0.2828
  175SOPE    C119850   6.127   4.553  10.456  0.2443 -0.5853  0.1009
  175SOPE    HA19851   6.229   4.512  10.470  0.7374 -0.0315 -1.6273
  175SOPE    HB19852   6.149   4.662  10.452 -0.9352 -0.3728 -1.1824
  175SOPE    C219853   6.062   4.527  10.314 -0.1773  0.1629 -0.4892
  175SOPE    HS19854   6.142   4.554  10.242  0.6786  0.5058  0.5647
  175SOPE   O2119855   5.933   4.598  10.288 -0.3249 -0.6599  0.4373
  175SOPE   C2119856   5.941   4.732  10.274  0.0528 -0.1604  0.2396
  175SOPE   O2219857   6.047   4.794  10.285  0.5038  0.3885  0.0828
  175SOPE   C2219858   5.818   4.800  10.215 -0.5707 -0.0475  0.0502
  175SOPE   H2R19859   5.844   4.904  10.186 -1.2021  0.0711 -0.1089
  175SOPE   H2S19860   5.731   4.803  10.283 -0.1782 -0.2869  0.5672
  175SOPE    C319861   6.025   4.370  10.301  0.3788  0.2850 -0.9958
  175SOPE    HX19862   5.957   4.347  10.386 -0.1508  0.3771 -1.3867
  175SOPE    HY19863   6.118   4.311  10.317 -0.3208 -0.6123 -0.1425
  175SOPE   O3119864   5.947   4.335  10.184 -0.2374  0.0719 -0.5103
  175SOPE   C3119865   6.026   4.323  10.079  0.6869  0.4655 -0.1040
  175SOPE   O3219866   6.151   4.327  10.086  0.2310  0.4594 -0.2974
  175SOPE   C3219867   5.944   4.300   9.957  0.1236 -0.3276  0.2724
  175SOPE   H2X19868   5.844   4.348   9.956 -0.5724 -1.3860 -4.2822
  175SOPE   H2Y19869   5.906   4.195   9.958  0.2150 -0.3679 -0.3809
  175SOPE   C2319870   5.766   4.722  10.090  1.0126 -0.0648  0.1478
  175SOPE   H3R19871   5.675   4.777  10.056  1.5718  0.4773 -0.5083
  175SOPE   H3S19872   5.757   4.613  10.105  1.9876 -0.4364 -1.6596
  175SOPE   C2419873   5.872   4.736   9.982  0.0302  0.2114 -0.2269
  175SOPE   H4R19874   5.903   4.843   9.978 -0.9869  0.6939  2.5815
  175SOPE   H4S19875   5.955   4.670  10.012  0.7119  0.4170 -1.5730
  175SOPE   C2519876   5.820   4.689   9.848 -0.0501 -0.7087  0.5806
  175SOPE   H5R19877   5.910   4.673   9.784 -0.1669  1.3420 -0.1543
  175SOPE   H5S19878   5.766   4.593   9.862  0.2187 -1.4454 -2.7396
  175SOPE   C2619879   5.722   4.795   9.790  0.1679  0.2206  0.1408
  175SOPE   H6R19880   5.646   4.822   9.867  1.3900  2.2244  0.7022
  175SOPE   H6S19881   5.772   4.893   9.776  0.0289  0.2495 -0.1669
  175SOPE   C2719882   5.656   4.746   9.656 -0.6065 -0.0177  0.5898
  175SOPE   H7R19883   5.577   4.670   9.674 -1.3467  0.1479 -1.7105
  175SOPE   H7S19884   5.602   4.836   9.618 -1.5526 -1.0882 -0.6904
  175SOPE   C2819885   5.748   4.695   9.543  0.0224  0.0740 -0.0645
  175SOPE   H8R19886   5.825   4.773   9.526  0.0416  0.6251  2.3183
  175SOPE   H8S19887   5.785   4.602   9.591 -0.7876  0.7895  2.0486
  175SOPE   C2919888   5.674   4.670   9.415 -0.4055  0.1683 -0.5818
  175SOPE   H9119889   5.669   4.566   9.379  1.6130  0.1515 -0.9658
  175SOPE  C21019890   5.629   4.767   9.337  0.0622 -0.4449  0.0268
  175SOPE  H10119891   5.577   4.743   9.243  0.6290  1.0444 -0.7015
  175SOPE  C21119892   5.636   4.914   9.364  0.2280  0.4728 -0.5201
  175SOPE  H11R19893   5.717   4.936   9.437  0.2929 -0.8608 -0.1498
  175SOPE  H11S19894   5.540   4.944   9.411  1.1891  0.2246  1.7488
  175SOPE  C21219895   5.653   5.012   9.245  0.0406  0.7083 -0.3263
  175SOPE  H12R19896   5.753   4.990   9.204  0.5636  1.3545  0.5611
  175SOPE  H12S19897   5.646   5.115   9.285  0.4511  1.1149 -1.2782
  175SOPE  C21319898   5.546   5.002   9.139  0.0773  0.6421  0.0660
  175SOPE  H13R19899   5.458   5.042   9.194 -0.7764  2.0671 -2.2129
  175SOPE  H13S19900   5.525   4.904   9.091 -0.6920  0.6232  0.4150
  175SOPE  C21419901   5.573   5.100   9.023  0.6699  0.0816  0.3035
  175SOPE  H14R19902   5.599   5.198   9.070 -0.1254  1.3803 -1.8450
  175SOPE  H14S19903   5.477   5.124   8.973  0.0500 -1.0905  0.8996
  175SOPE  C21519904   5.682   5.054   8.933  0.0598 -0.2340 -1.4637
  175SOPE  H15R19905   5.658   4.954   8.891 -0.2029  0.2648 -2.5553
  175SOPE  H15S19906   5.783   5.052   8.978  0.0712 -2.1897 -1.5005
  175SOPE  C21619907   5.703   5.137   8.805  0.2303  0.7603  0.4751
  175SOPE  H16R19908   5.613   5.162   8.744  0.2964 -1.4600 -0.5928
  175SOPE  H16S19909   5.775   5.072   8.752  0.3429  1.8751 -0.7974
  175SOPE  C21719910   5.788   5.266   8.837 -0.0324  0.3455  0.3425
  175SOPE  H17R19911   5.870   5.230   8.903 -2.0871 -1.0894  2.2325
  175SOPE  H17S19912   5.730   5.345   8.890 -0.6243  0.5431 -0.5790
  175SOPE  C21819913   5.847   5.324   8.711  0.4575  0.0202  0.0523
  175SOPE  H18R19914   5.776   5.363   8.635  1.4942  0.3050 -0.7776
  175SOPE  H18S19915   5.908   5.250   8.657  2.0889  2.5860 -1.8339
  175SOPE  H18T19916   5.901   5.414   8.748  1.4973  0.0729 -1.5360
  175SOPE   C3319917   6.019   4.338   9.828  0.2598 -0.2376 -0.2901
  175SOPE   H3X19918   6.117   4.287   9.829 -0.6073 -2.0599 -1.5020
  175SOPE   H3Y19919   6.027   4.448   9.821  0.5792 -0.3280 -1.7368
  175SOPE   C3419920   5.934   4.309   9.705 -0.3354 -0.1270 -0.2052
  175SOPE   H4X19921   5.837   4.364   9.711 -0.6822 -0.8576  1.7750
  175SOPE   H4Y19922   5.913   4.200   9.704  0.0102 -0.2025  0.2299
  175SOPE   C3519923   6.014   4.363   9.584  0.0210  0.4560 -0.5602
  175SOPE   H5X19924   6.106   4.302   9.598 -0.6241 -0.4236 -0.0216
  175SOPE   H5Y19925   6.036   4.472   9.590 -0.9582  0.6309  0.0173
  175SOPE   C3619926   5.943   4.321   9.453 -0.1914 -0.4266  0.1105
  175SOPE   H6X19927   5.843   4.367   9.444  0.1891 -0.0311 -3.0163
  175SOPE   H6Y19928   5.922   4.212   9.453 -2.5706 -0.0204 -0.0866
  175SOPE   C3719929   6.027   4.346   9.332 -0.4889  0.4078  0.0088
  175SOPE   H7X19930   6.099   4.262   9.321 -2.1436 -0.8513 -1.9200
  175SOPE   H7Y19931   6.096   4.430   9.355  1.0029 -0.7996  0.0779
  175SOPE   C3819932   5.957   4.365   9.201  0.5868 -0.2501 -0.2793
  175SOPE   H8X19933   5.912   4.266   9.176  1.1396 -0.4659 -0.4313
  175SOPE   H8Y19934   6.016   4.373   9.107 -1.4223  1.3822 -1.4915
  175SOPE   C3919935   5.839   4.464   9.184  0.0875 -0.3615 -0.1313
  175SOPE   H9X19936   5.858   4.563   9.230  0.6213 -1.0103  1.0812
  175SOPE   H9Y19937   5.754   4.426   9.245  0.2735  1.3614  1.2820
  175SOPE  C31019938   5.798   4.488   9.034 -0.1261  0.3953  0.2837
  175SOPE  H10X19939   5.763   4.396   8.983  1.8806 -0.1908 -0.1173
  175SOPE  H10Y19940   5.898   4.508   8.989  0.3065 -1.1051  0.5418
  175SOPE  C31119941   5.700   4.611   9.016 -0.2789  0.3255 -0.9001
  175SOPE  H11X19942   5.756   4.701   9.051  0.3385 -0.4983  0.2593
  175SOPE  H11Y19943   5.617   4.613   9.089  0.4856  2.0371 -0.0084
  175SOPE  C31219944   5.658   4.637   8.870  0.2096  0.0887  0.0783
  175SOPE  H12X19945   5.752   4.646   8.810 -0.2367 -1.7750 -1.0006
  175SOPE  H12Y19946   5.591   4.725   8.866  0.9158  0.6074 -2.1358
  175SOPE  C31319947   5.577   4.525   8.806 -0.0255  0.0888  0.8304
  175SOPE  H13X19948   5.488   4.535   8.871 -0.6562  4.0343 -0.3659
  175SOPE  H13Y19949   5.632   4.429   8.817  0.6980  0.3767 -0.1377
  175SOPE  C31419950   5.535   4.556   8.662  0.3243 -0.4020 -0.2001
  175SOPE  H14X19951   5.620   4.543   8.592  1.9057 -0.7484  1.7122
  175SOPE  H14Y19952   5.486   4.655   8.653  2.4853  1.0443  2.5412
  175SOPE  C31519953   5.442   4.451   8.610  0.0775  0.1142 -0.2851
  175SOPE  H15X19954   5.361   4.442   8.686 -0.6704  0.7831 -0.9781
  175SOPE  H15Y19955   5.493   4.353   8.609 -1.2159 -0.5877  0.0107
  175SOPE  C31619956   5.382   4.472   8.466  0.3308  0.5603 -0.6395
  175SOPE  H16X19957   5.466   4.504   8.401  1.5913  0.9909  1.1008
  175SOPE  H16Y19958   5.300   4.547   8.472 -1.1500 -1.0877  3.3777
  175SOPE  C31719959   5.337   4.335   8.406  0.4256 -0.5431 -0.2510
  175SOPE  H17X19960   5.275   4.278   8.478 -0.4597 -0.8823 -1.2623
  175SOPE  H17Y19961   5.431   4.280   8.383  0.3240 -0.0658 -1.9981
  175SOPE  C31819962   5.266   4.350   8.271 -0.0761  0.1760  1.0408
  175SOPE  H18X19963   5.160   4.382   8.278 -0.4030 -0.1306 -1.5482
  175SOPE  H18Y19964   5.268   4.246   8.232  1.9659  0.3040  0.6911
  175SOPE  H18Z19965   5.327   4.413   8.203 -0.5143  1.1451  1.5211
  176SOPE     N19966   6.665   2.497  11.083 -0.2221  0.1309 -0.1595
  176SOPE   HN119967   6.764   2.485  11.054 -0.7386  1.2583 -2.6589
  176SOPE   HN219968   6.659   2.503  11.187 -1.3501 -1.1172 -0.1291
  176SOPE   HN319969   6.624   2.405  11.058 -1.5486  1.0714 -1.5942
  176SOPE   C1219970   6.591   2.617  11.026  0.1034  0.5594  0.1649
  176SOPE  H12A19971   6.638   2.704  11.077 -1.1938  1.8979 -0.7993
  176SOPE  H12B19972   6.484   2.606  11.056  0.5208 -1.5622  1.0380
  176SOPE   C1119973   6.612   2.633  10.869 -0.4709  0.4340  0.8492
  176SOPE  H11A19974   6.568   2.729  10.836 -3.5417 -1.4470 -0.9318
  176SOPE  H11B19975   6.554   2.559  10.809  1.5214 -1.5696  1.2185
  176SOPE     P19976   6.844   2.745  10.819 -0.3517  0.2327  0.5976
  176SOPE   O1319977   6.975   2.699  10.766  0.2008  0.0721 -0.2744
  176SOPE   O1419978   6.833   2.817  10.951 -0.0462 -0.4814  0.5801
  176SOPE   O1219979   6.747   2.616  10.825  0.2048 -0.7845  0.3620
  176SOPE   O1119980   6.772   2.839  10.718 -0.5066  0.1821 -0.0078
  176SOPE    C119981   6.837   2.909  10.612 -0.0718 -0.2240  0.3444
  176SOPE    HA19982   6.938   2.878  10.576  0.9949  3.5715 -0.4287
  176SOPE    HB19983   6.844   3.019  10.628  0.3100  0.1773 -2.1868
  176SOPE    C219984   6.749   2.897  10.484  0.4725  0.1354  0.3397
  176SOPE    HS19985   6.808   2.944  10.401  0.8710 -1.0937 -0.0966
  176SOPE   O2119986   6.628   2.968  10.508 -0.4487 -0.0434  0.0173
  176SOPE   C2119987   6.567   3.007  10.399  0.4060 -0.9162  0.4485
  176SOPE   O2219988   6.624   3.016  10.288  0.2039 -0.0443 -0.1958
  176SOPE   C2219989   6.423   3.037  10.438  0.0882 -0.5881  0.3792
  176SOPE   H2R19990   6.405   3.143  10.466 -0.7718 -0.4601 -0.5704
  176SOPE   H2S19991   6.400   2.963  10.518  3.1865 -1.6994  0.3683
  176SOPE    C319992   6.706   2.742  10.465  0.2424 -0.7341  0.1810
  176SOPE    HX19993   6.641   2.718  10.551 -0.1338 -0.1786  0.0562
  176SOPE    HY19994   6.800   2.682  10.462  0.6068 -0.1278 -1.0353
  176SOPE   O3119995   6.629   2.721  10.338 -0.2971 -0.2668  0.3390
  176SOPE   C3119996   6.712   2.746  10.226  0.5029  0.2637 -0.1700
  176SOPE   O3219997   6.830   2.767  10.236  0.1690  0.0810 -0.1866
  176SOPE   C3219998   6.637   2.752  10.099 -0.1769 -0.3173  0.6020
  176SOPE   H2X19999   6.627   2.861  10.081  2.0142 -0.0830  0.5545
  176SOPE   H2Y20000   6.537   2.707  10.114  0.6949 -1.6748  2.6832
  176SOPE   C2320001   6.339   3.026  10.309 -0.5478 -0.0060  0.0104
  176SOPE   H3R20002   6.234   2.993  10.321 -0.6334  0.2633  0.0130
  176SOPE   H3S20003   6.386   2.940  10.256  0.7977  0.2399  0.7635
  176SOPE   C2420004   6.338   3.148  10.212 -0.7894 -0.2250 -0.2624
  176SOPE   H4R20005   6.301   3.235  10.270 -0.0921 -1.5595  2.3328
  176SOPE   H4S20006   6.439   3.169  10.172 -0.9200 -1.4384 -1.2841
  176SOPE   C2520007   6.253   3.130  10.087  0.6581  0.1025  0.1866
  176SOPE   H5R20008   6.159   3.086  10.125  0.4274  1.6445  1.4902
  176SOPE   H5S20009   6.243   3.225  10.031  0.1434 -0.7035 -1.1398
  176SOPE   C2620010   6.322   3.045   9.978 -0.0409  0.6936  0.8694
  176SOPE   H6R20011   6.420   3.086   9.944 -0.0120 -0.6817 -0.8460
  176SOPE   H6S20012   6.323   2.943  10.021 -1.9913 -0.1916 -0.9694
  176SOPE   C2720013   6.231   3.020   9.850 -0.6873 -0.1340 -0.0506
  176SOPE   H7R20014   6.254   2.921   9.806  0.5032  0.3684 -0.6105
  176SOPE   H7S20015   6.126   3.016   9.885 -0.8814  0.9591 -0.4628
  176SOPE   C2820016   6.253   3.120   9.735  0.3222  0.3252  0.1567
  176SOPE   H8R20017   6.168   3.121   9.663 -1.2394 -1.8193  1.8269
  176SOPE   H8S20018   6.253   3.219   9.785 -0.7588  0.2976  0.2232
  176SOPE   C2920019   6.383   3.107   9.660  0.6552  0.7317 -0.2308
  176SOPE   H9120020   6.469   3.163   9.700  0.1476  1.6907 -0.4243
  176SOPE  C21020021   6.399   3.047   9.543 -0.1947 -0.0802 -0.2452
  176SOPE  H10120022   6.498   3.022   9.502 -1.4897 -2.4699 -2.1674
  176SOPE  C21120023   6.294   2.987   9.455 -0.2854  0.2286  0.3434
  176SOPE  H11R20024   6.190   3.016   9.479  0.0961  1.3501  0.7016
  176SOPE  H11S20025   6.290   2.876   9.459 -1.0785  0.1273 -1.7669
  176SOPE  C21220026   6.317   3.021   9.312 -0.0089 -0.0042  0.0170
  176SOPE  H12R20027   6.395   2.956   9.267 -1.6249 -0.2595 -2.6193
  176SOPE  H12S20028   6.348   3.126   9.295  0.4125 -0.2056 -0.4993
  176SOPE  C21320029   6.191   3.005   9.227 -0.4737  0.0659 -0.3203
  176SOPE  H13R20030   6.110   3.041   9.292  1.8827  0.6577  2.5012
  176SOPE  H13S20031   6.192   2.895   9.210  3.3733 -0.2411  0.8574
  176SOPE  C21420032   6.188   3.079   9.091  0.5097 -0.1686 -0.3550
  176SOPE  H14R20033   6.199   3.187   9.114  0.5811 -0.0244 -1.0353
  176SOPE  H14S20034   6.086   3.069   9.046 -0.1480 -0.1495  1.0751
  176SOPE  C21520035   6.280   3.029   8.981 -1.0498  0.8532  0.1191
  176SOPE  H15R20036   6.236   2.937   8.937  1.3633  0.7192 -2.2416
  176SOPE  H15S20037   6.383   3.016   9.019 -0.9324 -0.7203 -0.6798
  176SOPE  C21620038   6.279   3.125   8.854  0.2563  0.5289  0.0221
  176SOPE  H16R20039   6.340   3.216   8.874  0.4445  0.0863  1.5882
  176SOPE  H16S20040   6.174   3.155   8.838 -0.1837 -1.9060 -2.2898
  176SOPE  C21720041   6.354   3.048   8.737 -0.0796  0.4721 -0.0307
  176SOPE  H17R20042   6.289   2.963   8.709  1.6906 -0.6450 -0.9511
  176SOPE  H17S20043   6.453   3.014   8.776  0.6823  1.8411 -0.6840
  176SOPE  C21820044   6.385   3.142   8.626  0.7939 -0.5394  0.5069
  176SOPE  H18R20045   6.428   3.087   8.539 -1.9139 -1.2007 -0.5010
  176SOPE  H18S20046   6.458   3.223   8.648  1.4965 -1.2976  1.0115
  176SOPE  H18T20047   6.291   3.184   8.583  1.7740  0.7796 -0.4420
  176SOPE   C3320048   6.704   2.673   9.981  0.1468  0.7844  0.0237
  176SOPE   H3X20049   6.692   2.564   9.998  2.6063  0.0644 -2.2521
  176SOPE   H3Y20050   6.811   2.699   9.989 -0.1816  1.7891  1.5964
  176SOPE   C3420051   6.656   2.713   9.844  0.9363 -1.0068  0.3564
  176SOPE   H4X20052   6.642   2.823   9.837 -0.3073 -1.1701 -0.0696
  176SOPE   H4Y20053   6.553   2.671   9.835  0.8447 -0.7996  0.4319
  176SOPE   C3520054   6.749   2.676   9.727 -1.2353 -0.0367 -0.0537
  176SOPE   H5X20055   6.799   2.578   9.739  0.6325  0.8024 -0.4610
  176SOPE   H5Y20056   6.835   2.746   9.716 -1.2914 -0.0008 -0.2704
  176SOPE   C3620057   6.676   2.672   9.596  0.0517  0.7456  0.0352
  176SOPE   H6X20058   6.596   2.749   9.596 -1.3320 -0.6242 -0.5020
  176SOPE   H6Y20059   6.617   2.577   9.591  1.8303 -0.4359  0.7029
  176SOPE   C3720060   6.763   2.706   9.467  0.2562 -0.3271 -0.2773
  176SOPE   H7X20061   6.815   2.614   9.431  0.2790 -1.5822  2.6573
  176SOPE   H7Y20062   6.842   2.780   9.493 -0.1764 -0.0157  0.1496
  176SOPE   C3820063   6.683   2.752   9.343 -0.1480 -0.3327  0.0453
  176SOPE   H8X20064   6.744   2.813   9.273 -1.9087  2.0984  0.4795
  176SOPE   H8Y20065   6.614   2.827   9.387 -2.0611 -2.2931  0.5927
  176SOPE   C3920066   6.587   2.654   9.279  0.5352 -0.4500 -0.0006
  176SOPE   H9X20067   6.543   2.699   9.187  1.9145  0.9747  0.0088
  176SOPE   H9Y20068   6.497   2.651   9.344  0.3205 -1.0859 -0.3194
  176SOPE  C31020069   6.634   2.513   9.243  0.1561  0.0961  0.4855
  176SOPE  H10X20070   6.548   2.454   9.206  0.9178  0.0097 -1.2267
  176SOPE  H10Y20071   6.690   2.469   9.329  1.7724 -0.1367 -0.6458
  176SOPE  C31120072   6.736   2.524   9.125 -0.1074  0.5297 -0.3799
  176SOPE  H11X20073   6.838   2.548   9.163  1.2632 -3.3932 -1.0544
  176SOPE  H11Y20074   6.695   2.583   9.041 -0.1283  1.0211 -0.0287
  176SOPE  C31220075   6.766   2.378   9.067  0.6359  0.7137 -0.4484
  176SOPE  H12X20076   6.868   2.383   9.024  0.4068  0.1492 -1.0542
  176SOPE  H12Y20077   6.696   2.359   8.983 -0.6753 -0.1557  0.7834
  176SOPE  C31320078   6.776   2.264   9.174 -0.1261  0.0392 -0.9426
  176SOPE  H13X20079   6.676   2.229   9.209 -0.4384  3.6463  2.5893
  176SOPE  H13Y20080   6.813   2.320   9.263 -1.0704 -0.5515 -0.1613
  176SOPE  C31420081   6.874   2.145   9.143 -0.0891 -0.0770  0.6057
  176SOPE  H14X20082   6.977   2.184   9.131  0.2628 -0.6151  1.6997
  176SOPE  H14Y20083   6.844   2.077   9.061 -1.2205  0.7759  0.2932
  176SOPE  C31520084   6.873   2.052   9.266  0.0530 -1.3861 -0.2117
  176SOPE  H15X20085   6.769   2.017   9.283 -0.5571 -0.2261 -1.3444
  176SOPE  H15Y20086   6.902   2.109   9.357 -4.8937  1.3099  0.0291
  176SOPE  C31620087   6.973   1.938   9.259 -0.6639  0.2266  0.6982
  176SOPE  H16X20088   7.073   1.985   9.256  0.0534 -1.2870 -1.4974
  176SOPE  H16Y20089   6.958   1.883   9.164 -0.3370 -0.9296  1.2889
  176SOPE  C31720090   6.949   1.831   9.373  0.1068  0.2103  0.5827
  176SOPE  H17X20091   6.924   1.733   9.327  1.7914  0.0653 -0.0620
  176SOPE  H17Y20092   6.850   1.857   9.417 -1.2043 -0.0107 -2.0131
  176SOPE  C31820093   7.060   1.819   9.479 -0.4088 -0.1023  0.6752
  176SOPE  H18X20094   7.027   1.749   9.558 -0.7203  0.4648  1.0541
  176SOPE  H18Y20095   7.094   1.918   9.516  0.6637  1.2350 -3.3752
  176SOPE  H18Z20096   7.148   1.768   9.434 -1.0987 -2.0835  1.4779
  177SOPE     N20097   6.089   0.307  11.121 -0.0493 -0.1395  0.5664
  177SOPE   HN120098   6.084   0.401  11.077  0.3461 -0.4952 -0.2579
  177SOPE   HN220099   6.166   0.259  11.070  0.7393  2.1715 -0.5527
  177SOPE   HN320100   6.006   0.249  11.097 -0.0441  0.1105 -0.0555
  177SOPE   C1220101   6.111   0.326  11.263  0.1550  0.8224  0.1963
  177SOPE  H12A20102   6.123   0.225  11.307 -1.0262 -0.4611 -2.2169
  177SOPE  H12B20103   6.025   0.380  11.308 -0.4962  2.6580 -2.9615
  177SOPE   C1120104   6.249   0.391  11.287 -0.7970 -0.0513  0.2380
  177SOPE  H11A20105   6.319   0.305  11.292 -0.6876  0.0700  0.9732
  177SOPE  H11B20106   6.250   0.427  11.392 -0.2312 -0.0708  0.2384
  177SOPE     P20107   6.288   0.639  11.211 -0.0629 -0.0834  0.0977
  177SOPE   O1320108   6.414   0.684  11.272 -0.0555  0.0535  0.2904
  177SOPE   O1420109   6.168   0.678  11.295 -0.6802 -0.1696 -0.2839
  177SOPE   O1220110   6.296   0.488  11.188 -0.2204 -0.0763  0.3455
  177SOPE   O1120111   6.276   0.699  11.064  0.3603 -0.3511  0.2046
  177SOPE    C120112   6.334   0.830  11.053 -0.1611  0.4168 -0.6271
  177SOPE    HA20113   6.444   0.829  11.068 -0.3305  0.8960  0.8353
  177SOPE    HB20114   6.280   0.900  11.121 -0.5871 -1.0846  0.6543
  177SOPE    C220115   6.295   0.894  10.913 -0.5281 -0.4820  0.0644
  177SOPE    HS20116   6.315   1.003  10.908  3.1065 -0.7990  3.3507
  177SOPE   O2120117   6.159   0.859  10.881 -0.3180  0.2454  0.2298
  177SOPE   C2120118   6.087   0.937  10.806 -0.4368 -0.0034 -0.1195
  177SOPE   O2220119   6.125   1.041  10.757  0.2950 -0.3269  0.1016
  177SOPE   C2220120   5.943   0.876  10.783  0.3086 -0.4370  0.6097
  177SOPE   H2R20121   5.892   0.873  10.881  0.7264 -1.7109  0.8071
  177SOPE   H2S20122   5.961   0.773  10.746  0.5765 -0.9426  2.0715
  177SOPE    C320123   6.387   0.823  10.818 -0.1491 -0.8855  0.1464
  177SOPE    HX20124   6.394   0.716  10.844  2.4097  0.0161  4.1622
  177SOPE    HY20125   6.486   0.870  10.841 -0.3791  0.4218 -1.3144
  177SOPE   O3120126   6.347   0.865  10.688 -0.3120 -0.0542 -0.6226
  177SOPE   C3120127   6.400   0.785  10.596  0.5990  0.9052  0.3622
  177SOPE   O3220128   6.474   0.693  10.624 -0.2684  0.1461  0.1273
  177SOPE   C3220129   6.327   0.817  10.464  0.6418 -0.2891  0.6038
  177SOPE   H2X20130   6.410   0.856  10.401  1.0096 -1.0247  0.6207
  177SOPE   H2Y20131   6.249   0.896  10.471 -1.5051 -1.9634 -1.9792
  177SOPE   C2320132   5.856   0.946  10.676  0.0485  0.2035  0.0255
  177SOPE   H3R20133   5.816   1.041  10.718  0.0174  1.0929 -1.9130
  177SOPE   H3S20134   5.763   0.887  10.662 -1.6514  2.2622  1.8836
  177SOPE   C2420135   5.928   0.952  10.535 -0.5457  0.1482 -0.3298
  177SOPE   H4R20136   6.010   1.026  10.537 -1.9603  1.7617  0.5710
  177SOPE   H4S20137   5.979   0.859  10.502 -0.2308 -0.6483  2.1755
  177SOPE   C2520138   5.837   0.998  10.421 -0.0848 -0.0486 -0.2443
  177SOPE   H5R20139   5.742   0.941  10.434  0.5708 -0.8902  1.1057
  177SOPE   H5S20140   5.807   1.099  10.457  1.1520 -0.2500  1.4609
  177SOPE   C2620141   5.901   1.008  10.281 -0.1046 -1.4707  0.1094
  177SOPE   H6R20142   5.967   1.097  10.287 -1.9245  0.2456 -2.8143
  177SOPE   H6S20143   5.945   0.908  10.257  1.3756 -0.9544  0.5589
  177SOPE   C2720144   5.786   1.048  10.183  0.1888 -0.3719 -0.5705
  177SOPE   H7R20145   5.694   0.986  10.189 -1.1257  1.6239  2.1214
  177SOPE   H7S20146   5.747   1.144  10.223 -2.4586 -0.8239 -1.8565
  177SOPE   C2820147   5.836   1.090  10.043 -0.2577 -0.2253  0.8228
  177SOPE   H8R20148   5.738   1.114   9.996 -1.1075 -0.2883  2.4585
  177SOPE   H8S20149   5.895   1.183  10.034 -1.1272  0.2908  0.2779
  177SOPE   C2920150   5.903   0.968   9.974  0.0718  0.0300 -0.3801
  177SOPE   H9120151   5.980   0.920  10.036 -0.9078  0.5861  1.3172
  177SOPE  C21020152   5.880   0.905   9.858  0.4717 -0.3828 -0.0024
  177SOPE  H10120153   5.951   0.824   9.835 -1.2035 -1.1649 -2.7882
  177SOPE  C21120154   5.786   0.940   9.750  0.2677  0.5637 -0.5902
  177SOPE  H11R20155   5.832   1.007   9.674  1.4801  1.4610  0.8859
  177SOPE  H11S20156   5.706   1.007   9.789 -1.0564 -0.6978 -1.0367
  177SOPE  C21220157   5.740   0.820   9.674  1.4238  0.0886  0.9542
  177SOPE  H12R20158   5.726   0.728   9.734  0.1525  0.7498  1.7185
  177SOPE  H12S20159   5.791   0.794   9.579  2.4681 -1.8085  1.9752
  177SOPE  C21320160   5.595   0.865   9.624 -0.7972 -0.6666 -0.5172
  177SOPE  H13R20161   5.523   0.876   9.708  0.7714  1.4330  0.6694
  177SOPE  H13S20162   5.551   0.790   9.555 -0.5401 -2.8599  1.5676
  177SOPE  C21420163   5.603   1.000   9.543 -0.2855 -0.2263  0.5205
  177SOPE  H14R20164   5.676   0.993   9.459  1.3275  0.3583  1.8143
  177SOPE  H14S20165   5.629   1.090   9.603 -2.1994  0.8682 -0.2062
  177SOPE  C21520166   5.469   1.015   9.472  0.2659 -1.0156 -0.7251
  177SOPE  H15R20167   5.388   1.000   9.546  1.0861 -2.1705 -0.0521
  177SOPE  H15S20168   5.456   0.945   9.386  3.0473  0.7060 -2.7167
  177SOPE  C21620169   5.450   1.152   9.413  0.9011 -0.3878  0.6081
  177SOPE  H16R20170   5.463   1.233   9.488 -1.8897  2.3228 -1.5688
  177SOPE  H16S20171   5.342   1.155   9.388  0.7931 -0.6480  1.0254
  177SOPE  C21720172   5.522   1.174   9.285 -0.0180 -0.3180  0.5152
  177SOPE  H17R20173   5.484   1.095   9.217 -2.2092 -1.7377  3.1741
  177SOPE  H17S20174   5.628   1.143   9.299 -0.1187 -0.2570  1.4422
  177SOPE  C21820175   5.507   1.318   9.215  0.2399  0.0050  0.4466
  177SOPE  H18R20176   5.402   1.354   9.214 -0.0613 -0.8632 -0.1755
  177SOPE  H18S20177   5.547   1.303   9.112 -0.6508  1.7188 -0.2042
  177SOPE  H18T20178   5.566   1.397   9.266  1.3528 -0.8710  0.5353
  177SOPE   C3320179   6.273   0.692  10.395  0.4755  0.1891  0.1104
  177SOPE   H3X20180   6.190   0.646  10.454  0.9888  1.3698  1.8332
  177SOPE   H3Y20181   6.354   0.616  10.385 -1.4894 -1.9287 -0.5024
  177SOPE   C3420182   6.215   0.732  10.254  0.7239  0.0782  0.0215
  177SOPE   H4X20183   6.300   0.785  10.205  0.9611 -1.1715 -0.9836
  177SOPE   H4Y20184   6.134   0.806  10.273 -0.4430 -1.5347  1.6979
  177SOPE   C3520185   6.170   0.604  10.167  0.0297 -0.1984 -0.4576
  177SOPE   H5X20186   6.086   0.566  10.228  0.4695  2.2488  1.8563
  177SOPE   H5Y20187   6.258   0.536  10.169  0.6736  0.6456  0.7254
  177SOPE   C3620188   6.122   0.647  10.031  0.3540  0.2955  0.5864
  177SOPE   H6X20189   6.195   0.713   9.980 -0.0018 -0.0009 -0.3319
  177SOPE   H6Y20190   6.032   0.710  10.044  0.1614  0.5538 -1.6303
  177SOPE   C3720191   6.095   0.528   9.940  0.2061  0.0014 -0.1219
  177SOPE   H7X20192   6.033   0.451   9.989 -1.5019  1.4357  0.0430
  177SOPE   H7Y20193   6.190   0.471   9.927 -0.7081 -1.6063  0.0492
  177SOPE   C3820194   6.029   0.556   9.807  0.1414 -0.3092 -0.0189
  177SOPE   H8X20195   6.091   0.634   9.758 -0.9935  0.1008 -0.8451
  177SOPE   H8Y20196   5.928   0.602   9.818 -0.7563 -2.2650  0.4251
  177SOPE   C3920197   6.015   0.440   9.714  0.0414  0.1505  0.3600
  177SOPE   H9X20198   5.970   0.360   9.776  1.1914  1.4187  3.0070
  177SOPE   H9Y20199   6.117   0.414   9.680  0.1863  1.4073 -0.2106
  177SOPE  C31020200   5.926   0.463   9.582 -0.3986  0.1612 -0.0014
  177SOPE  H10X20201   5.933   0.569   9.552  1.2294 -0.0887 -0.6131
  177SOPE  H10Y20202   5.820   0.462   9.617 -1.0118 -1.1886 -1.7780
  177SOPE  C31120203   5.961   0.357   9.481  0.0772 -0.3761  0.2107
  177SOPE  H11X20204   5.874   0.366   9.413 -0.7768 -0.2819  1.2921
  177SOPE  H11Y20205   5.954   0.256   9.528 -0.1583 -0.7560 -0.6124
  177SOPE  C31220206   6.094   0.376   9.413 -0.1025 -0.0769  0.1651
  177SOPE  H12X20207   6.172   0.374   9.492 -1.7368  0.8279  1.8800
  177SOPE  H12Y20208   6.101   0.471   9.355  2.6106 -0.4105 -0.1853
  177SOPE  C31320209   6.130   0.265   9.309 -0.1633  0.3120  0.1353
  177SOPE  H13X20210   6.113   0.162   9.346  1.6823 -0.9656 -2.2559
  177SOPE  H13Y20211   6.237   0.273   9.278  0.2071 -0.3871  1.1498
  177SOPE  C31420212   6.046   0.296   9.183  0.1863  0.1264 -0.1820
  177SOPE  H14X20213   5.944   0.324   9.218  0.1962 -0.8658  0.7074
  177SOPE  H14Y20214   6.040   0.200   9.127  0.3644 -1.8444  2.9586
  177SOPE  C31520215   6.110   0.406   9.096  0.3663  0.0677  0.0920
  177SOPE  H15X20216   6.217   0.382   9.079  0.0983 -1.5916  0.5887
  177SOPE  H15Y20217   6.101   0.502   9.150  0.6923  0.0737  0.1386
  177SOPE  C31620218   6.025   0.416   8.962 -0.4380  0.6297 -0.0264
  177SOPE  H16X20219   5.920   0.430   8.996 -0.7033 -0.6725 -0.2599
  177SOPE  H16Y20220   6.042   0.321   8.907  0.8173  0.7976  0.0418
  177SOPE  C31720221   6.078   0.527   8.876 -0.6489 -0.6274  0.7767
  177SOPE  H17X20222   6.183   0.498   8.853 -1.6201 -0.7083 -4.9883
  177SOPE  H17Y20223   6.080   0.622   8.935  0.6776  0.0210 -0.2579
  177SOPE  C31820224   6.007   0.563   8.744  0.0085  0.4695  0.2244
  177SOPE  H18X20225   6.072   0.571   8.654  0.0031  1.1273  0.2704
  177SOPE  H18Y20226   5.946   0.655   8.753  1.7247  1.7813 -0.8306
  177SOPE  H18Z20227   5.944   0.475   8.718  1.6193 -1.6720  3.0468
  178SOPE     N20228   1.952   2.273  10.680 -0.0428  0.2983 -0.8588
  178SOPE   HN120229   1.854   2.249  10.704  0.5020 -1.5330 -0.3643
  178SOPE   HN220230   1.958   2.369  10.720 -2.3456  0.4704 -0.7438
  178SOPE   HN320231   1.963   2.263  10.577  2.4798  1.7622 -0.8217
  178SOPE   C1220232   2.035   2.161  10.748 -0.0183 -0.0284  0.6872
  178SOPE  H12A20233   1.958   2.082  10.766 -1.7083  1.1297 -0.9846
  178SOPE  H12B20234   2.051   2.205  10.848 -2.2616 -0.1070  1.1352
  178SOPE   C1120235   2.164   2.113  10.671 -0.6758 -1.0174 -0.5132
  178SOPE  H11A20236   2.111   2.076  10.581 -1.2807 -1.2807 -0.0543
  178SOPE  H11B20237   2.215   2.031  10.727  0.6576  0.3549  0.3538
  178SOPE     P20238   2.377   2.244  10.739  0.4636 -0.2099  0.5178
  178SOPE   O1320239   2.344   2.179  10.871  0.2177  0.2816  0.1561
  178SOPE   O1420240   2.403   2.386  10.728  0.4502 -0.5461  0.1839
  178SOPE   O1220241   2.260   2.212  10.638 -0.2677 -0.0063 -0.7627
  178SOPE   O1120242   2.499   2.169  10.678  0.3916  0.2239  0.1649
  178SOPE    C120243   2.513   2.138  10.537 -0.6881 -0.2975 -0.5529
  178SOPE    HA20244   2.555   2.225  10.482  2.6475 -0.9666  0.7404
  178SOPE    HB20245   2.414   2.110  10.496 -0.8996 -0.5436  0.1308
  178SOPE    C220246   2.603   2.016  10.515 -0.1673  0.8104  0.5415
  178SOPE    HS20247   2.707   2.048  10.536 -0.3313  2.0535 -0.4085
  178SOPE   O2120248   2.572   1.967  10.380 -0.1316 -0.5925  0.4739
  178SOPE   C2120249   2.645   2.040  10.294  0.2415  0.3462 -0.0044
  178SOPE   O2220250   2.732   2.116  10.326 -0.0221  0.1690  0.2401
  178SOPE   C2220251   2.594   2.010  10.156  0.0231  0.2801  0.8415
  178SOPE   H2R20252   2.491   2.052  10.161 -0.2455 -0.5192  3.2372
  178SOPE   H2S20253   2.591   1.901  10.135  0.3824  0.6176 -1.2499
  178SOPE    C320254   2.571   1.908  10.620 -0.1910  0.2375 -0.4262
  178SOPE    HX20255   2.464   1.877  10.622 -0.3432  0.7132 -0.9493
  178SOPE    HY20256   2.585   1.947  10.723 -1.1244 -0.0859 -0.1667
  178SOPE   O3120257   2.655   1.796  10.583 -0.5005  0.2439 -0.0013
  178SOPE   C3120258   2.598   1.697  10.511 -0.2675  0.7222  0.3977
  178SOPE   O3220259   2.477   1.686  10.497 -0.2934 -0.1217 -0.2262
  178SOPE   C3220260   2.703   1.597  10.465 -0.2851  0.5508  0.5239
  178SOPE   H2X20261   2.766   1.568  10.552 -0.1035  3.0268  1.2926
  178SOPE   H2Y20262   2.783   1.638  10.400  3.4500 -1.7237  3.2588
  178SOPE   C2320263   2.681   2.087  10.054  0.4939 -0.5019  0.9834
  178SOPE   H3R20264   2.791   2.089  10.073  1.0128  1.4010 -1.6117
  178SOPE   H3S20265   2.650   2.194  10.060  2.9105  0.3355 -0.1800
  178SOPE   C2420266   2.662   2.048   9.910  0.2069  0.6869 -0.2966
  178SOPE   H4R20267   2.712   1.949   9.899 -1.3329 -0.9392  4.6000
  178SOPE   H4S20268   2.555   2.044   9.881 -0.0770 -0.9071  0.8516
  178SOPE   C2520269   2.745   2.140   9.814 -0.4668  0.1581 -0.2304
  178SOPE   H5R20270   2.712   2.243   9.839 -0.3150  0.0210  0.5667
  178SOPE   H5S20271   2.852   2.126   9.843 -0.3061 -0.2754 -1.0167
  178SOPE   C2620272   2.732   2.097   9.665 -0.0879  0.5128 -0.5525
  178SOPE   H6R20273   2.762   1.991   9.648  1.3675  0.5843  1.2633
  178SOPE   H6S20274   2.623   2.109   9.652 -0.1749  1.1361  0.6161
  178SOPE   C2720275   2.821   2.182   9.569  0.1160  0.7903  0.8089
  178SOPE   H7R20276   2.793   2.289   9.583  0.4866  0.9440  0.3918
  178SOPE   H7S20277   2.923   2.167   9.610  0.6490 -1.1650 -1.0448
  178SOPE   C2820278   2.828   2.136   9.425 -0.2143 -0.0606 -0.3126
  178SOPE   H8R20279   2.886   2.210   9.367 -0.3823  0.3941  0.0906
  178SOPE   H8S20280   2.887   2.042   9.418  0.8897  0.5699  0.2671
  178SOPE   C2920281   2.692   2.137   9.368  0.2435 -0.0274  0.0323
  178SOPE   H9120282   2.618   2.119   9.446 -0.6301  1.4946 -0.3903
  178SOPE  C21020283   2.659   2.166   9.239 -0.0904 -0.0959 -0.2014
  178SOPE  H10120284   2.559   2.141   9.201 -0.2106 -2.2784  1.3717
  178SOPE  C21120285   2.748   2.209   9.130 -0.6776  0.4791 -0.5505
  178SOPE  H11R20286   2.854   2.218   9.159 -0.7746  1.1680 -0.4009
  178SOPE  H11S20287   2.719   2.310   9.094 -1.3168  0.5576  0.1563
  178SOPE  C21220288   2.727   2.102   9.014 -0.0535 -0.6578  0.5187
  178SOPE  H12R20289   2.758   1.999   9.040  0.4592 -1.2854 -2.2302
  178SOPE  H12S20290   2.800   2.140   8.939  0.7031 -0.8302  1.1612
  178SOPE  C21320291   2.593   2.105   8.933  0.4961 -0.2736  0.4430
  178SOPE  H13R20292   2.534   2.196   8.953  1.6917  0.8402 -0.8771
  178SOPE  H13S20293   2.533   2.017   8.966  0.1635 -1.0133 -1.9062
  178SOPE  C21420294   2.603   2.083   8.777  0.7724  0.5012 -0.1468
  178SOPE  H14R20295   2.673   1.999   8.758 -0.4253 -0.4257 -0.5991
  178SOPE  H14S20296   2.651   2.168   8.723  3.7416 -2.1495 -2.0352
  178SOPE  C21520297   2.465   2.059   8.714 -0.1734 -0.2294  0.5070
  178SOPE  H15R20298   2.482   2.056   8.605 -0.1325  1.8235  0.4257
  178SOPE  H15S20299   2.406   2.151   8.731  0.1151  0.0066  0.2395
  178SOPE  C21620300   2.381   1.938   8.764  0.4233  0.4266 -0.8816
  178SOPE  H16R20301   2.355   1.951   8.872  2.3950 -1.1163 -0.1532
  178SOPE  H16S20302   2.446   1.851   8.742  0.4596  0.9100 -2.8083
  178SOPE  C21720303   2.248   1.918   8.693  0.3036  0.0342 -0.4088
  178SOPE  H17R20304   2.272   1.920   8.584 -0.8461  0.3221 -0.6669
  178SOPE  H17S20305   2.169   1.996   8.700 -0.7679 -0.9940 -0.8226
  178SOPE  C21820306   2.182   1.784   8.735 -0.8391 -0.2914 -0.0010
  178SOPE  H18R20307   2.254   1.702   8.714 -1.8819 -1.1227 -0.3777
  178SOPE  H18S20308   2.096   1.778   8.665 -1.1402 -0.0929  0.3477
  178SOPE  H18T20309   2.149   1.783   8.841 -3.2269  2.2172 -0.6080
  178SOPE   C3320310   2.625   1.485  10.393  0.4976 -0.5381 -0.2092
  178SOPE   H3X20311   2.530   1.454  10.443  0.1903 -1.2072 -1.1682
  178SOPE   H3Y20312   2.693   1.398  10.404 -0.3512 -0.9080  3.1487
  178SOPE   C3420313   2.607   1.519  10.242  0.4235 -0.2327 -0.0264
  178SOPE   H4X20314   2.702   1.558  10.201 -0.1829 -0.1108 -1.3809
  178SOPE   H4Y20315   2.536   1.600  10.214  3.8183  2.2822 -2.1506
  178SOPE   C3520316   2.572   1.393  10.154 -0.8411 -0.9454  0.2241
  178SOPE   H5X20317   2.479   1.361  10.204 -1.0666  0.9118  1.0869
  178SOPE   H5Y20318   2.658   1.323  10.164  1.1067  1.4341  1.1146
  178SOPE   C3620319   2.547   1.425  10.011 -0.0078  0.1616 -0.5100
  178SOPE   H6X20320   2.637   1.461   9.957 -0.3631 -1.2774 -2.1543
  178SOPE   H6Y20321   2.468   1.502   9.999  0.2036  0.0482 -3.1465
  178SOPE   C3720322   2.501   1.300   9.932  0.0890 -0.5999 -0.7877
  178SOPE   H7X20323   2.406   1.264   9.977  1.4508 -1.6312  1.4525
  178SOPE   H7Y20324   2.583   1.226   9.945  0.5995  0.3851  2.8087
  178SOPE   C3820325   2.488   1.324   9.778  0.1171 -0.2254  0.3027
  178SOPE   H8X20326   2.430   1.418   9.777 -3.1962 -2.1153  0.9942
  178SOPE   H8Y20327   2.435   1.237   9.735 -0.3855  0.5587 -0.6945
  178SOPE   C3920328   2.617   1.351   9.703 -0.3960 -0.3237 -0.4862
  178SOPE   H9X20329   2.693   1.275   9.733 -1.2759 -1.1146 -0.2027
  178SOPE   H9Y20330   2.666   1.441   9.746 -1.9629 -0.3840  1.5645
  178SOPE  C31020331   2.602   1.358   9.545  0.7901 -0.7524 -0.4284
  178SOPE  H10X20332   2.594   1.466   9.524 -1.0849 -0.1177  2.8814
  178SOPE  H10Y20333   2.502   1.317   9.520 -0.7001  1.4564  1.4875
  178SOPE  C31120334   2.715   1.286   9.480 -0.9760  0.5109  0.0771
  178SOPE  H11X20335   2.722   1.181   9.515  1.1516  0.1485 -1.2739
  178SOPE  H11Y20336   2.810   1.333   9.514 -0.2988 -1.4682  1.0838
  178SOPE  C31220337   2.705   1.281   9.328  0.4943  0.5362  0.6793
  178SOPE  H12X20338   2.687   1.380   9.281 -2.6726 -0.5681 -0.6948
  178SOPE  H12Y20339   2.616   1.216   9.318  0.8327  0.2580 -0.6243
  178SOPE  C31320340   2.808   1.207   9.237 -0.4330  0.4139  0.0813
  178SOPE  H13X20341   2.836   1.108   9.278  0.5558  0.3157 -0.7670
  178SOPE  H13Y20342   2.900   1.269   9.226  0.6660 -1.4030 -1.7506
  178SOPE  C31420343   2.745   1.180   9.100 -1.2319 -0.4519  0.6983
  178SOPE  H14X20344   2.715   1.278   9.056  2.4188  0.6315  0.3243
  178SOPE  H14Y20345   2.653   1.120   9.118 -1.2517 -0.8710 -0.7442
  178SOPE  C31520346   2.841   1.108   9.007  0.5480  0.1122 -0.2739
  178SOPE  H15X20347   2.870   1.006   9.042 -0.9485 -1.1789 -2.5157
  178SOPE  H15Y20348   2.932   1.172   9.000  0.0911  1.0364  1.5310
  178SOPE  C31620349   2.785   1.084   8.868 -0.4464 -0.1591 -0.6422
  178SOPE  H16X20350   2.765   1.185   8.824 -0.0730  1.0530  1.8124
  178SOPE  H16Y20351   2.692   1.025   8.885 -1.5406  1.7838  0.4749
  178SOPE  C31720352   2.884   0.994   8.786  0.2171  0.6544  0.0215
  178SOPE  H17X20353   2.911   0.894   8.825  0.8060  0.4004 -0.9863
  178SOPE  H17Y20354   2.980   1.049   8.782  0.5594  0.0162 -1.0576
  178SOPE  C31820355   2.846   0.973   8.648 -0.0950  0.1351  0.2786
  178SOPE  H18X20356   2.909   0.894   8.601 -0.7792  0.8936 -2.0404
  178SOPE  H18Y20357   2.840   1.068   8.591  1.6088  0.5283  0.7154
  178SOPE  H18Z20358   2.746   0.924   8.646 -0.0334 -0.2001  2.6847
  179SOPE     N20359   2.314   0.236   6.358  0.2396  0.9058  0.6684
  179SOPE   HN120360   2.338   0.220   6.258 -1.9488  0.6959  0.1380
  179SOPE   HN220361   2.255   0.158   6.393  0.0466  1.0287  0.6150
  179SOPE   HN320362   2.268   0.328   6.377 -1.7184  0.3591 -1.1200
  179SOPE   C1220363   2.435   0.244   6.446  0.1489  0.0093  0.1962
  179SOPE  H12A20364   2.500   0.155   6.434  0.9146  0.5507  0.1907
  179SOPE  H12B20365   2.412   0.240   6.555  0.2294  4.2447  0.5532
  179SOPE   C1120366   2.513   0.373   6.428  0.1388 -0.6053 -0.4005
  179SOPE  H11A20367   2.586   0.378   6.512  0.2311  1.4572 -0.5753
  179SOPE  H11B20368   2.435   0.446   6.456  0.5956 -0.8019  1.5404
  179SOPE     P20369   2.717   0.330   6.272  0.1569  0.2824 -0.0561
  179SOPE   O1320370   2.761   0.373   6.142 -0.3007 -0.9422  0.7242
  179SOPE   O1420371   2.712   0.187   6.292  0.0269  0.5013 -0.7401
  179SOPE   O1220372   2.577   0.394   6.298  0.0204  0.2449  0.2961
  179SOPE   O1120373   2.809   0.389   6.387 -0.3258  0.0871  0.2063
  179SOPE    C120374   2.871   0.517   6.372  0.4973  0.2918 -0.0397
  179SOPE    HA20375   2.847   0.579   6.283  1.6025  0.5301 -0.1873
  179SOPE    HB20376   2.980   0.505   6.390  0.4694 -2.8873 -1.3391
  179SOPE    C220377   2.826   0.611   6.492  0.2243  0.1230 -0.0009
  179SOPE    HS20378   2.897   0.695   6.504 -1.1676  1.7506 -2.3623
  179SOPE   O2120379   2.800   0.545   6.611  0.3412  0.3270  0.5136
  179SOPE   C2120380   2.909   0.526   6.684  0.1916  0.5655  0.0609
  179SOPE   O2220381   3.019   0.568   6.656  0.3996  0.5271 -0.1152
  179SOPE   C2220382   2.888   0.436   6.800  0.1894 -0.0639 -0.0894
  179SOPE   H2R20383   2.990   0.439   6.844 -0.3099 -4.2981  1.8614
  179SOPE   H2S20384   2.881   0.328   6.776 -0.5136 -0.1321  0.3889
  179SOPE    C320385   2.702   0.681   6.454  0.6227 -0.5147  0.3338
  179SOPE    HX20386   2.611   0.621   6.435  0.1658  0.5021 -0.8293
  179SOPE    HY20387   2.722   0.739   6.361  1.0253  0.7534  1.1789
  179SOPE   O3120388   2.685   0.786   6.558 -0.2977 -0.8987 -0.0519
  179SOPE   C3120389   2.572   0.784   6.633  0.2714  0.5876 -0.3451
  179SOPE   O3220390   2.484   0.698   6.629  0.4280 -0.1100  0.6804
  179SOPE   C3220391   2.576   0.893   6.738 -0.0639  0.2943  0.2673
  179SOPE   H2X20392   2.472   0.916   6.767 -0.2909 -0.0733 -0.2458
  179SOPE   H2Y20393   2.620   0.981   6.686  0.9536  0.3123  1.1198
  179SOPE   C2320394   2.790   0.474   6.911  0.0338 -0.1203  0.8017
  179SOPE   H3R20395   2.809   0.579   6.942 -1.3047  0.5721 -0.6016
  179SOPE   H3S20396   2.812   0.412   7.001  1.4675  1.3191  1.5130
  179SOPE   C2420397   2.645   0.451   6.875 -0.4578  0.3406  0.3471
  179SOPE   H4R20398   2.609   0.538   6.817  0.2802  0.0951 -0.5013
  179SOPE   H4S20399   2.629   0.356   6.819 -1.7916  0.1485  1.0109
  179SOPE   C2520400   2.550   0.436   6.996 -0.1165 -0.2048 -0.6828
  179SOPE   H5R20401   2.451   0.399   6.961 -0.3315 -1.5901  1.2659
  179SOPE   H5S20402   2.581   0.364   7.074 -1.9694 -0.7787 -0.4200
  179SOPE   C2620403   2.540   0.572   7.077 -0.1101  0.0832  0.2980
  179SOPE   H6R20404   2.643   0.613   7.075 -0.2037  0.2982 -0.1693
  179SOPE   H6S20405   2.470   0.640   7.024  1.7171  0.1838 -2.1240
  179SOPE   C2720406   2.486   0.543   7.214 -0.0435  0.8685  0.4230
  179SOPE   H7R20407   2.555   0.467   7.257 -0.6065 -0.1244 -0.3952
  179SOPE   H7S20408   2.503   0.636   7.272  2.2024 -0.2504  1.7105
  179SOPE   C2820409   2.343   0.489   7.222  0.0493 -0.0115 -0.5035
  179SOPE   H8R20410   2.287   0.574   7.176 -0.2991 -0.8112 -1.5890
  179SOPE   H8S20411   2.331   0.404   7.152  0.7753 -1.0041  0.5443
  179SOPE   C2920412   2.314   0.451   7.360 -0.0577  0.1821 -0.0553
  179SOPE   H9120413   2.286   0.528   7.433 -1.7293 -1.1824  0.8222
  179SOPE  C21020414   2.326   0.327   7.413  0.5338  0.2815  0.4842
  179SOPE  H10120415   2.310   0.320   7.522 -0.6772  2.0908  0.4670
  179SOPE  C21120416   2.353   0.198   7.331  0.0575 -0.2428  0.7610
  179SOPE  H11R20417   2.316   0.212   7.227 -2.0439 -1.0228  1.3705
  179SOPE  H11S20418   2.289   0.119   7.374  0.2324 -1.1190 -0.5395
  179SOPE  C21220419   2.497   0.153   7.330 -0.0515 -0.1771 -0.1631
  179SOPE  H12R20420   2.560   0.223   7.271  1.6677 -0.3841  1.3527
  179SOPE  H12S20421   2.520   0.056   7.280  0.5594  0.2285 -0.6812
  179SOPE  C21320422   2.560   0.142   7.472  0.0817  0.0830  0.0148
  179SOPE  H13R20423   2.588   0.244   7.506  0.2163  0.2820 -0.6894
  179SOPE  H13S20424   2.654   0.084   7.457 -0.3365 -0.2404 -1.5290
  179SOPE  C21420425   2.482   0.065   7.579 -0.3235 -0.7641  0.8402
  179SOPE  H14R20426   2.543  -0.022   7.612  0.9280 -0.9831 -1.8120
  179SOPE  H14S20427   2.392   0.030   7.523  0.0631  2.6984 -2.3736
  179SOPE  C21520428   2.450   0.144   7.711  0.1583 -0.1225  1.1617
  179SOPE  H15R20429   2.373   0.086   7.767 -1.4695  0.7944 -0.0286
  179SOPE  H15S20430   2.400   0.239   7.685 -0.2246 -0.9053 -1.2795
  179SOPE  C21620431   2.569   0.182   7.793 -0.8275  0.2303  0.9216
  179SOPE  H16R20432   2.618   0.268   7.743  0.4219 -0.7036  0.5158
  179SOPE  H16S20433   2.632   0.091   7.799 -1.0961 -0.1459 -1.1030
  179SOPE  C21720434   2.520   0.238   7.927  0.1040  0.2155 -0.5562
  179SOPE  H17R20435   2.525   0.159   8.005  2.4216  0.2734 -0.5718
  179SOPE  H17S20436   2.417   0.278   7.925  0.2280  0.6958  1.0488
  179SOPE  C21820437   2.595   0.359   7.990 -0.1229  0.3521  0.9207
  179SOPE  H18R20438   2.703   0.343   7.971 -0.5239 -1.0505 -0.3815
  179SOPE  H18S20439   2.577   0.360   8.100 -0.6719 -0.6026  0.8532
  179SOPE  H18T20440   2.557   0.449   7.937 -2.4425 -0.6107  0.8248
  179SOPE   C3320441   2.657   0.860   6.862  0.5114 -0.2021 -0.9181
  179SOPE   H3X20442   2.763   0.833   6.840  0.6395 -0.3949 -0.1088
  179SOPE   H3Y20443   2.606   0.781   6.921  1.1097  0.1564  0.1120
  179SOPE   C3420444   2.659   0.974   6.960 -0.9573 -0.1038  0.5458
  179SOPE   H4X20445   2.559   1.014   6.987 -1.3156 -1.8080  1.9951
  179SOPE   H4Y20446   2.712   1.058   6.910  2.2854 -1.0984  2.0449
  179SOPE   C3520447   2.727   0.929   7.089 -0.3513 -0.8547 -0.4988
  179SOPE   H5X20448   2.838   0.928   7.078 -0.0413 -0.2889  1.9152
  179SOPE   H5Y20449   2.689   0.827   7.113  0.7022 -1.1580 -0.0693
  179SOPE   C3620450   2.698   1.025   7.204 -0.5446  0.2767 -0.1341
  179SOPE   H6X20451   2.590   1.041   7.226 -0.7539  1.3775 -1.7885
  179SOPE   H6Y20452   2.743   1.123   7.177  0.9237  0.2508  1.9715
  179SOPE   C3720453   2.775   0.988   7.334  0.7497 -0.7623  0.6131
  179SOPE   H7X20454   2.784   1.080   7.396  1.2353  0.1481 -0.7597
  179SOPE   H7Y20455   2.881   0.968   7.305  0.5983  0.6675 -1.0904
  179SOPE   C3820456   2.721   0.868   7.406 -0.5541  0.6181 -0.2341
  179SOPE   H8X20457   2.797   0.865   7.486  0.2903  1.2264 -0.9934
  179SOPE   H8Y20458   2.720   0.782   7.336 -2.1694 -0.5363  1.1233
  179SOPE   C3920459   2.580   0.896   7.471  0.1603  0.4008  0.2331
  179SOPE   H9X20460   2.501   0.897   7.393  0.9390 -1.5066 -0.6409
  179SOPE   H9Y20461   2.575   0.991   7.529  1.6247 -0.0600  1.1637
  179SOPE  C31020462   2.555   0.774   7.563 -0.6163 -0.2490 -0.5457
  179SOPE  H10X20463   2.612   0.783   7.659  0.3425 -0.1514 -1.1147
  179SOPE  H10Y20464   2.583   0.682   7.508  2.0728  0.2050 -0.0932
  179SOPE  C31120465   2.404   0.765   7.597 -0.7450 -0.3063  0.1999
  179SOPE  H11X20466   2.353   0.756   7.499 -2.1091 -0.6849  0.9310
  179SOPE  H11Y20467   2.377   0.862   7.645 -1.3807 -0.5381  0.3192
  179SOPE  C31220468   2.362   0.654   7.694 -0.6006  0.6176 -0.5455
  179SOPE  H12X20469   2.409   0.678   7.792 -2.1522  1.3755  0.0523
  179SOPE  H12Y20470   2.389   0.549   7.669 -0.0821  0.3944  0.8357
  179SOPE  C31320471   2.208   0.653   7.723  0.5370  0.2687 -0.5543
  179SOPE  H13X20472   2.152   0.635   7.629  1.8729  0.2649 -1.3830
  179SOPE  H13Y20473   2.177   0.755   7.755  0.7807  0.5182 -1.1020
  179SOPE  C31420474   2.157   0.541   7.821 -0.6555 -0.4955  0.3936
  179SOPE  H14X20475   2.178   0.441   7.778  0.6960 -0.6141  1.2804
  179SOPE  H14Y20476   2.047   0.555   7.827 -0.7631  1.8242 -3.6248
  179SOPE  C31520477   2.213   0.544   7.966  0.3294 -0.4611 -0.0286
  179SOPE  H15X20478   2.322   0.565   7.960  0.5216 -0.6297  2.0664
  179SOPE  H15Y20479   2.191   0.439   7.997 -0.9954 -0.6489 -1.4883
  179SOPE  C31620480   2.149   0.646   8.065  0.4719 -0.0831  0.2732
  179SOPE  H16X20481   2.043   0.614   8.071  0.2067  0.8829  1.1924
  179SOPE  H16Y20482   2.146   0.747   8.019  0.6877 -1.0111 -1.8806
  179SOPE  C31720483   2.213   0.624   8.209  0.0213  0.4822  0.3303
  179SOPE  H17X20484   2.316   0.584   8.201 -0.1398  0.0918  0.2143
  179SOPE  H17Y20485   2.144   0.552   8.259  1.7373 -0.3807  1.5293
  179SOPE  C31820486   2.221   0.748   8.302 -0.1060 -0.1870  0.7375
  179SOPE  H18X20487   2.284   0.828   8.258  0.2554 -0.5462  0.5958
  179SOPE  H18Y20488   2.267   0.740   8.402 -0.4763  1.5451  1.0828
  179SOPE  H18Z20489   2.122   0.789   8.332  0.4010 -0.5478  3.1248
  180SOPE     N20490   2.507   6.067   6.555 -0.3894 -0.1116 -0.0789
  180SOPE   HN120491   2.449   6.148   6.585 -1.1076  0.0448 -1.7745
  180SOPE   HN220492   2.458   6.033   6.470  0.7526 -0.1845 -0.7117
  180SOPE   HN320493   2.497   5.986   6.620 -1.6495 -0.5500 -0.7675
  180SOPE   C1220494   2.651   6.104   6.532  0.2334  1.0836  0.0627
  180SOPE  H12A20495   2.715   6.013   6.526 -0.4616  0.5923 -0.0071
  180SOPE  H12B20496   2.681   6.178   6.610  0.2647  0.3560  0.7505
  180SOPE   C1120497   2.655   6.168   6.390  0.1481  0.3084  0.4200
  180SOPE  H11A20498   2.656   6.084   6.317 -0.7502  1.0817 -0.5125
  180SOPE  H11B20499   2.753   6.218   6.375 -0.0222  0.8524  1.0607
  180SOPE     P20500   2.558   6.412   6.419 -0.4450  0.0144 -0.1874
  180SOPE   O1320501   2.420   6.454   6.448 -0.0644 -0.6207 -0.3752
  180SOPE   O1420502   2.628   6.491   6.317  0.0976  0.0743 -0.0627
  180SOPE   O1220503   2.547   6.262   6.370 -0.9518  0.3105 -0.2104
  180SOPE   O1120504   2.639   6.406   6.555 -0.2518 -0.2537 -0.0093
  180SOPE    C120505   2.624   6.515   6.645  0.1529  0.0020  0.5153
  180SOPE    HA20506   2.525   6.536   6.690  1.0365  4.2298  0.9077
  180SOPE    HB20507   2.667   6.605   6.595  2.6923 -0.9124  0.8830
  180SOPE    C220508   2.733   6.495   6.756 -0.4731 -0.6218 -0.2112
  180SOPE    HS20509   2.827   6.486   6.697 -0.6580  0.0774 -0.6302
  180SOPE   O2120510   2.713   6.378   6.839  0.5619 -0.1305  0.4108
  180SOPE   C2120511   2.823   6.336   6.894  0.4526  0.2784  0.2700
  180SOPE   O2220512   2.927   6.403   6.907  0.1823  0.2775 -0.0880
  180SOPE   C2220513   2.793   6.197   6.950  0.2741  0.7052 -0.1872
  180SOPE   H2R20514   2.827   6.127   6.870  2.4237  1.2051  0.2339
  180SOPE   H2S20515   2.683   6.188   6.962  0.5754 -3.5179  1.2176
  180SOPE    C320516   2.734   6.625   6.842 -0.3466  0.7498  0.2788
  180SOPE    HX20517   2.805   6.695   6.794 -0.3484  1.6033  1.4901
  180SOPE    HY20518   2.788   6.602   6.936  3.6110  0.8298 -1.7860
  180SOPE   O3120519   2.604   6.674   6.875  0.5132  0.1103 -0.5744
  180SOPE   C3120520   2.556   6.786   6.816  0.2688 -0.0618  0.0700
  180SOPE   O3220521   2.617   6.847   6.732 -0.0794  0.0409  0.2483
  180SOPE   C3220522   2.425   6.831   6.881  0.4188  1.0617 -1.2066
  180SOPE   H2X20523   2.438   6.845   6.991 -0.7102 -1.1520 -0.7287
  180SOPE   H2Y20524   2.358   6.744   6.864 -0.5201  1.2452  1.1747
  180SOPE   C2320525   2.879   6.146   7.069  0.9367 -0.1641  0.1002
  180SOPE   H3R20526   2.987   6.171   7.058  0.9068  0.5223  1.1843
  180SOPE   H3S20527   2.861   6.037   7.079 -0.5267 -0.2909 -2.7971
  180SOPE   C2420528   2.841   6.215   7.203  0.0220  0.4261  0.1040
  180SOPE   H4R20529   2.878   6.319   7.209  0.3610  0.3145  0.0286
  180SOPE   H4S20530   2.732   6.212   7.223 -0.0384  0.5652 -0.2036
  180SOPE   C2520531   2.911   6.131   7.317  0.8355 -0.3472 -0.3673
  180SOPE   H5R20532   2.855   6.036   7.304 -1.5232  0.7981  0.8312
  180SOPE   H5S20533   3.016   6.107   7.291  0.5053 -1.6291 -0.5996
  180SOPE   C2620534   2.886   6.179   7.460  0.6500  0.6647  0.4818
  180SOPE   H6R20535   2.775   6.183   7.467  0.5629  0.0126 -0.2875
  180SOPE   H6S20536   2.924   6.109   7.537 -0.7256  2.6638  3.1444
  180SOPE   C2720537   2.967   6.306   7.503  0.3701 -0.8259  0.2021
  180SOPE   H7R20538   3.065   6.302   7.451  1.1705  1.7841  1.3478
  180SOPE   H7S20539   2.916   6.396   7.462 -1.5193 -0.7310  2.5553
  180SOPE   C2820540   2.993   6.332   7.648 -0.4828  0.0520 -0.5545
  180SOPE   H8R20541   3.044   6.249   7.701  1.1990  2.2782  1.5608
  180SOPE   H8S20542   3.050   6.426   7.665 -0.8648  0.5211 -1.7592
  180SOPE   C2920543   2.869   6.370   7.716  0.3587 -0.1946 -0.3159
  180SOPE   H9120544   2.799   6.431   7.656  0.6151 -0.1705 -0.5948
  180SOPE  C21020545   2.843   6.372   7.856  0.0714  0.8289  0.9621
  180SOPE  H10120546   2.746   6.415   7.887  0.0128  0.6576  1.0205
  180SOPE  C21120547   2.934   6.322   7.968  0.0686 -0.4072  0.4325
  180SOPE  H11R20548   2.969   6.414   8.019 -0.6592 -0.1953  0.5615
  180SOPE  H11S20549   3.026   6.272   7.930 -1.0839 -2.1464 -0.1953
  180SOPE  C21220550   2.861   6.232   8.070 -0.4326  0.3198  0.0857
  180SOPE  H12R20551   2.921   6.223   8.162 -0.9524 -0.5048  0.3565
  180SOPE  H12S20552   2.841   6.134   8.021 -0.2407  0.3974 -0.1480
  180SOPE  C21320553   2.735   6.297   8.133 -0.3808  0.0473 -0.6339
  180SOPE  H13R20554   2.687   6.221   8.198 -1.5604  0.5499 -0.8942
  180SOPE  H13S20555   2.664   6.315   8.050 -0.1795 -0.2415 -0.8709
  180SOPE  C21420556   2.764   6.420   8.214 -0.2464  0.0315  0.4678
  180SOPE  H14R20557   2.789   6.494   8.134 -0.7414 -1.4413 -1.1254
  180SOPE  H14S20558   2.852   6.407   8.280 -1.2036 -2.0727  1.4177
  180SOPE  C21520559   2.636   6.470   8.298  0.1079 -0.1598  0.1617
  180SOPE  H15R20560   2.635   6.403   8.386 -0.8628 -0.5460 -0.1303
  180SOPE  H15S20561   2.546   6.467   8.232  0.5655  2.1556 -0.6540
  180SOPE  C21620562   2.659   6.606   8.362 -0.0247 -0.3154  0.2930
  180SOPE  H16R20563   2.675   6.688   8.289 -0.2188  0.5414  1.1852
  180SOPE  H16S20564   2.760   6.593   8.405  0.1861 -0.8088 -0.3337
  180SOPE  C21720565   2.553   6.663   8.460 -0.9048 -0.1703  0.3431
  180SOPE  H17R20566   2.498   6.594   8.527  0.3058  1.5653  3.3009
  180SOPE  H17S20567   2.477   6.719   8.400  0.6172  0.9007 -0.6693
  180SOPE  C21820568   2.598   6.780   8.552  0.2017  0.6457 -0.7231
  180SOPE  H18R20569   2.659   6.863   8.512 -1.1262  2.4407  0.7991
  180SOPE  H18S20570   2.659   6.724   8.626  0.8528  3.2734  0.8731
  180SOPE  H18T20571   2.509   6.824   8.603  0.3503  0.1097  0.0271
  180SOPE   C3320572   2.361   6.955   6.822  0.8031 -0.7696 -0.2658
  180SOPE   H3X20573   2.363   6.940   6.712 -0.6201  0.7871 -0.5407
  180SOPE   H3Y20574   2.416   7.050   6.842  2.5798 -1.4540 -1.6032
  180SOPE   C3420575   2.218   6.977   6.872 -0.0532 -0.1804  0.4624
  180SOPE   H4X20576   2.225   6.972   6.982  1.0194 -2.1633  0.3538
  180SOPE   H4Y20577   2.160   6.891   6.830  0.8045 -0.8344  0.5919
  180SOPE   C3520578   2.141   7.098   6.822 -0.1552 -0.6524 -0.0787
  180SOPE   H5X20579   2.102   7.071   6.722  1.0634 -0.1655 -0.7116
  180SOPE   H5Y20580   2.206   7.188   6.809 -0.6897 -0.4568 -1.4860
  180SOPE   C3620581   2.018   7.137   6.908  0.9529 -0.4246 -0.5209
  180SOPE   H6X20582   1.940   7.058   6.904  2.1138 -1.9725  2.8202
  180SOPE   H6Y20583   1.969   7.232   6.877 -3.9428 -3.3221 -2.9942
  180SOPE   C3720584   2.032   7.133   7.063  0.3209 -0.3054 -0.1355
  180SOPE   H7X20585   2.116   7.201   7.089 -0.2736  1.5542 -2.6756
  180SOPE   H7Y20586   2.062   7.031   7.095  1.7411  0.7744  2.1839
  180SOPE   C3820587   1.910   7.179   7.136 -0.3615  0.4673  0.1681
  180SOPE   H8X20588   1.841   7.093   7.136  1.2526 -0.9029 -1.2368
  180SOPE   H8Y20589   1.860   7.259   7.076  0.6193  0.8699 -0.1415
  180SOPE   C3920590   1.926   7.224   7.289 -0.4086  0.3803  0.5821
  180SOPE   H9X20591   1.959   7.329   7.274  0.8257 -0.0943 -0.1076
  180SOPE   H9Y20592   2.007   7.178   7.349 -0.4187 -0.1548  0.1883
  180SOPE  C31020593   1.796   7.214   7.365  0.3480 -1.2407  0.0067
  180SOPE  H10X20594   1.745   7.115   7.361 -1.2293 -0.4374 -2.9713
  180SOPE  H10Y20595   1.725   7.281   7.310  1.7037  1.5563  1.4561
  180SOPE  C31120596   1.802   7.248   7.511  0.8163  0.7733 -0.3306
  180SOPE  H11X20597   1.848   7.346   7.535  0.8697  0.5496  0.5411
  180SOPE  H11Y20598   1.866   7.174   7.564 -0.6363 -0.4119 -0.1760
  180SOPE  C31220599   1.656   7.256   7.575 -0.5443  0.0528 -0.3141
  180SOPE  H12X20600   1.599   7.162   7.558  3.8867 -2.7309 -1.4717
  180SOPE  H12Y20601   1.603   7.325   7.506 -0.6482  0.1353 -0.1515
  180SOPE  C31320602   1.646   7.324   7.719 -0.1722  0.4746 -0.0124
  180SOPE  H13X20603   1.540   7.338   7.747 -0.3698 -1.2865  0.2377
  180SOPE  H13Y20604   1.704   7.419   7.714  1.4620 -0.5057 -0.5446
  180SOPE  C31420605   1.709   7.233   7.829  0.0305  0.1872  0.0164
  180SOPE  H14X20606   1.785   7.172   7.777  0.6450  0.2166  0.8531
  180SOPE  H14Y20607   1.634   7.155   7.855 -0.4343 -0.1409 -2.1183
  180SOPE  C31520608   1.758   7.307   7.954 -0.5843  0.5983 -0.3514
  180SOPE  H15X20609   1.820   7.395   7.926 -0.3134  1.1317  1.7253
  180SOPE  H15Y20610   1.811   7.234   8.019 -0.5347  0.8565 -0.1018
  180SOPE  C31620611   1.644   7.371   8.036 -0.0867 -0.9051  0.2856
  180SOPE  H16X20612   1.588   7.286   8.080 -0.1016 -1.3738 -0.6168
  180SOPE  H16Y20613   1.583   7.425   7.959  1.9417  0.3506 -0.5221
  180SOPE  C31720614   1.687   7.474   8.139 -0.1504  0.3521  0.1179
  180SOPE  H17X20615   1.747   7.544   8.077  0.3385 -1.4589 -1.5434
  180SOPE  H17Y20616   1.765   7.421   8.198  0.3166 -0.6413 -1.3477
  180SOPE  C31820617   1.577   7.537   8.225 -0.1816 -0.2572  0.5032
  180SOPE  H18X20618   1.526   7.469   8.297 -0.7599  0.6940  1.0187
  180SOPE  H18Y20619   1.492   7.577   8.167  0.7249  2.2113  0.7458
  180SOPE  H18Z20620   1.621   7.615   8.291  0.2375 -0.6725  0.7231
  181SOPE     N20621   0.361   1.895   6.439  0.5788  0.1525  0.5737
  181SOPE   HN120622   0.407   1.840   6.364  2.8804  1.8780  0.6046
  181SOPE   HN220623   0.422   1.972   6.473 -1.0668  1.2777  1.1072
  181SOPE   HN320624   0.331   1.839   6.521 -0.1612  1.1167  0.9760
  181SOPE   C1220625   0.236   1.955   6.375  0.2764 -0.3088  0.1560
  181SOPE  H12A20626   0.158   1.881   6.405  1.0927 -2.2011 -2.0373
  181SOPE  H12B20627   0.251   1.948   6.265 -0.3207 -2.2432  0.1537
  181SOPE   C1120628   0.213   2.098   6.441 -0.4103  0.3930  1.0049
  181SOPE  H11A20629   0.198   2.072   6.548 -3.1873  0.0461  0.6108
  181SOPE  H11B20630   0.121   2.148   6.405 -0.4939  1.0479  2.0751
  181SOPE     P20631   0.363   2.237   6.295 -0.7722 -0.1161  0.1793
  181SOPE   O1320632   0.245   2.238   6.209 -0.0989  0.2985 -0.0902
  181SOPE   O1420633   0.487   2.184   6.234 -0.0705  0.3174 -0.0513
  181SOPE   O1220634   0.331   2.178   6.428  0.1625 -0.0569  0.1973
  181SOPE   O1120635   0.389   2.391   6.336 -0.7934  0.6112 -0.1898
  181SOPE    C120636   0.471   2.429   6.449 -0.0056 -0.0773  0.3870
  181SOPE    HA20637   0.553   2.489   6.405 -0.5370  0.7396  0.4975
  181SOPE    HB20638   0.522   2.342   6.497  2.0630  0.1256 -1.3161
  181SOPE    C220639   0.392   2.526   6.542 -0.3417  0.5292 -0.3629
  181SOPE    HS20640   0.458   2.564   6.622  1.1754 -2.5210 -0.0208
  181SOPE   O2120641   0.280   2.465   6.612  0.6266  0.3032 -0.0746
  181SOPE   C2120642   0.330   2.376   6.698 -0.1044 -0.0054  0.6550
  181SOPE   O2220643   0.447   2.373   6.737  0.3575 -0.5938 -0.3222
  181SOPE   C2220644   0.219   2.301   6.766 -0.5483  0.3023 -0.3023
  181SOPE   H2R20645   0.231   2.194   6.741  3.4977  0.8217 -1.3212
  181SOPE   H2S20646   0.124   2.326   6.714 -1.6457 -0.6733  1.1454
  181SOPE    C320647   0.331   2.641   6.454  0.3359  0.2110  0.5685
  181SOPE    HX20648   0.290   2.601   6.359 -0.8116 -0.1817  1.2229
  181SOPE    HY20649   0.411   2.713   6.426 -0.7592  1.0814 -0.4224
  181SOPE   O3120650   0.227   2.719   6.525 -0.0424  0.0465  0.0081
  181SOPE   C3120651   0.105   2.692   6.490 -0.1583 -0.0961 -0.4248
  181SOPE   O3220652   0.064   2.610   6.410 -0.2634 -0.2743  0.5592
  181SOPE   C3220653   0.009   2.779   6.576 -0.0921 -0.4027  0.5903
  181SOPE   H2X20654  -0.098   2.754   6.560 -0.2269  1.1651 -1.3409
  181SOPE   H2Y20655   0.028   2.881   6.536 -0.2197 -0.9373 -0.9150
  181SOPE   C2320656   0.215   2.304   6.927 -0.1575  0.8226  0.6292
  181SOPE   H3R20657   0.314   2.267   6.958  0.4897  1.2422 -0.8382
  181SOPE   H3S20658   0.140   2.224   6.943  1.6414 -1.1780 -0.4542
  181SOPE   C2420659   0.190   2.433   6.988 -0.2282  0.8154  0.2962
  181SOPE   H4R20660   0.279   2.500   6.989  0.8873 -0.5610 -0.9951
  181SOPE   H4S20661   0.109   2.487   6.934  1.2514  0.8101 -2.1173
  181SOPE   C2520662   0.155   2.411   7.134 -0.0912 -0.2755 -0.3313
  181SOPE   H5R20663   0.045   2.426   7.147  0.2341 -0.1112  3.0792
  181SOPE   H5S20664   0.187   2.315   7.179  0.4557 -0.6544 -1.4801
  181SOPE   C2620665   0.212   2.519   7.225 -0.3828  0.3916 -0.1492
  181SOPE   H6R20666   0.323   2.518   7.224 -0.3517 -0.6208 -2.4874
  181SOPE   H6S20667   0.185   2.616   7.179  0.1696  0.6625  0.0873
  181SOPE   C2720668   0.146   2.522   7.362 -0.3078 -0.3909 -0.6250
  181SOPE   H7R20669   0.037   2.505   7.348 -0.2471 -0.8244 -0.5826
  181SOPE   H7S20670   0.186   2.440   7.424  0.9507  0.9857  0.4645
  181SOPE   C2820671   0.163   2.641   7.453  0.6042  0.1300 -0.0293
  181SOPE   H8R20672   0.264   2.685   7.441 -0.4019  2.0219 -2.1531
  181SOPE   H8S20673   0.090   2.713   7.412  1.7763  0.5096 -1.5202
  181SOPE   C2920674   0.123   2.616   7.593 -0.5492  0.2599 -0.3464
  181SOPE   H9120675   0.014   2.626   7.606 -0.2883  1.1405  1.5196
  181SOPE  C21020676   0.199   2.586   7.698 -0.9199  0.8802 -0.9829
  181SOPE  H10120677   0.142   2.562   7.790  0.6252 -1.6227 -0.5932
  181SOPE  C21120678   0.346   2.559   7.710  0.4289  0.7143  0.1873
  181SOPE  H11R20679   0.397   2.575   7.612  0.6975 -2.0219 -0.1760
  181SOPE  H11S20680   0.364   2.453   7.736  1.3442  0.2543 -2.0756
  181SOPE  C21220681   0.429   2.648   7.804 -0.5549 -0.7680 -0.1957
  181SOPE  H12R20682   0.416   2.755   7.778 -0.8903 -0.1652  2.1785
  181SOPE  H12S20683   0.533   2.620   7.774  0.7302  1.1543  2.1110
  181SOPE  C21320684   0.417   2.624   7.956 -0.2119  0.4048 -0.5686
  181SOPE  H13R20685   0.513   2.649   8.008 -1.6220 -2.1463  3.7694
  181SOPE  H13S20686   0.395   2.517   7.974  0.4642 -0.0250 -2.1529
  181SOPE  C21420687   0.314   2.723   8.021 -0.0261  0.1825  0.3320
  181SOPE  H14R20688   0.216   2.704   7.973  0.1096 -0.0337  0.1391
  181SOPE  H14S20689   0.347   2.829   8.011  2.4895 -0.7238 -2.4947
  181SOPE  C21520690   0.311   2.695   8.172  1.0673 -0.7004  0.1033
  181SOPE  H15R20691   0.283   2.588   8.180 -1.8924 -0.2597 -2.2813
  181SOPE  H15S20692   0.229   2.740   8.231  0.2172 -0.4238 -1.2358
  181SOPE  C21620693   0.440   2.730   8.249  0.2728  0.9477 -0.2187
  181SOPE  H16R20694   0.467   2.835   8.227  3.8509 -0.0332 -1.3261
  181SOPE  H16S20695   0.525   2.676   8.201 -2.4296 -0.9532 -3.2934
  181SOPE  C21720696   0.427   2.696   8.394  0.3457  0.7388  0.4975
  181SOPE  H17R20697   0.526   2.706   8.443  0.5436 -1.3807  0.6009
  181SOPE  H17S20698   0.398   2.589   8.398 -1.7971  1.1566 -1.4950
  181SOPE  C21820699   0.314   2.762   8.485 -0.3098  0.0556  0.4604
  181SOPE  H18R20700   0.318   2.872   8.472  0.7062  0.8039  5.1836
  181SOPE  H18S20701   0.332   2.745   8.593  1.2651 -0.2835  0.1733
  181SOPE  H18T20702   0.216   2.715   8.460  0.1955 -1.4643  1.2212
  181SOPE   C3320703   0.032   2.759   6.725 -0.0367  0.4656  0.0936
  181SOPE   H3X20704   0.135   2.789   6.754 -0.6891  1.9640  0.9507
  181SOPE   H3Y20705   0.044   2.649   6.736 -0.4644  0.4891  0.8386
  181SOPE   C3420706  -0.086   2.810   6.818  0.3864 -0.6464  0.4908
  181SOPE   H4X20707  -0.182   2.778   6.773  1.3834 -1.0381 -1.4711
  181SOPE   H4Y20708  -0.082   2.921   6.812  3.1170 -0.7559 -2.0090
  181SOPE   C3520709  -0.061   2.772   6.966  0.1592  0.4782  0.6541
  181SOPE   H5X20710   0.039   2.812   6.995  0.6194 -0.3121  0.2210
  181SOPE   H5Y20711  -0.039   2.663   6.971  1.1490  0.5844 -0.8322
  181SOPE   C3620712  -0.163   2.819   7.062  0.9784  0.1179 -0.3313
  181SOPE   H6X20713  -0.261   2.780   7.029  0.9332 -0.3851  0.3715
  181SOPE   H6Y20714  -0.166   2.930   7.050  0.3204  0.1036 -0.3195
  181SOPE   C3720715  -0.131   2.782   7.210  0.0717 -0.3576 -0.1429
  181SOPE   H7X20716  -0.020   2.780   7.215  0.2770  3.8456  1.3449
  181SOPE   H7Y20717  -0.183   2.688   7.237 -1.3383  1.1920  3.0206
  181SOPE   C3820718  -0.176   2.893   7.314 -0.6454  0.0887 -0.3386
  181SOPE   H8X20719  -0.283   2.915   7.293 -0.8391 -1.8465 -1.5971
  181SOPE   H8Y20720  -0.114   2.984   7.296 -1.0339  0.5356  0.5444
  181SOPE   C3920721  -0.182   2.842   7.458 -0.4318 -0.2202  0.1123
  181SOPE   H9X20722  -0.085   2.796   7.484  0.3882  0.4103 -1.6896
  181SOPE   H9Y20723  -0.259   2.764   7.480 -0.8903  0.5839  1.4641
  181SOPE  C31020724  -0.222   2.957   7.558 -0.3120  0.2104 -0.9471
  181SOPE  H10X20725  -0.328   2.987   7.543 -1.2908 -0.5430  3.2084
  181SOPE  H10Y20726  -0.144   3.035   7.542  2.6272 -2.6012 -1.4280
  181SOPE  C31120727  -0.206   2.906   7.708  0.0919  0.1422 -0.0638
  181SOPE  H11X20728  -0.099   2.898   7.735 -0.6952 -2.5238  2.7544
  181SOPE  H11Y20729  -0.260   2.810   7.703 -2.4513  1.5051 -0.9110
  181SOPE  C31220730  -0.266   2.996   7.818 -0.2368  0.2785  0.6665
  181SOPE  H12X20731  -0.367   3.026   7.784  0.3587 -0.2564 -1.7677
  181SOPE  H12Y20732  -0.206   3.084   7.851 -1.5945  0.5284  2.6905
  181SOPE  C31320733  -0.288   2.917   7.949  0.4685 -0.2659  1.2139
  181SOPE  H13X20734  -0.340   2.819   7.943  0.8519 -0.3772 -0.9999
  181SOPE  H13Y20735  -0.355   2.976   8.015  0.2941  0.8037  0.1101
  181SOPE  C31420736  -0.159   2.910   8.032 -0.5192  0.0089  0.5670
  181SOPE  H14X20737  -0.099   3.002   8.018 -1.4383  0.5916  0.3240
  181SOPE  H14Y20738  -0.100   2.821   8.003 -2.7932 -1.2787 -0.3469
  181SOPE  C31520739  -0.190   2.898   8.186 -0.5456  0.2193 -0.4492
  181SOPE  H15X20740  -0.251   2.810   8.213 -1.3907  1.4066  1.7682
  181SOPE  H15Y20741  -0.245   2.992   8.206  0.6356  0.9338 -0.4397
  181SOPE  C31620742  -0.059   2.901   8.273 -0.6422  0.4888 -0.4417
  181SOPE  H16X20743   0.000   2.994   8.258 -1.0224  1.2065  2.0930
  181SOPE  H16Y20744   0.003   2.819   8.231 -3.0198 -0.7933 -1.6327
  181SOPE  C31720745  -0.069   2.883   8.428 -0.4464  0.6983 -0.0051
  181SOPE  H17X20746  -0.141   2.957   8.468 -1.1858  0.5242 -0.9704
  181SOPE  H17Y20747   0.031   2.888   8.477  0.0536 -1.2355 -0.7532
  181SOPE  C31820748  -0.120   2.742   8.464  0.5790  0.3765 -0.4948
  181SOPE  H18X20749  -0.050   2.663   8.430 -2.1855 -2.2216 -0.5946
  181SOPE  H18Y20750  -0.219   2.729   8.415 -1.3638  3.5081  2.1199
  181SOPE  H18Z20751  -0.133   2.727   8.574 -0.7455  1.3047 -0.4954
  182SOPE     N20752   2.425   1.103   6.061  0.2804 -1.0205  0.4274
  182SOPE   HN120753   2.357   1.149   5.997 -0.3880 -1.6461  0.6705
  182SOPE   HN220754   2.390   1.022   6.116  0.3976 -1.0797  0.4148
  182SOPE   HN320755   2.453   1.173   6.133 -1.0554  0.8064 -0.7305
  182SOPE   C1220756   2.554   1.073   5.976 -0.1803 -0.3660 -0.8772
  182SOPE  H12A20757   2.521   1.041   5.875 -0.6991  0.3252 -0.9341
  182SOPE  H12B20758   2.604   0.986   6.023 -2.1125 -1.1951 -0.2255
  182SOPE   C1120759   2.631   1.209   5.959 -0.6583 -0.1174 -0.0357
  182SOPE  H11A20760   2.575   1.288   5.905 -1.8889 -0.0676  1.2376
  182SOPE  H11B20761   2.712   1.201   5.884 -1.2374  1.8285 -0.9188
  182SOPE     P20762   2.805   1.210   6.150 -0.1469  0.2877  0.2363
  182SOPE   O1320763   2.916   1.208   6.052 -0.3698  0.0000 -0.1881
  182SOPE   O1420764   2.775   1.089   6.223  0.2147  0.5803 -0.4656
  182SOPE   O1220765   2.676   1.265   6.085 -0.0536 -0.2160 -0.3479
  182SOPE   O1120766   2.828   1.328   6.247  0.0430 -0.5172  0.2355
  182SOPE    C120767   2.750   1.362   6.362  0.2097 -0.2789 -0.0299
  182SOPE    HA20768   2.642   1.366   6.335 -0.0989 -2.2431  0.7186
  182SOPE    HB20769   2.776   1.466   6.387  0.8636 -0.1304 -1.2373
  182SOPE    C220770   2.783   1.284   6.495  0.0196 -0.4090  1.0262
  182SOPE    HS20771   2.772   1.182   6.454  1.2838  0.5750 -2.0465
  182SOPE   O2120772   2.689   1.317   6.599  0.3145 -0.5750 -0.1734
  182SOPE   C2120773   2.582   1.239   6.605 -0.2672 -0.0272  0.4770
  182SOPE   O2220774   2.565   1.143   6.537  0.0078  0.2165 -0.2723
  182SOPE   C2220775   2.476   1.292   6.705  0.3777  0.5270 -0.7746
  182SOPE   H2R20776   2.446   1.396   6.681  0.8573  0.6185 -0.9923
  182SOPE   H2S20777   2.536   1.293   6.798  3.5411 -1.1653 -2.6254
  182SOPE    C320778   2.929   1.315   6.535 -0.5567  0.2276  0.0021
  182SOPE    HX20779   2.939   1.425   6.540  3.4914  0.0522 -1.2956
  182SOPE    HY20780   3.000   1.278   6.459  0.8060 -0.1614  1.4114
  182SOPE   O3120781   2.959   1.244   6.654 -0.1588  0.0140 -0.5140
  182SOPE   C3120782   2.977   1.324   6.759 -0.0649 -0.0537 -0.1038
  182SOPE   O3220783   2.984   1.444   6.771  0.8169 -0.7801 -0.1802
  182SOPE   C3220784   2.999   1.241   6.877  0.4687 -0.4814 -0.1687
  182SOPE   H2X20785   3.074   1.165   6.848  0.3395 -0.6290 -0.1143
  182SOPE   H2Y20786   2.901   1.192   6.891 -0.2073 -0.0605 -2.8689
  182SOPE   C2320787   2.342   1.201   6.715  0.2723  0.5234 -0.1832
  182SOPE   H3R20788   2.364   1.099   6.753  1.9686  1.3276  1.1235
  182SOPE   H3S20789   2.292   1.205   6.616 -0.3104  2.5715  0.1401
  182SOPE   C2420790   2.243   1.245   6.828 -0.4510  0.2553  0.2712
  182SOPE   H4R20791   2.218   1.350   6.801  0.0200  0.6072  1.1630
  182SOPE   H4S20792   2.156   1.177   6.841  1.1530 -1.5336  2.3187
  182SOPE   C2520793   2.302   1.268   6.970 -0.2111 -0.2096 -1.4894
  182SOPE   H5R20794   2.386   1.197   6.985 -0.7320 -0.5866 -0.1706
  182SOPE   H5S20795   2.336   1.373   6.981 -1.6821  0.2819 -1.4472
  182SOPE   C2620796   2.193   1.237   7.081 -0.7722  0.2943  0.2389
  182SOPE   H6R20797   2.098   1.291   7.065 -0.4385  0.4698 -1.3048
  182SOPE   H6S20798   2.154   1.134   7.076 -0.3021  0.1798 -1.4449
  182SOPE   C2720799   2.258   1.264   7.215 -0.0436  0.8636  0.2351
  182SOPE   H7R20800   2.344   1.194   7.223  1.3360  2.6121  1.3520
  182SOPE   H7S20801   2.306   1.364   7.204  2.2257  0.1181  2.4451
  182SOPE   C2820802   2.174   1.238   7.338  0.6074  0.3114  0.1918
  182SOPE   H8R20803   2.165   1.128   7.347 -0.0807  0.2616 -0.9345
  182SOPE   H8S20804   2.241   1.262   7.424 -1.1235 -0.3493  1.7916
  182SOPE   C2920805   2.037   1.298   7.339  0.4970 -0.0866 -0.3649
  182SOPE   H9120806   1.971   1.276   7.254  0.4004  0.0478 -0.3252
  182SOPE  C21020807   1.984   1.370   7.439 -0.2266  1.0241  0.2257
  182SOPE  H10120808   1.880   1.403   7.420  0.8011  2.3635 -4.4537
  182SOPE  C21120809   2.053   1.389   7.573 -0.0534 -0.5702 -0.7672
  182SOPE  H11R20810   2.082   1.495   7.588 -0.0116 -0.6366 -0.3795
  182SOPE  H11S20811   2.141   1.328   7.604  1.0985  1.4848  0.2599
  182SOPE  C21220812   1.949   1.362   7.682  0.2402 -0.0427 -0.7861
  182SOPE  H12R20813   1.950   1.254   7.711 -1.9743  0.4171  1.3308
  182SOPE  H12S20814   1.844   1.380   7.649 -0.2172 -1.6098 -0.3039
  182SOPE  C21320815   1.965   1.449   7.803  0.0312 -0.4486 -0.4865
  182SOPE  H13R20816   1.939   1.553   7.772  0.9486  0.5085  1.7322
  182SOPE  H13S20817   2.063   1.444   7.855  0.7465  3.0635 -1.1837
  182SOPE  C21420818   1.866   1.416   7.918  0.3015 -0.3349  0.1276
  182SOPE  H14R20819   1.892   1.315   7.958  2.3598 -0.7130 -1.9642
  182SOPE  H14S20820   1.766   1.401   7.873  0.2200  0.3772  0.0722
  182SOPE  C21520821   1.861   1.505   8.043  0.4109 -0.5715  0.1599
  182SOPE  H15R20822   1.845   1.608   8.005 -0.7543 -0.1980  1.6177
  182SOPE  H15S20823   1.961   1.496   8.091  1.9610  2.4145 -2.1415
  182SOPE  C21620824   1.741   1.473   8.143 -0.1540  0.2311  0.1624
  182SOPE  H16R20825   1.783   1.387   8.200  1.6458  0.2762 -1.0089
  182SOPE  H16S20826   1.647   1.432   8.100 -1.5323  2.0174  1.2972
  182SOPE  C21720827   1.714   1.592   8.227 -0.3322 -0.4036 -0.0050
  182SOPE  H17R20828   1.639   1.552   8.298 -0.7289 -1.0171 -0.7568
  182SOPE  H17S20829   1.676   1.679   8.170 -2.2784 -1.2510 -0.0579
  182SOPE  C21820830   1.842   1.634   8.306 -0.6358  0.3734 -0.0456
  182SOPE  H18R20831   1.834   1.737   8.348  3.1415 -0.3855  3.1480
  182SOPE  H18S20832   1.937   1.636   8.248 -0.2395  0.0707  0.5908
  182SOPE  H18T20833   1.858   1.584   8.404  3.6085  3.2108  0.9928
  182SOPE   C3320834   3.052   1.319   6.997 -0.0218  0.3558 -0.4938
  182SOPE   H3X20835   2.988   1.406   7.024  1.1124  1.7817 -2.2122
  182SOPE   H3Y20836   3.152   1.353   6.965 -0.0065 -0.6615 -1.6027
  182SOPE   C3420837   3.081   1.226   7.116 -0.5215 -0.2127 -0.6136
  182SOPE   H4X20838   3.146   1.138   7.099  1.1600  0.5503  1.4315
  182SOPE   H4Y20839   2.987   1.197   7.168 -1.3764  2.9376 -0.1965
  182SOPE   C3520840   3.165   1.306   7.228  0.4472 -0.2092  0.1449
  182SOPE   H5X20841   3.138   1.411   7.252  1.9860  0.1934  0.2193
  182SOPE   H5Y20842   3.269   1.298   7.190  1.0148 -2.6484  1.9675
  182SOPE   C3620843   3.164   1.223   7.356 -0.0643  0.5306  0.1090
  182SOPE   H6X20844   3.268   1.231   7.395 -0.0827  2.2455 -0.1500
  182SOPE   H6Y20845   3.140   1.117   7.334 -1.1146  0.9700 -0.9686
  182SOPE   C3720846   3.066   1.274   7.468  0.2986 -0.0669  0.0389
  182SOPE   H7X20847   2.962   1.241   7.448 -0.0343 -1.3500  3.2823
  182SOPE   H7Y20848   3.055   1.383   7.453 -2.2975 -0.3856 -0.8844
  182SOPE   C3820849   3.114   1.248   7.609  0.1599 -0.2183 -0.0690
  182SOPE   H8X20850   3.068   1.321   7.679  0.9715  1.6425 -1.4169
  182SOPE   H8Y20851   3.223   1.264   7.600  0.0752  0.4791  0.0615
  182SOPE   C3920852   3.095   1.098   7.643 -0.3519  0.1947 -0.3631
  182SOPE   H9X20853   3.158   1.036   7.576 -1.3102  0.1388 -1.2357
  182SOPE   H9Y20854   2.989   1.075   7.620  0.2207 -0.0404 -2.9739
  182SOPE  C31020855   3.126   1.065   7.789  0.5492  0.4475 -1.0734
  182SOPE  H10X20856   3.223   1.114   7.812  0.6768 -0.5698  0.7096
  182SOPE  H10Y20857   3.138   0.955   7.803  0.0188  0.7043  2.0863
  182SOPE  C31120858   3.033   1.120   7.896  0.4587 -0.0017 -0.3583
  182SOPE  H11X20859   2.928   1.089   7.877 -0.0432 -2.2438  4.4651
  182SOPE  H11Y20860   3.027   1.230   7.889  1.0878  0.0756  0.1808
  182SOPE  C31220861   3.049   1.067   8.045 -0.0608 -0.1276  0.5925
  182SOPE  H12X20862   3.031   0.958   8.030  2.7875 -0.6084  0.1297
  182SOPE  H12Y20863   2.978   1.120   8.112  0.1115  2.6865 -1.2963
  182SOPE  C31320864   3.194   1.092   8.100  0.1211 -0.0849 -0.0716
  182SOPE  H13X20865   3.273   1.050   8.035  0.7885  1.2909 -0.1893
  182SOPE  H13Y20866   3.206   1.041   8.198  1.3339  0.1954 -0.0552
  182SOPE  C31420867   3.212   1.244   8.125 -0.2613  0.7880  0.4568
  182SOPE  H14X20868   3.116   1.291   8.152 -1.4584 -0.7571 -0.8926
  182SOPE  H14Y20869   3.237   1.290   8.027 -1.0761 -2.5002 -1.4456
  182SOPE  C31520870   3.330   1.258   8.226  0.9936 -0.2165 -0.4027
  182SOPE  H15X20871   3.396   1.169   8.231 -0.4099 -1.5088 -2.8747
  182SOPE  H15Y20872   3.281   1.260   8.326  1.4817 -1.4009 -0.1180
  182SOPE  C31620873   3.411   1.382   8.200  0.5381 -0.2273 -0.1862
  182SOPE  H16X20874   3.348   1.471   8.219  0.7780  0.0867 -0.8259
  182SOPE  H16Y20875   3.449   1.379   8.095  1.9414 -0.1804  0.2993
  182SOPE  C31720876   3.542   1.387   8.284 -0.1556 -0.1086 -0.3668
  182SOPE  H17X20877   3.594   1.289   8.275 -0.4879 -0.5551  1.8786
  182SOPE  H17Y20878   3.515   1.399   8.391 -0.5223  0.2589 -0.4957
  182SOPE  C31820879   3.642   1.492   8.250 -0.5325 -0.1485 -0.3053
  182SOPE  H18X20880   3.687   1.474   8.151 -0.0149 -0.9201  0.0663
  182SOPE  H18Y20881   3.714   1.507   8.333 -0.3453 -2.7558  0.0743
  182SOPE  H18Z20882   3.589   1.590   8.245 -2.6487 -1.1982  0.3522
  183SOPE     N20883   5.508   5.833   6.531 -0.2959 -0.3115 -0.2205
  183SOPE   HN120884   5.604   5.807   6.502 -0.0890  1.0884 -0.8881
  183SOPE   HN220885   5.488   5.932   6.505  0.0206  0.2192  1.4436
  183SOPE   HN320886   5.526   5.829   6.633  0.8092  1.2448 -0.3214
  183SOPE   C1220887   5.394   5.739   6.500  0.0911 -0.2481  0.3583
  183SOPE  H12A20888   5.372   5.751   6.392  2.4553  0.7595 -0.0764
  183SOPE  H12B20889   5.316   5.779   6.567 -1.9230 -1.1300 -1.3605
  183SOPE   C1120890   5.421   5.599   6.552  0.3704 -0.7502 -0.0604
  183SOPE  H11A20891   5.339   5.530   6.524 -1.1430  0.7375  0.5790
  183SOPE  H11B20892   5.422   5.608   6.663 -0.9234 -1.4511  0.0262
  183SOPE     P20893   5.571   5.485   6.364 -0.2901  0.0927  0.0548
  183SOPE   O1320894   5.709   5.451   6.355 -0.5294  0.6988 -0.6815
  183SOPE   O1420895   5.516   5.577   6.258  0.2804  0.3296 -0.7204
  183SOPE   O1220896   5.551   5.559   6.509 -0.5568  0.3314  0.0009
  183SOPE   O1120897   5.482   5.354   6.383 -0.2034  0.5328 -0.1128
  183SOPE    C120898   5.476   5.274   6.500 -0.1876  0.2465  0.6033
  183SOPE    HA20899   5.451   5.340   6.585  0.6773  1.3595  0.0198
  183SOPE    HB20900   5.576   5.234   6.529  0.0136  0.8614  0.7757
  183SOPE    C220901   5.382   5.152   6.489  0.5471 -0.1886  0.4214
  183SOPE    HS20902   5.426   5.066   6.432 -1.1090 -0.9207  0.1924
  183SOPE   O2120903   5.255   5.194   6.438  0.4530 -0.2513 -0.2345
  183SOPE   C2120904   5.169   5.105   6.406 -0.7466 -0.4968  0.7597
  183SOPE   O2220905   5.192   4.987   6.409  0.6818  0.4285  0.1829
  183SOPE   C2220906   5.037   5.172   6.355 -0.4689  0.0889  0.3047
  183SOPE   H2R20907   4.950   5.129   6.410 -0.6584 -0.3490 -0.3401
  183SOPE   H2S20908   5.029   5.142   6.249  1.7213 -1.0062  0.4016
  183SOPE    C320909   5.357   5.099   6.630 -0.5360  0.3795 -0.2196
  183SOPE    HX20910   5.279   5.020   6.633 -0.4876  0.3454  0.4876
  183SOPE    HY20911   5.328   5.189   6.689 -0.7796  0.4127 -0.3923
  183SOPE   O3120912   5.489   5.066   6.692  0.4039 -0.0181  0.4483
  183SOPE   C3120913   5.534   4.944   6.678 -0.0886 -1.1061  0.5938
  183SOPE   O3220914   5.482   4.861   6.612  0.6459 -0.3210 -0.3056
  183SOPE   C3220915   5.668   4.929   6.750  0.1180 -0.5108 -0.1626
  183SOPE   H2X20916   5.699   5.029   6.789 -1.8737 -0.5814  1.8258
  183SOPE   H2Y20917   5.740   4.888   6.676 -0.8725 -0.8003 -0.9795
  183SOPE   C2320918   5.029   5.330   6.363  0.3994  0.8896  0.8756
  183SOPE   H3R20919   4.943   5.372   6.306  1.7981  2.5716 -0.1130
  183SOPE   H3S20920   5.120   5.361   6.307  0.7018  0.2471  1.0042
  183SOPE   C2420921   5.028   5.379   6.508 -0.3484  0.3508 -0.0868
  183SOPE   H4R20922   4.937   5.338   6.557 -0.7430  0.0758 -1.0323
  183SOPE   H4S20923   5.116   5.342   6.565  1.7943  3.8045 -0.8675
  183SOPE   C2520924   5.028   5.525   6.522  0.3655 -0.4839 -0.4547
  183SOPE   H5R20925   5.120   5.568   6.477  1.3236 -1.7773  0.1908
  183SOPE   H5S20926   4.946   5.572   6.463 -0.0542 -0.4150  0.1668
  183SOPE   C2620927   5.043   5.571   6.664  0.6245  0.5732 -0.1654
  183SOPE   H6R20928   4.973   5.514   6.728  0.6838 -0.1517 -0.7251
  183SOPE   H6S20929   5.145   5.534   6.690 -0.4518  0.0435  3.8275
  183SOPE   C2720930   5.042   5.724   6.682 -0.2376  0.3005 -0.6829
  183SOPE   H7R20931   5.103   5.765   6.598  0.6284 -0.7961 -0.6211
  183SOPE   H7S20932   4.937   5.755   6.667 -1.1842 -1.4626  1.6986
  183SOPE   C2820933   5.087   5.786   6.823 -0.3112 -0.3867  0.0247
  183SOPE   H8R20934   5.073   5.896   6.824 -1.6394 -0.5161 -0.9377
  183SOPE   H8S20935   5.023   5.745   6.904 -0.2387  0.7575  0.6824
  183SOPE   C2920936   5.233   5.769   6.850 -0.1645 -0.0823  0.6166
  183SOPE   H9120937   5.296   5.828   6.782 -1.7639  0.8385 -0.1271
  183SOPE  C21020938   5.277   5.676   6.936  0.2898  0.1576 -0.2702
  183SOPE  H10120939   5.386   5.680   6.952  0.2314  0.3040  0.0917
  183SOPE  C21120940   5.189   5.589   7.025  0.1141  0.5473  0.0546
  183SOPE  H11R20941   5.230   5.486   7.034 -2.7261 -1.0833 -3.1449
  183SOPE  H11S20942   5.098   5.570   6.963 -0.1911  1.2374  0.2776
  183SOPE  C21220943   5.163   5.651   7.158 -0.8002 -0.6399  0.1985
  183SOPE  H12R20944   5.118   5.752   7.161 -0.7807 -0.6589  1.5367
  183SOPE  H12S20945   5.262   5.676   7.203 -1.7535  0.6639  1.6399
  183SOPE  C21320946   5.094   5.558   7.254  0.4397 -0.1707  0.1838
  183SOPE  H13R20947   5.096   5.454   7.213 -1.6739 -0.3168  0.3424
  183SOPE  H13S20948   4.988   5.582   7.274  0.3007  0.7673 -1.5156
  183SOPE  C21420949   5.166   5.553   7.391 -0.2746  0.8145  0.0968
  183SOPE  H14R20950   5.146   5.651   7.439 -1.2599 -0.2862  2.0196
  183SOPE  H14S20951   5.277   5.543   7.383 -0.3835 -0.0437 -0.5929
  183SOPE  C21520952   5.106   5.453   7.502 -0.3067  0.1207 -0.0488
  183SOPE  H15R20953   5.001   5.486   7.518 -1.1430 -2.4838  0.1945
  183SOPE  H15S20954   5.168   5.462   7.593 -1.1854  1.3353  0.4678
  183SOPE  C21620955   5.112   5.305   7.459 -0.9985  0.0229 -0.1345
  183SOPE  H16R20956   5.222   5.286   7.462 -0.7425  0.5196 -3.3270
  183SOPE  H16S20957   5.092   5.281   7.353  3.3564  0.9565 -1.3697
  183SOPE  C21720958   5.042   5.212   7.559  0.8920 -0.2913 -0.1403
  183SOPE  H17R20959   5.065   5.108   7.528 -0.2122 -1.3403  2.3566
  183SOPE  H17S20960   4.936   5.227   7.529  1.1207 -1.1779 -1.4658
  183SOPE  C21820961   5.046   5.230   7.705  1.0956  0.7871  0.2398
  183SOPE  H18R20962   5.140   5.198   7.754  0.4825  0.7369  1.4243
  183SOPE  H18S20963   4.963   5.169   7.748  0.6466  0.0997 -1.5251
  183SOPE  H18T20964   5.030   5.334   7.742 -1.9765 -0.7430  3.9538
  183SOPE   C3320965   5.668   4.828   6.867  0.6457  0.2360  0.7492
  183SOPE   H3X20966   5.624   4.731   6.836  0.5336 -0.4609  2.8807
  183SOPE   H3Y20967   5.596   4.866   6.943 -0.4459  2.7303 -1.4011
  183SOPE   C3420968   5.807   4.816   6.933  0.0585 -0.7188  0.6601
  183SOPE   H4X20969   5.885   4.779   6.865  1.7620  1.8126  1.0772
  183SOPE   H4Y20970   5.788   4.740   7.011  3.0497 -2.2246  0.0602
  183SOPE   C3520971   5.845   4.946   6.995  0.0516  0.1940 -0.4037
  183SOPE   H5X20972   5.761   5.003   7.041 -0.8524 -1.0637 -0.4342
  183SOPE   H5Y20973   5.874   5.004   6.904  2.3516 -1.3964 -0.7504
  183SOPE   C3620974   5.967   4.935   7.089  0.0649 -0.3551 -0.1997
  183SOPE   H6X20975   6.060   4.951   7.029 -0.6712  1.0497 -1.0234
  183SOPE   H6Y20976   5.971   4.842   7.149 -1.9218  0.8636  1.9862
  183SOPE   C3720977   5.983   5.060   7.182  0.2984  0.4079 -0.2361
  183SOPE   H7X20978   5.891   5.070   7.243 -0.8228 -1.9452 -1.3897
  183SOPE   H7Y20979   5.980   5.147   7.113 -2.0079 -0.4670 -1.3543
  183SOPE   C3820980   6.099   5.045   7.275 -1.0288 -0.7428 -0.2910
  183SOPE   H8X20981   6.188   5.043   7.209 -1.1129  0.0687 -0.4434
  183SOPE   H8Y20982   6.085   4.946   7.324 -0.9779 -1.0262 -0.8437
  183SOPE   C3920983   6.109   5.164   7.375 -0.2078 -0.5170 -0.7049
  183SOPE   H9X20984   6.031   5.154   7.454 -0.0243 -0.7092 -0.5476
  183SOPE   H9Y20985   6.106   5.268   7.335  1.6909 -0.2205 -0.1897
  183SOPE  C31020986   6.243   5.167   7.451 -0.0756  0.1782 -0.2350
  183SOPE  H10X20987   6.329   5.213   7.399 -1.8174  0.8858 -2.6827
  183SOPE  H10Y20988   6.270   5.061   7.473  0.7282 -0.2990 -3.0666
  183SOPE  C31120989   6.234   5.253   7.571 -0.1576  0.3362 -0.2235
  183SOPE  H11X20990   6.145   5.222   7.630  2.3045 -2.6927  2.3069
  183SOPE  H11Y20991   6.219   5.358   7.540  0.2475 -0.2979 -2.8583
  183SOPE  C31220992   6.353   5.235   7.667  0.7323 -0.4789 -0.5727
  183SOPE  H12X20993   6.442   5.271   7.612  0.8007  2.0396  1.0440
  183SOPE  H12Y20994   6.361   5.129   7.701  2.9961 -0.0135  0.5282
  183SOPE  C31320995   6.324   5.317   7.798 -0.0507 -0.6445 -0.2768
  183SOPE  H13X20996   6.232   5.269   7.838 -0.0796 -0.5345 -0.2117
  183SOPE  H13Y20997   6.304   5.423   7.771  2.4559 -0.3463 -1.1671
  183SOPE  C31420998   6.435   5.304   7.899  0.6884 -0.3502 -0.1423
  183SOPE  H14X20999   6.528   5.359   7.873  0.6300  0.2888  0.9621
  183SOPE  H14Y21000   6.462   5.199   7.923 -1.7315 -1.0094 -0.0476
  183SOPE  C31521001   6.384   5.350   8.036 -0.3318  0.2005 -0.6752
  183SOPE  H15X21002   6.288   5.300   8.062 -0.6457  1.1228 -0.0006
  183SOPE  H15Y21003   6.372   5.457   8.010  1.3085 -0.2923 -4.0030
  183SOPE  C31621004   6.489   5.321   8.148  0.6192 -0.2847  0.2849
  183SOPE  H16X21005   6.590   5.342   8.107  0.4261  1.6548  0.6884
  183SOPE  H16Y21006   6.501   5.214   8.174 -1.3524 -0.5185  0.3530
  183SOPE  C31721007   6.471   5.393   8.282 -0.3390  0.2472  0.3374
  183SOPE  H17X21008   6.466   5.500   8.251 -0.7977 -0.0495 -0.6472
  183SOPE  H17Y21009   6.563   5.368   8.338  0.8788 -1.1902 -2.1361
  183SOPE  C31821010   6.336   5.356   8.347 -0.4880 -0.3559 -0.6093
  183SOPE  H18X21011   6.351   5.260   8.401  1.9494  0.0716 -0.3774
  183SOPE  H18Y21012   6.247   5.349   8.281 -0.5819  1.1679 -0.6647
  183SOPE  H18Z21013   6.312   5.442   8.412 -1.1180 -1.8945  1.2563
  184SOPE     N21014   3.842   5.417   6.035 -0.1223  0.1855  0.0462
  184SOPE   HN121015   3.894   5.468   5.961  0.8003  1.2252  1.3584
  184SOPE   HN221016   3.768   5.359   5.990 -0.3772  1.9652 -2.0056
  184SOPE   HN321017   3.786   5.486   6.089 -0.7719 -1.2796  1.3525
  184SOPE   C1221018   3.937   5.345   6.133  0.6008 -0.4505 -0.0504
  184SOPE  H12A21019   3.878   5.280   6.201 -0.5532 -0.1787 -0.7750
  184SOPE  H12B21020   3.992   5.421   6.192 -1.0128 -0.1296  1.1079
  184SOPE   C1121021   4.041   5.256   6.047  0.0691  0.8759  0.0543
  184SOPE  H11A21022   4.109   5.324   5.991 -0.5374 -0.4286 -2.4688
  184SOPE  H11B21023   3.980   5.202   5.970 -0.2606  0.9301  0.2750
  184SOPE     P21024   4.225   5.148   6.207  0.1566  0.1383 -0.1954
  184SOPE   O1321025   4.308   5.263   6.173 -0.3973  0.0838 -0.2466
  184SOPE   O1421026   4.288   5.016   6.181 -0.2517  0.6543 -0.3225
  184SOPE   O1221027   4.093   5.151   6.130  0.6105  0.0480 -0.1377
  184SOPE   O1121028   4.180   5.160   6.361 -0.7094  0.2697 -0.3592
  184SOPE    C121029   4.158   5.290   6.414 -0.3895  0.0248 -0.1027
  184SOPE    HA21030   4.067   5.283   6.477 -2.0408 -1.5074 -2.4696
  184SOPE    HB21031   4.144   5.373   6.341  0.5837  1.3016  1.1161
  184SOPE    C221032   4.274   5.330   6.510  0.0717 -0.8039  0.4358
  184SOPE    HS21033   4.373   5.297   6.470 -0.4902 -0.7068 -1.1055
  184SOPE   O2121034   4.241   5.258   6.632 -0.4187  0.9161 -0.7166
  184SOPE   C2121035   4.330   5.264   6.727 -0.1633  0.1838 -0.0079
  184SOPE   O2221036   4.445   5.308   6.714  0.4022 -0.0271 -0.9598
  184SOPE   C2221037   4.271   5.218   6.850  0.0814 -0.4624 -0.0791
  184SOPE   H2R21038   4.217   5.121   6.848  1.3400 -1.2120  0.5954
  184SOPE   H2S21039   4.186   5.287   6.868  1.0401  0.8608 -0.4873
  184SOPE    C321040   4.285   5.484   6.538  0.0151  0.0442  1.1532
  184SOPE    HX21041   4.292   5.543   6.444 -1.8603  3.4547  2.9455
  184SOPE    HY21042   4.378   5.496   6.597  0.1152 -4.4664  2.3031
  184SOPE   O3121043   4.169   5.539   6.609  0.4298 -0.7992 -0.2074
  184SOPE   C3121044   4.187   5.670   6.628 -0.3629 -0.0409  0.2248
  184SOPE   O3221045   4.284   5.731   6.588 -0.8396 -0.0194  0.0284
  184SOPE   C3221046   4.068   5.725   6.705 -0.1238 -0.2992 -0.0609
  184SOPE   H2X21047   3.989   5.647   6.698 -1.1574  0.6533  0.6512
  184SOPE   H2Y21048   4.038   5.825   6.665  0.4892 -0.4925 -1.0512
  184SOPE   C2321049   4.379   5.216   6.960  0.0862  0.6088  0.9076
  184SOPE   H3R21050   4.436   5.311   6.962 -0.7926  1.1528  0.8098
  184SOPE   H3S21051   4.459   5.140   6.947  0.7167  1.1916  1.3357
  184SOPE   C2421052   4.316   5.186   7.092  0.3149  0.3208 -0.2719
  184SOPE   H4R21053   4.239   5.262   7.116  1.2163  0.9749  0.6328
  184SOPE   H4S21054   4.265   5.087   7.095 -0.4512  0.7232  0.1123
  184SOPE   C2521055   4.425   5.172   7.211  0.0926 -0.6549  0.7740
  184SOPE   H5R21056   4.526   5.153   7.167 -0.8252  1.3882 -2.5637
  184SOPE   H5S21057   4.434   5.262   7.276  2.3381  1.0707 -1.6698
  184SOPE   C2621058   4.393   5.046   7.297 -0.0581 -0.1602 -0.0183
  184SOPE   H6R21059   4.285   5.053   7.326  0.0615  0.7716  0.2363
  184SOPE   H6S21060   4.412   4.957   7.234  1.3958  1.1498 -1.5099
  184SOPE   C2721061   4.476   5.035   7.425 -0.2397 -0.5988 -0.2056
  184SOPE   H7R21062   4.452   4.949   7.491  1.2851 -0.1761  0.9589
  184SOPE   H7S21063   4.582   5.030   7.394  0.5441  1.2448  1.8501
  184SOPE   C2821064   4.458   5.151   7.529 -0.5394  0.2919  0.0766
  184SOPE   H8R21065   4.541   5.131   7.600 -0.6663  2.4506  0.9162
  184SOPE   H8S21066   4.479   5.245   7.474 -0.8743  0.1801 -0.2441
  184SOPE   C2921067   4.324   5.163   7.608  0.2404 -0.1663  0.6775
  184SOPE   H9121068   4.253   5.238   7.569  2.3195  1.7263  0.3810
  184SOPE  C21021069   4.283   5.083   7.713  1.0813  0.6945 -1.4618
  184SOPE  H10121070   4.186   5.109   7.759  1.2345  0.0513 -0.7426
  184SOPE  C21121071   4.363   4.966   7.775  0.2531 -0.3750  0.1374
  184SOPE  H11R21072   4.433   4.916   7.704  1.9174  0.8011  0.8823
  184SOPE  H11S21073   4.286   4.901   7.823 -0.5223  0.7910  0.5116
  184SOPE  C21221074   4.466   5.007   7.879 -0.9154 -0.6596 -0.8889
  184SOPE  H12R21075   4.564   5.038   7.836 -0.2338 -1.9716 -0.3147
  184SOPE  H12S21076   4.490   4.914   7.934  2.9600  0.4161 -0.4056
  184SOPE  C21321077   4.414   5.117   7.985  0.1889 -0.0601  1.1313
  184SOPE  H13R21078   4.328   5.074   8.039 -0.6827  0.1018 -0.0916
  184SOPE  H13S21079   4.373   5.204   7.930  0.5815 -0.2378  0.5429
  184SOPE  C21421080   4.528   5.165   8.079 -0.1151  0.3203  0.3251
  184SOPE  H14R21081   4.477   5.240   8.143 -3.3844 -2.7760  1.7280
  184SOPE  H14S21082   4.605   5.205   8.010 -1.1046  1.5665 -0.0997
  184SOPE  C21521083   4.587   5.056   8.167 -0.2619  0.2275 -0.2190
  184SOPE  H15R21084   4.674   5.092   8.225  0.4902  0.6252 -1.5384
  184SOPE  H15S21085   4.619   4.964   8.113  0.1132 -2.0158  3.4713
  184SOPE  C21621086   4.481   4.992   8.267 -0.0293  0.1380 -0.8460
  184SOPE  H16R21087   4.401   4.950   8.203  0.5744  0.2607 -1.7019
  184SOPE  H16S21088   4.441   5.076   8.329 -2.5156 -0.0850 -2.0166
  184SOPE  C21721089   4.533   4.877   8.360  0.0606  0.7273 -0.8707
  184SOPE  H17R21090   4.585   4.938   8.436 -1.6775 -0.2656  1.2276
  184SOPE  H17S21091   4.595   4.812   8.295  0.5806  0.5662 -0.2111
  184SOPE  C21821092   4.434   4.785   8.428  0.5456  1.2727 -0.3899
  184SOPE  H18R21093   4.360   4.853   8.476 -2.0310 -1.7387  0.2148
  184SOPE  H18S21094   4.483   4.726   8.507 -0.7224  0.4029 -0.2117
  184SOPE  H18T21095   4.378   4.715   8.362  0.4378  0.6809  0.3304
  184SOPE   C3321096   4.093   5.750   6.857  0.6335 -0.1339  0.7682
  184SOPE   H3X21097   3.995   5.784   6.898 -0.5764 -3.8850  1.3567
  184SOPE   H3Y21098   4.180   5.817   6.872  0.8583 -0.0580 -0.7465
  184SOPE   C3421099   4.135   5.619   6.930  0.3382  0.4543  0.1142
  184SOPE   H4X21100   4.218   5.568   6.877 -0.2921 -0.2820 -0.1888
  184SOPE   H4Y21101   4.057   5.542   6.911 -2.0475  2.5886  0.6952
  184SOPE   C3521102   4.178   5.646   7.072  0.5870 -0.2196 -0.0882
  184SOPE   H5X21103   4.091   5.696   7.120 -0.5962 -2.4069  0.2170
  184SOPE   H5Y21104   4.260   5.720   7.077 -0.0386  0.8715 -3.3021
  184SOPE   C3621105   4.191   5.526   7.160 -0.3634 -0.3321  0.0438
  184SOPE   H6X21106   4.289   5.474   7.154  1.7139  3.3901 -1.1399
  184SOPE   H6Y21107   4.107   5.459   7.131  0.0317 -1.3507  1.1529
  184SOPE   C3721108   4.169   5.553   7.309 -0.1482  0.3420  0.3432
  184SOPE   H7X21109   4.069   5.602   7.320 -1.0207 -1.1948 -0.3688
  184SOPE   H7Y21110   4.247   5.625   7.339 -0.3226  0.5050  0.4077
  184SOPE   C3821111   4.163   5.420   7.386 -0.4363  0.3966 -0.6883
  184SOPE   H8X21112   4.261   5.390   7.429 -1.0127  0.7791  0.9863
  184SOPE   H8Y21113   4.121   5.346   7.315  0.9701  0.0025 -1.1414
  184SOPE   C3921114   4.062   5.429   7.501  0.5375  0.0331 -0.5949
  184SOPE   H9X21115   4.060   5.323   7.537  0.6487 -0.2519 -1.4105
  184SOPE   H9Y21116   3.958   5.461   7.479  0.8207  0.8789 -0.7030
  184SOPE  C31021117   4.115   5.521   7.614 -0.1481  0.3332  0.3996
  184SOPE  H10X21118   4.105   5.630   7.598 -1.9721  0.8705  4.1232
  184SOPE  H10Y21119   4.224   5.499   7.618  1.0875  5.1838 -0.7793
  184SOPE  C31121120   4.058   5.469   7.745  0.7280  0.5921  0.3075
  184SOPE  H11X21121   3.990   5.384   7.724  1.6883 -0.2933  0.6733
  184SOPE  H11Y21122   3.993   5.553   7.778  0.0720 -0.3591  1.5001
  184SOPE  C31221123   4.168   5.445   7.853  0.1748 -0.4474 -0.1104
  184SOPE  H12X21124   4.224   5.540   7.872 -0.9077  0.2653 -0.3790
  184SOPE  H12Y21125   4.243   5.375   7.812 -0.0075 -1.4853  1.2462
  184SOPE  C31321126   4.101   5.404   7.980  0.3579 -0.5916  0.6151
  184SOPE  H13X21127   4.056   5.303   7.964  0.7538 -0.6925  0.0973
  184SOPE  H13Y21128   4.018   5.475   7.999 -0.1512 -0.1107 -2.7713
  184SOPE  C31421129   4.194   5.413   8.101 -0.0419  0.1433  0.3027
  184SOPE  H14X21130   4.243   5.512   8.101 -0.1763  0.2137  1.1298
  184SOPE  H14Y21131   4.284   5.348   8.090 -0.6814 -0.4474 -2.3002
  184SOPE  C31521132   4.122   5.388   8.238  0.4754 -0.5598  0.3858
  184SOPE  H15X21133   4.060   5.296   8.224 -2.8794  1.8975 -2.7845
  184SOPE  H15Y21134   4.064   5.478   8.267  2.3306 -0.1018  3.0008
  184SOPE  C31621135   4.220   5.369   8.352  0.5671 -0.0790 -0.8636
  184SOPE  H16X21136   4.279   5.461   8.371 -0.8208  0.3259  2.1586
  184SOPE  H16Y21137   4.291   5.283   8.347 -0.5726 -1.1611  0.4059
  184SOPE  C31721138   4.134   5.346   8.478  1.1187 -0.5681 -0.0147
  184SOPE  H17X21139   4.068   5.258   8.459 -0.1491  0.6183 -1.3285
  184SOPE  H17Y21140   4.071   5.433   8.507  1.0672 -0.7051  0.2845
  184SOPE  C31821141   4.221   5.305   8.596 -0.1976 -0.1935  0.4088
  184SOPE  H18X21142   4.289   5.231   8.550 -0.9947 -1.0682  0.6132
  184SOPE  H18Y21143   4.167   5.261   8.682  2.8052 -0.6736  2.1919
  184SOPE  H18Z21144   4.280   5.393   8.630  1.5719 -1.0123 -0.4020
  185SAPI   C1221145   5.576   2.366  11.257 -0.6001  0.8263 -0.1910
  185SAPI    H221146   5.517   2.431  11.325 -2.8361 -0.5146 -0.7588
  185SAPI    O221147   5.715   2.374  11.281 -0.3906 -0.5958 -0.5073
  185SAPI   HO221148   5.725   2.470  11.277 -2.6168 -0.3295 -3.3699
  185SAPI   C1321149   5.525   2.230  11.274  0.0764  0.5091 -0.9610
  185SAPI    H321150   5.417   2.215  11.250  0.0288  0.9822 -1.0336
  185SAPI    O321151   5.540   2.184  11.413 -0.3724 -0.3362 -0.6239
  185SAPI   HO321152   5.630   2.151  11.425 -0.4937 -0.6398 -0.5342
  185SAPI   C1421153   5.593   2.134  11.180 -0.3007  0.3113 -0.2911
  185SAPI    H421154   5.701   2.141  11.207 -0.3880  2.8650 -0.4306
  185SAPI    O421155   5.553   1.999  11.191  0.0316 -0.4013 -0.9531
  185SAPI   HO421156   5.565   1.952  11.108 -0.4653 -1.2077 -0.5906
  185SAPI   C1521157   5.589   2.187  11.037  0.4152 -0.0833  0.4678
  185SAPI    H521158   5.485   2.185  10.997  0.4348 -0.3918  0.4303
  185SAPI    O521159   5.664   2.102  10.944  0.9576  0.5720 -0.0605
  185SAPI   HO521160   5.611   2.090  10.865  0.1547 -2.3972  0.8041
  185SAPI   C1621161   5.628   2.327  11.018 -0.1589 -0.8443 -0.5049
  185SAPI    H621162   5.734   2.338  11.049  0.0057 -0.5128 -1.1646
  185SAPI    O621163   5.618   2.364  10.883 -0.2605  0.1666  0.7891
  185SAPI   HO621164   5.621   2.460  10.876  2.6924  0.2616  1.7788
  185SAPI   C1121165   5.551   2.413  11.115  0.3890 -0.1884  0.0630
  185SAPI    H121166   5.441   2.399  11.103  0.2965  0.0553  0.5988
  185SAPI     P21167   5.527   2.665  11.015  0.0333 -0.6458  0.0942
  185SAPI   O1321168   5.554   2.796  11.077 -0.1271  0.1227  0.9747
  185SAPI   O1421169   5.384   2.648  10.985 -0.0654 -0.2854 -0.1499
  185SAPI   O1221170   5.586   2.549  11.118 -0.4999  0.2606 -1.1046
  185SAPI   O1121171   5.619   2.641  10.892  0.7536 -0.2900 -0.1841
  185SAPI    C121172   5.759   2.668  10.911  1.0153 -0.4283  0.0824
  185SAPI    HA21173   5.811   2.650  11.007  0.2619  1.1153  0.8132
  185SAPI    HB21174   5.809   2.599  10.840  2.2065  0.9340 -0.4565
  185SAPI    C221175   5.805   2.812  10.860  0.2342  0.0495 -0.0697
  185SAPI    HS21176   5.757   2.891  10.922 -1.3217 -0.8832 -0.0379
  185SAPI   O2121177   5.753   2.828  10.725  0.2275 -0.0633 -0.4614
  185SAPI   C2121178   5.741   2.949  10.670 -0.2256  0.1968 -0.0986
  185SAPI   O2221179   5.760   3.053  10.725 -1.0348  0.0408  0.1121
  185SAPI   C2221180   5.702   2.930  10.529 -0.1654 -0.2513  0.5639
  185SAPI   H2R21181   5.612   2.865  10.534 -0.1117 -0.2380  2.4038
  185SAPI   H2S21182   5.678   3.029  10.485 -0.3022 -0.0527  1.0879
  185SAPI    C321183   5.959   2.843  10.867  0.6484  0.7624  0.4254
  185SAPI    HX21184   5.997   2.864  10.970  1.5173 -0.9217  0.4920
  185SAPI    HY21185   5.965   2.941  10.816 -5.0036  0.9139 -0.5941
  185SAPI   O3121186   6.033   2.735  10.805  0.0551 -0.3814  0.3195
  185SAPI   C3121187   6.120   2.774  10.705 -0.1682 -0.6786 -0.5987
  185SAPI   O3221188   6.136   2.890  10.673  0.0614 -0.1969 -0.6120
  185SAPI   C3221189   6.189   2.660  10.636 -0.7757  0.4712  0.4879
  185SAPI   H2X21190   6.106   2.594  10.604  0.2075 -0.7858  0.4050
  185SAPI   H2Y21191   6.250   2.604  10.711 -1.0153 -0.2688  0.1475
  185SAPI   C2321192   5.800   2.853  10.444 -0.8341 -0.2032 -0.0896
  185SAPI   H3R21193   5.735   2.811  10.364 -0.5481 -1.2740  0.2295
  185SAPI   H3S21194   5.833   2.765  10.503 -1.2250  0.5162  1.2356
  185SAPI   C2421195   5.905   2.943  10.378 -0.0290 -0.0194  0.5330
  185SAPI   H4R21196   5.976   2.979  10.456  0.0952  0.1909  0.3257
  185SAPI   H4S21197   5.845   3.028  10.338  1.3063 -0.1796 -2.0215
  185SAPI   C2521198   5.974   2.870  10.258 -0.7610 -0.1482 -0.6245
  185SAPI   H5R21199   6.076   2.835  10.279 -1.5085 -0.9694  2.1090
  185SAPI   C2621200   5.929   2.864  10.130  0.7243 -0.9918 -0.2787
  185SAPI   H6R21201   5.969   2.797  10.054  0.0196 -1.6364 -0.0917
  185SAPI   C2721202   5.809   2.949  10.086  0.5869 -0.5292 -0.3475
  185SAPI   H7R21203   5.836   3.049  10.044 -1.7995  0.8802  1.2172
  185SAPI   H7S21204   5.737   2.976  10.167  0.8654  1.1112 -0.6008
  185SAPI   C2821205   5.735   2.871   9.983 -0.2556 -0.5914  0.0666
  185SAPI   H8R21206   5.659   2.802  10.022 -0.7660 -0.6092 -0.9161
  185SAPI   C2921207   5.726   2.881   9.849 -0.2479  0.4620 -0.1170
  185SAPI   H9R21208   5.664   2.807   9.797 -1.0690  1.5905 -0.7916
  185SAPI  C21021209   5.798   2.981   9.762  0.0459 -0.6854  0.0253
  185SAPI  H10R21210   5.857   3.045   9.832 -1.1959  0.3697  0.1488
  185SAPI  H10S21211   5.721   3.050   9.721  0.1613 -1.1781 -1.0662
  185SAPI  C21121212   5.898   2.932   9.667 -0.0986 -0.0884  0.2787
  185SAPI  H11R21213   5.967   2.863   9.718  1.4802  0.3744 -1.1086
  185SAPI  C21221214   5.914   2.948   9.531 -0.4098 -0.1292 -0.7567
  185SAPI  H12R21215   6.005   2.909   9.483  0.0209  0.1935 -0.2128
  185SAPI  C21321216   5.817   3.025   9.441  0.2945 -0.1494  0.3905
  185SAPI  H13R21217   5.879   3.081   9.368  0.5758  0.2670  0.9484
  185SAPI  H13S21218   5.764   3.095   9.509  0.0447 -0.0396  0.0872
  185SAPI  C21421219   5.704   2.947   9.375 -0.8647 -0.0934  0.3360
  185SAPI  H14R21220   5.606   2.975   9.417 -0.7625 -0.1108  0.5891
  185SAPI  C21521221   5.717   2.865   9.265  0.0366 -0.0258 -1.0258
  185SAPI  H15R21222   5.631   2.816   9.217  0.0639 -0.3995 -0.6953
  185SAPI  C21621223   5.851   2.826   9.203  0.2462 -0.3266  0.2989
  185SAPI  H16R21224   5.873   2.725   9.243 -1.0983  0.4499  3.3290
  185SAPI  H16S21225   5.939   2.879   9.246  2.4427 -2.3089 -1.4945
  185SAPI  C21721226   5.843   2.825   9.049  0.4932  0.2214  0.3810
  185SAPI  H17R21227   5.772   2.744   9.022  0.6588 -0.0052  0.6241
  185SAPI  H17S21228   5.945   2.799   9.012 -0.4610  0.2614 -2.6151
  185SAPI  C21821229   5.802   2.952   8.976 -0.3142 -0.3299 -0.5439
  185SAPI  H18R21230   5.863   3.038   9.010 -0.2470 -0.1753 -1.0421
  185SAPI  H18S21231   5.703   2.982   9.015  1.9496  2.6983  3.5640
  185SAPI  C21921232   5.818   2.929   8.827  0.3026 -0.2566  0.2234
  185SAPI  H19R21233   5.744   2.857   8.787  2.2009 -2.1633 -0.0554
  185SAPI  H19S21234   5.917   2.884   8.803  0.4986  0.2357  0.0754
  185SAPI  C22021235   5.812   3.060   8.751  0.0764  0.0172  0.1391
  185SAPI  H20R21236   5.877   3.134   8.803  0.0189  0.8499 -0.9343
  185SAPI  H20S21237   5.710   3.098   8.773  0.6773  0.8012  1.7569
  185SAPI  H20T21238   5.830   3.050   8.642 -0.2624  1.7190 -0.1057
  185SAPI   C3321239   6.278   2.689  10.509  0.0291  0.2984  0.4202
  185SAPI   H3X21240   6.381   2.658  10.533  1.0532  2.7521 -0.4797
  185SAPI   H3Y21241   6.281   2.798  10.489  1.3266 -0.2690 -3.2508
  185SAPI   C3421242   6.223   2.621  10.391 -0.1904  0.7505  0.4980
  185SAPI   H4X21243   6.122   2.665  10.372 -0.5642 -0.4635 -0.4896
  185SAPI   H4Y21244   6.212   2.512  10.413 -2.6250  1.0272  0.9632
  185SAPI   C3521245   6.293   2.637  10.255 -0.0669  0.1073 -0.0918
  185SAPI   H5X21246   6.399   2.608  10.270  0.1557  0.0253 -1.6195
  185SAPI   H5Y21247   6.304   2.743  10.225 -1.0179  0.1721 -0.2523
  185SAPI   C3621248   6.227   2.556  10.143  0.2888  0.5366 -0.4546
  185SAPI   H6X21249   6.118   2.578  10.142  0.3952  1.3760  1.5278
  185SAPI   H6Y21250   6.249   2.448  10.159  2.3461  0.8947 -0.6780
  185SAPI   C3721251   6.286   2.585  10.013  0.1521  0.1112  0.0108
  185SAPI   H7X21252   6.385   2.537   9.993 -0.0989  0.2348 -1.6578
  185SAPI   H7Y21253   6.306   2.693   9.999 -0.1727  0.3302  1.1907
  185SAPI   C3821254   6.187   2.549   9.898 -0.0492  0.1444  0.1310
  185SAPI   H8X21255   6.084   2.587   9.918 -0.2337 -0.5565  0.5437
  185SAPI   H8Y21256   6.163   2.440   9.900 -0.7630  0.2740  3.5878
  185SAPI   C3921257   6.249   2.602   9.765  0.1561 -0.3463  0.3811
  185SAPI   H9X21258   6.352   2.564   9.753 -0.1113 -0.7411 -0.8301
  185SAPI   H9Y21259   6.266   2.712   9.761  1.7161 -0.5754 -3.1863
  185SAPI  C31021260   6.160   2.558   9.651  0.3210  0.7832  0.0990
  185SAPI  H10X21261   6.052   2.587   9.651  0.4433  1.2536 -0.6490
  185SAPI  H10Y21262   6.172   2.447   9.649  1.0332  0.8434 -1.8566
  185SAPI  C31121263   6.202   2.606   9.515  0.2291 -0.0576  0.3043
  185SAPI  H11X21264   6.309   2.578   9.498  0.2338  0.9561 -1.6673
  185SAPI  H11Y21265   6.201   2.716   9.503  0.2460 -0.0785  0.1009
  185SAPI  C31221266   6.131   2.535   9.390  0.0295 -0.3611  0.2054
  185SAPI  H12X21267   6.020   2.543   9.386 -0.5345 -5.2176  0.1817
  185SAPI  H12Y21268   6.142   2.425   9.394 -0.3635 -0.3700  1.6507
  185SAPI  C31321269   6.177   2.590   9.254  0.4163 -0.7531  0.5652
  185SAPI  H13X21270   6.286   2.612   9.262  0.1921  0.7335 -0.1029
  185SAPI  H13Y21271   6.126   2.688   9.246  0.9729 -0.5906 -2.0099
  185SAPI  C31421272   6.142   2.503   9.126 -0.7688 -0.4096 -1.1221
  185SAPI  H14X21273   6.033   2.482   9.126 -1.1621  1.4014 -2.3041
  185SAPI  H14Y21274   6.193   2.405   9.131 -2.1269 -1.0914  0.0828
  185SAPI  C31521275   6.174   2.573   8.999  0.0346 -0.2732  0.4454
  185SAPI  H15X21276   6.144   2.680   9.000  0.0770 -0.2475 -0.4073
  185SAPI  H15Y21277   6.120   2.525   8.915 -0.2034  1.1323 -0.2335
  185SAPI  C31621278   6.329   2.561   8.970 -0.6528  0.4107  0.1919
  185SAPI  H16X21279   6.351   2.452   8.972  0.2632  0.5957  0.6786
  185SAPI  H16Y21280   6.392   2.606   9.050  1.4398  0.1096 -1.2031
  185SAPI  C31721281   6.358   2.621   8.831  1.1593  0.9561  0.7905
  185SAPI  H17X21282   6.334   2.729   8.823  1.1202  0.8083 -2.5146
  185SAPI  H17Y21283   6.286   2.583   8.755  0.9848  1.8666  0.4968
  185SAPI  C31821284   6.494   2.613   8.773 -0.1711  0.7439  0.0556
  185SAPI  H18X21285   6.506   2.534   8.695 -1.5840  0.6286 -0.0678
  185SAPI  H18Y21286   6.571   2.589   8.850  1.3183  1.6643 -1.0907
  185SAPI  H18Z21287   6.520   2.705   8.717 -2.7517  0.6294 -1.4875
  186SAPI   C1221288   5.046   1.351  10.881  0.8021 -0.3841  0.7208
  186SAPI    H221289   5.097   1.321  10.787 -0.7257 -0.1069 -0.2286
  186SAPI    O221290   5.140   1.365  10.985  0.2709 -0.3334  0.0491
  186SAPI   HO221291   5.227   1.328  10.968  0.6578  1.4803 -2.4500
  186SAPI   C1321292   4.957   1.472  10.859 -0.5662 -0.4717 -0.2875
  186SAPI    H321293   4.881   1.439  10.785 -1.1002 -0.1522  0.1105
  186SAPI    O321294   5.035   1.578  10.810 -0.1411  0.0506 -0.5435
  186SAPI   HO321295   5.108   1.595  10.870  0.6204 -0.0490 -1.4227
  186SAPI   C1421296   4.881   1.505  10.987 -0.3361 -0.5462 -0.1894
  186SAPI    H421297   4.949   1.514  11.075  1.0846 -1.4235 -1.1606
  186SAPI    O421298   4.811   1.631  10.978 -0.2819  0.6893 -0.7589
  186SAPI   HO421299   4.763   1.646  11.060  0.4130 -1.7580  0.1680
  186SAPI   C1521300   4.797   1.384  11.014  0.7103 -0.6809  0.2856
  186SAPI    H521301   4.726   1.375  10.929  0.1306 -0.9527  0.7827
  186SAPI    O521302   4.708   1.412  11.120  0.1454  1.0345 -0.2106
  186SAPI   HO521303   4.759   1.394  11.200  1.0585 -0.5244 -1.0805
  186SAPI   C1621304   4.863   1.249  11.029 -0.8996 -0.2594 -0.6230
  186SAPI    H621305   4.926   1.249  11.120 -0.1100 -0.4091 -1.1584
  186SAPI    O621306   4.760   1.153  11.044  0.4351  0.3235  0.0674
  186SAPI   HO621307   4.771   1.083  10.980  1.8235  0.2755  0.3232
  186SAPI   C1121308   4.948   1.226  10.908 -0.2531 -0.4605 -0.5373
  186SAPI    H121309   4.875   1.223  10.824 -1.2648  0.1819  0.3057
  186SAPI     P21310   4.990   0.986  10.817 -0.0351  0.0502 -0.3119
  186SAPI   O1321311   4.846   0.954  10.842 -0.5240  0.0727 -0.3194
  186SAPI   O1421312   5.090   0.880  10.840 -0.8653 -0.3964  0.1262
  186SAPI   O1221313   5.034   1.107  10.919  0.0262  0.0740 -0.2405
  186SAPI   O1121314   5.012   1.045  10.670  0.4996 -0.2079  0.9261
  186SAPI    C121315   5.117   1.002  10.590  0.1422  0.5090  0.1862
  186SAPI    HA21316   5.141   0.894  10.602  0.9534  0.5719 -0.7382
  186SAPI    HB21317   5.081   1.027  10.488  0.3814  0.0465 -0.0150
  186SAPI    C221318   5.243   1.089  10.610  0.1116  0.6675 -0.2018
  186SAPI    HS21319   5.254   1.113  10.718 -0.0754 -1.3780  0.3116
  186SAPI   O2121320   5.230   1.216  10.543  0.1586 -0.6428 -0.8664
  186SAPI   C2121321   5.298   1.317  10.596 -0.6535 -0.7443 -0.6929
  186SAPI   O2221322   5.370   1.301  10.693  0.6982 -0.5702 -0.5172
  186SAPI   C2221323   5.275   1.450  10.532  0.2866  0.1261  0.4328
  186SAPI   H2R21324   5.299   1.528  10.608 -1.3664  1.0823  0.0173
  186SAPI   H2S21325   5.350   1.461  10.451 -0.1295 -1.1368 -0.1397
  186SAPI    C321326   5.371   1.019  10.557  0.5938  0.0316 -0.4358
  186SAPI    HX21327   5.390   0.929  10.620  1.5283  0.7954  0.4149
  186SAPI    HY21328   5.465   1.074  10.576  0.2100  0.6269 -0.2286
  186SAPI   O3121329   5.367   0.978  10.419 -0.7648 -0.1545 -0.5427
  186SAPI   C3121330   5.416   1.070  10.330 -0.0705  0.4561  0.2146
  186SAPI   O3221331   5.476   1.172  10.356 -0.1815 -0.0689 -0.0103
  186SAPI   C3221332   5.391   1.017  10.188  0.6597  0.4087 -0.1493
  186SAPI   H2X21333   5.280   1.004  10.184  0.5150  1.3096  0.5927
  186SAPI   H2Y21334   5.438   0.917  10.179  0.1069  0.2213 -1.0992
  186SAPI   C2321335   5.141   1.475  10.460 -0.6205 -0.1876  0.3339
  186SAPI   H3R21336   5.067   1.523  10.527 -0.8535  0.3752 -0.3117
  186SAPI   H3S21337   5.092   1.388  10.411 -0.5502 -0.1894  0.2646
  186SAPI   C2421338   5.178   1.573  10.344  0.5815  0.2007 -0.1116
  186SAPI   H4R21339   5.247   1.520  10.274 -0.9373  0.5313 -1.9326
  186SAPI   H4S21340   5.227   1.664  10.385 -0.6146  0.8045  0.0143
  186SAPI   C2521341   5.051   1.597  10.266 -0.5233 -0.1589  0.6733
  186SAPI   H5R21342   4.991   1.677  10.310  0.0782  1.2065 -0.8711
  186SAPI   C2621343   4.999   1.527  10.161 -1.1610 -0.7988 -0.0400
  186SAPI   H6R21344   4.913   1.576  10.112 -0.2975  1.2464  0.3456
  186SAPI   C2721345   5.064   1.403  10.103 -0.3207  0.5938 -0.2425
  186SAPI   H7R21346   5.157   1.358  10.143  0.4811  0.0890 -2.4824
  186SAPI   H7S21347   5.106   1.432  10.004  1.4710  3.2660  1.2048
  186SAPI   C2821348   4.962   1.292  10.107  0.0415 -0.3500 -0.2515
  186SAPI   H8R21349   4.956   1.238  10.203 -0.7182 -0.8569 -0.5772
  186SAPI   C2921350   4.883   1.256  10.010 -0.0700  0.5500  1.1661
  186SAPI   H9R21351   4.822   1.172  10.043 -0.4040  1.0160  1.7453
  186SAPI  C21021352   4.863   1.308   9.868 -0.5009  0.3311 -0.3592
  186SAPI  H10R21353   4.943   1.382   9.845 -0.8311  0.6607 -0.4480
  186SAPI  H10S21354   4.767   1.363   9.863 -0.6251  0.8847  4.1228
  186SAPI  C21121355   4.872   1.200   9.761  0.2605  0.2272  0.2356
  186SAPI  H11R21356   4.882   1.100   9.805 -0.1652  1.5986  3.7998
  186SAPI  C21221357   4.860   1.214   9.627 -0.5041 -0.0396 -0.4773
  186SAPI  H12R21358   4.846   1.125   9.564 -1.4048  0.2128 -0.6457
  186SAPI  C21321359   4.831   1.346   9.558 -0.2098  0.5157 -0.5434
  186SAPI  H13R21360   4.828   1.438   9.621 -1.8716 -0.7250  1.3354
  186SAPI  H13S21361   4.725   1.347   9.524 -0.4699  0.9558  0.2474
  186SAPI  C21421362   4.905   1.360   9.427  0.5598  0.3541  0.0160
  186SAPI  H14R21363   4.991   1.429   9.425  2.0365 -1.4139  0.0241
  186SAPI  C21521364   4.865   1.303   9.318  0.5031  0.0181 -0.0099
  186SAPI  H15R21365   4.923   1.323   9.226  0.9382 -0.8959  0.0526
  186SAPI  C21621366   4.752   1.216   9.290  0.7750  0.5537  0.5117
  186SAPI  H16R21367   4.672   1.288   9.263  1.2323  0.3280 -1.6128
  186SAPI  H16S21368   4.726   1.158   9.381  1.4508  1.9414  1.6275
  186SAPI  C21721369   4.777   1.130   9.163  0.2545 -0.3161 -0.4989
  186SAPI  H17R21370   4.866   1.064   9.171  0.2443 -0.4841 -1.5957
  186SAPI  H17S21371   4.801   1.198   9.078 -1.4767 -1.3403 -1.8831
  186SAPI  C21821372   4.658   1.045   9.107  0.9317 -0.3546 -0.4303
  186SAPI  H18R21373   4.568   1.109   9.120  1.4048  0.3315 -0.4846
  186SAPI  H18S21374   4.661   0.952   9.168  0.1887  0.8850  1.5967
  186SAPI  C21921375   4.693   1.012   8.959 -0.7307  0.2885 -0.0166
  186SAPI  H19R21376   4.616   0.944   8.918 -1.1320  0.7690 -0.0671
  186SAPI  H19S21377   4.791   0.960   8.960 -0.8000  0.1365  1.3444
  186SAPI  C22021378   4.704   1.135   8.859 -0.1340 -0.0070 -0.4970
  186SAPI  H20R21379   4.725   1.098   8.756 -0.2698  0.2009 -0.6011
  186SAPI  H20S21380   4.783   1.206   8.889  0.5646 -1.6788  1.9052
  186SAPI  H20T21381   4.604   1.184   8.867 -0.5170 -0.9556  0.8669
  186SAPI   C3321382   5.421   1.129  10.078  0.2678  0.3249  0.3320
  186SAPI   H3X21383   5.526   1.163  10.083  0.3853  0.0983 -0.4611
  186SAPI   H3Y21384   5.359   1.219  10.099 -2.8287 -1.3344 -1.0514
  186SAPI   C3421385   5.391   1.077   9.942  0.0597 -0.1270 -0.5543
  186SAPI   H4X21386   5.287   1.039   9.928  0.0326  0.1152 -1.0447
  186SAPI   H4Y21387   5.460   0.994   9.915 -1.3027 -1.6547  0.4524
  186SAPI   C3521388   5.410   1.191   9.839 -0.3681  0.1294 -1.1772
  186SAPI   H5X21389   5.439   1.138   9.745 -3.8558 -1.7723 -1.3434
  186SAPI   H5Y21390   5.499   1.252   9.867 -0.2478 -0.9852  1.0623
  186SAPI   C3621391   5.293   1.279   9.814  0.4649  0.1351 -0.5021
  186SAPI   H6X21392   5.270   1.332   9.909  1.1825  3.1903 -1.9381
  186SAPI   H6Y21393   5.204   1.213   9.803  1.4097 -1.1224 -0.7736
  186SAPI   C3721394   5.315   1.381   9.705  0.7150  0.2372  0.2103
  186SAPI   H7X21395   5.231   1.346   9.641  2.8497 -0.4786 -2.3663
  186SAPI   H7Y21396   5.416   1.368   9.661  1.0371 -0.1453  1.0491
  186SAPI   C3821397   5.278   1.525   9.743  0.0564 -0.0976 -0.7075
  186SAPI   H8X21398   5.337   1.561   9.830  2.1884  0.9315 -2.4559
  186SAPI   H8Y21399   5.169   1.531   9.760 -0.0218 -2.6407  0.1211
  186SAPI   C3921400   5.323   1.630   9.644 -0.4510 -0.1842 -0.2380
  186SAPI   H9X21401   5.433   1.633   9.629 -0.8077  1.1857 -3.3679
  186SAPI   H9Y21402   5.293   1.734   9.669  0.0671 -0.2401  0.6422
  186SAPI  C31021403   5.279   1.588   9.500  0.1172 -0.1187  0.1852
  186SAPI  H10X21404   5.173   1.570   9.527  1.1789 -1.9306  3.8445
  186SAPI  H10Y21405   5.328   1.494   9.468 -0.4262 -0.3961  0.1587
  186SAPI  C31121406   5.285   1.696   9.398 -0.6949 -0.0294  0.1634
  186SAPI  H11X21407   5.388   1.737   9.388 -0.5452 -0.1567  1.1380
  186SAPI  H11Y21408   5.218   1.776   9.436  0.4743  0.1197  2.0367
  186SAPI  C31221409   5.248   1.649   9.259  0.6105 -0.4064 -0.4903
  186SAPI  H12X21410   5.152   1.593   9.266 -0.3926  1.4165  1.2602
  186SAPI  H12Y21411   5.330   1.577   9.235  1.1215  0.0594 -0.1647
  186SAPI  C31321412   5.249   1.762   9.159 -0.8025 -0.6382  0.1819
  186SAPI  H13X21413   5.351   1.805   9.153 -1.6542  1.4837  0.2548
  186SAPI  H13Y21414   5.172   1.839   9.177 -1.2232 -1.1146  0.4600
  186SAPI  C31421415   5.236   1.705   9.015  0.1413  0.2559  0.0822
  186SAPI  H14X21416   5.295   1.612   9.006 -0.2712  0.1351 -2.0450
  186SAPI  H14Y21417   5.266   1.775   8.934 -0.3517 -1.0787 -1.3173
  186SAPI  C31521418   5.089   1.659   8.983  0.6204 -0.1415 -0.3968
  186SAPI  H15X21419   5.024   1.749   8.992  1.2269  0.1273  1.9182
  186SAPI  H15Y21420   5.059   1.591   9.066 -0.8181  0.4615 -0.3821
  186SAPI  C31621421   5.080   1.586   8.850 -0.6340  0.1011 -0.5551
  186SAPI  H16X21422   5.134   1.491   8.867  0.0739  0.2272 -1.9931
  186SAPI  H16Y21423   5.136   1.645   8.774  1.3775 -0.8333  0.1374
  186SAPI  C31721424   4.950   1.543   8.798 -0.3039 -0.2009 -0.0147
  186SAPI  H17X21425   4.880   1.628   8.803  0.0011  0.1350 -1.2352
  186SAPI  H17Y21426   4.911   1.467   8.869 -3.0482  1.4599  0.3637
  186SAPI  C31821427   4.947   1.499   8.652 -0.0722  0.1526 -0.2597
  186SAPI  H18X21428   4.852   1.451   8.621 -1.4825  1.0064  2.4089
  186SAPI  H18Y21429   5.025   1.420   8.645 -0.8564 -0.5176 -1.8356
  186SAPI  H18Z21430   4.985   1.575   8.580  0.0813  0.8878  0.5727
  187SAPI   C1221431   4.080   2.588   6.137 -0.5170  0.0037 -0.4962
  187SAPI    H221432   4.092   2.692   6.101  0.4574  1.1528  2.7689
  187SAPI    O221433   3.947   2.586   6.185 -0.1482  0.0025  0.0197
  187SAPI   HO221434   3.954   2.629   6.271  1.1838 -1.3982  0.6500
  187SAPI   C1321435   4.107   2.502   6.017  0.5984 -0.0975 -0.4166
  187SAPI    H321436   4.216   2.511   5.993  1.2125 -0.3117  2.0694
  187SAPI    O321437   4.033   2.554   5.906  0.7206 -0.0242 -0.1740
  187SAPI   HO321438   4.068   2.637   5.874 -0.1491 -0.3403 -2.1407
  187SAPI   C1421439   4.080   2.355   6.043  0.3088 -0.4084 -0.2740
  187SAPI    H421440   3.972   2.343   6.069  0.1980  1.5798  0.3390
  187SAPI    O421441   4.097   2.275   5.929  0.2305 -0.5939 -0.1764
  187SAPI   HO421442   4.014   2.227   5.920  0.2470 -1.0572  1.7212
  187SAPI   C1521443   4.161   2.304   6.160  0.0718  0.3777  0.6287
  187SAPI    H521444   4.269   2.312   6.138  0.0604  1.5192  0.9265
  187SAPI    O521445   4.130   2.171   6.195 -0.9388 -0.5376  0.5162
  187SAPI   HO521446   4.203   2.147   6.252  0.3405  2.9798  0.5925
  187SAPI   C1621447   4.129   2.398   6.281 -0.2819  0.7872  0.2645
  187SAPI    H621448   4.026   2.392   6.322  0.2556 -1.5799  1.4403
  187SAPI    O621449   4.217   2.360   6.386 -0.4219  0.5929 -0.0715
  187SAPI   HO621450   4.235   2.447   6.422  1.5326  0.6515 -1.0606
  187SAPI   C1121451   4.168   2.537   6.253  0.4545  1.0459 -0.5585
  187SAPI    H121452   4.269   2.543   6.208  0.5405 -0.3816 -0.6117
  187SAPI     P21453   4.195   2.784   6.364  0.1954 -0.3713 -0.1351
  187SAPI   O1321454   4.070   2.866   6.351 -0.4954  0.7273 -0.6001
  187SAPI   O1421455   4.298   2.788   6.258 -0.7023 -0.0829  0.5429
  187SAPI   O1221456   4.153   2.627   6.371  0.0344 -0.4679  0.0001
  187SAPI   O1121457   4.265   2.817   6.502  0.0045  0.1505 -0.1602
  187SAPI    C121458   4.385   2.750   6.533 -1.2522  0.2029 -0.3272
  187SAPI    HA21459   4.387   2.645   6.495  1.1943 -0.0198  0.2098
  187SAPI    HB21460   4.477   2.795   6.490 -0.2760 -1.6629 -0.3443
  187SAPI    C221461   4.412   2.721   6.686  0.2488 -0.5641  0.2794
  187SAPI    HS21462   4.499   2.653   6.682 -0.3060 -1.2837  0.3587
  187SAPI   O2121463   4.305   2.656   6.756 -0.1827 -0.5124  0.3202
  187SAPI   C2121464   4.292   2.528   6.737 -0.3882 -0.0895  0.4897
  187SAPI   O2221465   4.374   2.450   6.691  0.5239  0.5851 -0.1838
  187SAPI   C2221466   4.156   2.472   6.782 -0.3724 -0.3754 -0.3130
  187SAPI   H2R21467   4.110   2.550   6.846  2.0508  1.0882 -0.2494
  187SAPI   H2S21468   4.086   2.449   6.699 -0.9076  1.1436 -0.3108
  187SAPI    C321469   4.448   2.848   6.762 -0.6080 -0.3318 -0.1703
  187SAPI    HX21470   4.361   2.917   6.763  1.5504  2.6145  0.3841
  187SAPI    HY21471   4.530   2.898   6.706  1.5057 -1.2713  1.9023
  187SAPI   O3121472   4.483   2.828   6.900  0.1962 -0.4206 -0.7076
  187SAPI   C3121473   4.591   2.762   6.932 -0.3006  0.1370 -0.4823
  187SAPI   O3221474   4.673   2.724   6.850 -0.0373 -0.1822  0.1224
  187SAPI   C3221475   4.597   2.742   7.085  0.0896 -0.4355 -0.5898
  187SAPI   H2X21476   4.679   2.811   7.115  0.2595  0.5354 -3.0842
  187SAPI   H2Y21477   4.625   2.638   7.109  0.3979 -0.9124 -2.8815
  187SAPI   C2321478   4.189   2.347   6.869 -0.0839 -0.2946  0.4698
  187SAPI   H3R21479   4.246   2.268   6.817  2.3192  0.8561  1.1785
  187SAPI   H3S21480   4.093   2.295   6.890 -0.7412 -0.4660 -2.5227
  187SAPI   C2421481   4.269   2.376   6.993 -0.9173 -1.0870  0.8181
  187SAPI   H4R21482   4.223   2.458   7.052  1.5639  0.3429  0.8666
  187SAPI   H4S21483   4.368   2.411   6.957 -1.1766 -1.9784 -0.8991
  187SAPI   C2521484   4.281   2.250   7.070 -0.1835  0.0730 -0.7929
  187SAPI   H5R21485   4.326   2.161   7.023 -1.9145 -1.8199  0.9429
  187SAPI   C2621486   4.247   2.240   7.200  0.4363 -0.3964 -0.8068
  187SAPI   H6R21487   4.249   2.134   7.228  0.1619 -0.9990 -2.8751
  187SAPI   C2721488   4.200   2.349   7.302 -1.4542  0.0143  0.0358
  187SAPI   H7R21489   4.142   2.428   7.250 -1.4379 -0.2515 -0.3900
  187SAPI   H7S21490   4.295   2.379   7.351 -0.9090 -1.6107  0.0438
  187SAPI   C2821491   4.117   2.283   7.418 -0.0701 -1.0017  0.4240
  187SAPI   H8R21492   4.011   2.277   7.389  0.1147  1.2175 -0.9912
  187SAPI   C2921493   4.159   2.247   7.541  0.6121 -0.2750  0.0338
  187SAPI   H9R21494   4.080   2.205   7.604  2.0129 -2.9264  0.1821
  187SAPI  C21021495   4.297   2.250   7.600 -0.3368  0.4999 -0.5208
  187SAPI  H10R21496   4.362   2.307   7.530  0.6387 -0.4033 -0.3634
  187SAPI  H10S21497   4.331   2.147   7.624  1.9383  1.6647  1.7258
  187SAPI  C21121498   4.317   2.328   7.724 -0.0633 -0.3776  0.6699
  187SAPI  H11R21499   4.319   2.436   7.708 -2.0330 -0.2900  0.8183
  187SAPI  C21221500   4.336   2.290   7.849 -0.3405  0.2246 -0.3543
  187SAPI  H12R21501   4.371   2.359   7.928  0.6247 -0.0483 -0.5298
  187SAPI  C21321502   4.333   2.145   7.903 -0.4683 -0.6850 -0.1697
  187SAPI  H13R21503   4.401   2.089   7.835  2.4010  1.6865  0.5489
  187SAPI  H13S21504   4.231   2.106   7.879 -0.6954  0.0991 -0.5208
  187SAPI  C21421505   4.371   2.120   8.045  0.5233  0.2798  0.2614
  187SAPI  H14R21506   4.479   2.133   8.063  0.3710  2.5710 -0.1238
  187SAPI  C21521507   4.300   2.117   8.156  0.0040 -0.8517 -0.3389
  187SAPI  H15R21508   4.356   2.093   8.248 -0.1102 -1.1950 -0.3591
  187SAPI  C21621509   4.146   2.136   8.160  0.0422  0.0717 -0.7475
  187SAPI  H16R21510   4.100   2.062   8.229 -1.2209  2.5026  1.1857
  187SAPI  H16S21511   4.102   2.139   8.059 -0.6462  3.1614 -0.4716
  187SAPI  C21721512   4.110   2.262   8.240  0.2883  0.0338  0.6969
  187SAPI  H17R21513   4.178   2.289   8.324 -2.6187  1.6151  2.7103
  187SAPI  H17S21514   4.018   2.251   8.300  0.0612  1.3603  0.6284
  187SAPI  C21821515   4.086   2.378   8.140 -0.1094 -0.1542  0.5963
  187SAPI  H18R21516   3.984   2.373   8.097  0.2568  2.3522 -0.7443
  187SAPI  H18S21517   4.152   2.379   8.050 -1.1634  2.0366 -0.2319
  187SAPI  C21921518   4.104   2.520   8.206  0.3144  0.5875  0.3256
  187SAPI  H19R21519   4.025   2.528   8.284  0.0099  1.1316 -0.0361
  187SAPI  H19S21520   4.068   2.591   8.129 -1.1979 -1.0470 -0.5394
  187SAPI  C22021521   4.238   2.558   8.264  0.3442 -0.8106  0.2877
  187SAPI  H20R21522   4.311   2.555   8.180  0.3941 -0.1678  0.3005
  187SAPI  H20S21523   4.268   2.478   8.334  0.2827 -0.2274  0.9889
  187SAPI  H20T21524   4.233   2.650   8.326  2.2444 -1.1147  0.9399
  187SAPI   C3321525   4.466   2.779   7.167 -0.0648 -0.2345 -0.7566
  187SAPI   H3X21526   4.383   2.716   7.127  1.3461 -2.0471 -0.9612
  187SAPI   H3Y21527   4.449   2.888   7.152 -0.4188 -0.1482  0.2044
  187SAPI   C3421528   4.491   2.752   7.317 -0.4345 -0.4191  0.2109
  187SAPI   H4X21529   4.553   2.835   7.356  1.5687 -1.8661  0.2565
  187SAPI   H4Y21530   4.546   2.659   7.342 -0.5190 -0.1243  1.5464
  187SAPI   C3521531   4.364   2.746   7.399  0.3083 -0.2514  0.0131
  187SAPI   H5X21532   4.295   2.668   7.362  2.3682 -1.0081 -2.4943
  187SAPI   H5Y21533   4.307   2.841   7.386 -0.9728 -0.8935  0.7688
  187SAPI   C3621534   4.376   2.729   7.548  0.0343  0.3657 -0.4454
  187SAPI   H6X21535   4.454   2.791   7.598  1.6947 -2.5208  0.7555
  187SAPI   H6Y21536   4.404   2.624   7.569  2.2424  0.9393 -0.2500
  187SAPI   C3721537   4.234   2.758   7.611  0.0934 -0.0929  0.3368
  187SAPI   H7X21538   4.177   2.669   7.576  0.5345 -1.3182  2.5782
  187SAPI   H7Y21539   4.200   2.855   7.570 -0.6161 -0.2745  0.4766
  187SAPI   C3821540   4.236   2.765   7.763  0.1559 -0.1201  0.3966
  187SAPI   H8X21541   4.316   2.692   7.787 -0.3807 -0.7607  0.2765
  187SAPI   H8Y21542   4.136   2.736   7.801 -0.4492  1.1639 -0.1526
  187SAPI   C3921543   4.286   2.893   7.823 -0.1417 -0.0137 -0.3713
  187SAPI   H9X21544   4.214   2.976   7.817 -2.0676 -1.6079 -0.4317
  187SAPI   H9Y21545   4.383   2.921   7.778  0.9269 -0.2828  1.6387
  187SAPI  C31021546   4.312   2.868   7.971 -0.2923 -0.0567 -0.5484
  187SAPI  H10X21547   4.404   2.806   7.959  1.1198  2.1468 -1.8002
  187SAPI  H10Y21548   4.232   2.814   8.026 -0.2706  0.0238 -0.4387
  187SAPI  C31121549   4.350   2.989   8.056 -0.3061 -0.3252  0.1935
  187SAPI  H11X21550   4.263   3.057   8.061  0.1832  0.2936  4.2025
  187SAPI  H11Y21551   4.426   3.044   7.996 -0.8379 -1.5963 -1.7349
  187SAPI  C31221552   4.405   2.950   8.191 -0.1934  0.2324  0.2191
  187SAPI  H12X21553   4.493   2.882   8.185 -1.0229 -1.0000  1.3749
  187SAPI  H12Y21554   4.312   2.901   8.226 -0.4995  1.4368  1.1631
  187SAPI  C31321555   4.442   3.074   8.276  0.2086 -0.3358  0.5838
  187SAPI  H13X21556   4.356   3.144   8.268  0.7671  0.2299 -0.7369
  187SAPI  H13Y21557   4.536   3.119   8.236 -0.6942 -1.3401 -3.0211
  187SAPI  C31421558   4.462   3.042   8.427 -0.5336  0.1714  0.4100
  187SAPI  H14X21559   4.364   3.033   8.478 -0.4493  0.5079  0.6382
  187SAPI  H14Y21560   4.512   3.133   8.466 -1.7242  0.1477  2.0698
  187SAPI  C31521561   4.558   2.921   8.452  0.7555 -0.2103 -0.3741
  187SAPI  H15X21562   4.592   2.942   8.556 -0.7506 -1.5196  0.4207
  187SAPI  H15Y21563   4.654   2.924   8.397  0.1529 -1.8248 -1.5735
  187SAPI  C31621564   4.486   2.786   8.465  0.1364 -0.1121 -0.8717
  187SAPI  H16X21565   4.563   2.706   8.454  1.2430  0.0589  3.6746
  187SAPI  H16Y21566   4.409   2.789   8.385  1.5016  0.8494 -2.2203
  187SAPI  C31721567   4.409   2.773   8.592 -0.6077  0.0469 -0.5984
  187SAPI  H17X21568   4.328   2.848   8.600 -0.5495 -0.0580  1.5239
  187SAPI  H17Y21569   4.485   2.789   8.671 -0.5803  0.9554 -0.7997
  187SAPI  C31821570   4.340   2.641   8.615  0.0080  0.4992 -0.2405
  187SAPI  H18X21571   4.263   2.614   8.539  0.2872 -0.3622 -0.2260
  187SAPI  H18Y21572   4.310   2.655   8.721  1.9040  5.8766 -0.1203
  187SAPI  H18Z21573   4.416   2.561   8.605  0.0192  0.1376  2.1965
  188SAPI   C1221574   4.401   3.639   6.159 -0.2460  0.9875 -0.8064
  188SAPI    H221575   4.482   3.591   6.218  0.7940  1.6184 -1.6850
  188SAPI    O221576   4.474   3.686   6.048 -0.5057 -0.4008 -0.0029
  188SAPI   HO221577   4.528   3.758   6.081  1.3777 -1.8969  0.3547
  188SAPI   C1321578   4.298   3.527   6.123 -1.0035 -0.6246  0.7991
  188SAPI    H321579   4.245   3.494   6.214  0.5287 -0.0349  1.9449
  188SAPI    O321580   4.363   3.410   6.070 -0.2426  0.6337  0.1762
  188SAPI   HO321581   4.398   3.435   5.984  0.2433 -2.3243 -0.5773
  188SAPI   C1421582   4.197   3.588   6.023  0.2387 -1.1515  0.0664
  188SAPI    H421583   4.263   3.618   5.938  0.3134  0.0080  0.5149
  188SAPI    O421584   4.104   3.493   5.969 -0.7612  0.0103 -0.3172
  188SAPI   HO421585   4.140   3.476   5.881  1.5564 -0.4858  0.6643
  188SAPI   C1521586   4.127   3.710   6.090  0.1535  0.2180  0.4419
  188SAPI    H521587   4.064   3.667   6.171  0.4822 -1.2204 -0.0274
  188SAPI    O521588   4.040   3.770   5.998 -0.2660  0.3300  0.4766
  188SAPI   HO521589   4.088   3.780   5.916 -1.9074  0.1720 -0.5557
  188SAPI   C1621590   4.228   3.811   6.146  0.0423 -0.0959 -0.3427
  188SAPI    H621591   4.280   3.857   6.059  1.9769  1.4564  1.5245
  188SAPI    O621592   4.167   3.919   6.222  0.0666 -0.5613  0.6952
  188SAPI   HO621593   4.238   3.977   6.249 -1.1416  0.2028  2.4530
  188SAPI   C1121594   4.327   3.742   6.234 -0.4601 -0.0254 -0.0436
  188SAPI    H121595   4.275   3.686   6.314  1.7335 -3.3228 -0.7441
  188SAPI     P21596   4.493   3.813   6.436 -0.3660 -0.0648  0.3052
  188SAPI   O1321597   4.596   3.917   6.454 -0.0168 -0.1157  0.4643
  188SAPI   O1421598   4.538   3.673   6.453  0.5216  0.5189 -0.8060
  188SAPI   O1221599   4.424   3.838   6.282  0.3428  0.0153 -0.3497
  188SAPI   O1121600   4.372   3.836   6.537 -0.1202 -0.4349 -0.3784
  188SAPI    C121601   4.323   3.968   6.555 -0.4774 -0.4011 -0.1635
  188SAPI    HA21602   4.347   4.037   6.471  0.7226 -1.0802 -0.4181
  188SAPI    HB21603   4.212   3.961   6.553 -0.6163  0.3724  2.2594
  188SAPI    C221604   4.361   4.016   6.698 -0.3935  0.1464 -0.5937
  188SAPI    HS21605   4.304   4.110   6.715  3.3195  2.3716  0.9205
  188SAPI   O2121606   4.501   4.044   6.718  0.1729  0.5984 -0.1844
  188SAPI   C2121607   4.553   4.141   6.632  0.6811 -0.4546 -0.1637
  188SAPI   O2221608   4.487   4.207   6.553 -0.3773 -0.3294 -0.4428
  188SAPI   C2221609   4.709   4.151   6.636 -0.7026  0.7000  0.1374
  188SAPI   H2R21610   4.742   4.114   6.735  0.9160 -0.3581 -0.7380
  188SAPI   H2S21611   4.744   4.073   6.565  0.4137  1.0688  0.2541
  188SAPI    C321612   4.316   3.911   6.806  0.0998 -0.1088 -0.2769
  188SAPI    HX21613   4.390   3.830   6.788  1.1404  0.7711 -0.0170
  188SAPI    HY21614   4.214   3.883   6.772 -0.8515 -0.3536  2.5710
  188SAPI   O3121615   4.322   3.955   6.941  0.7384 -0.7661  0.2148
  188SAPI   C3121616   4.292   3.872   7.034 -0.3991 -0.1224 -0.0474
  188SAPI   O3221617   4.281   3.752   7.021  0.5018 -0.0422  0.3021
  188SAPI   C3221618   4.280   3.945   7.168  1.2993  1.0392  1.0468
  188SAPI   H2X21619   4.378   3.991   7.193  1.3280  1.0462  0.9248
  188SAPI   H2Y21620   4.241   3.873   7.243 -2.1491  4.2198  2.6254
  188SAPI   C2321621   4.765   4.279   6.576 -0.2262  0.2100 -0.3736
  188SAPI   H3R21622   4.714   4.291   6.478  0.7221  2.1113 -0.6845
  188SAPI   H3S21623   4.874   4.269   6.561 -0.4245  1.1189 -3.1120
  188SAPI   C2421624   4.751   4.404   6.667  0.1080 -0.3006 -0.2211
  188SAPI   H4R21625   4.640   4.406   6.673  0.1199  2.2143 -0.1074
  188SAPI   H4S21626   4.767   4.499   6.613 -2.9788  0.6447  0.3177
  188SAPI   C2521627   4.828   4.394   6.795 -1.2547 -0.4309  0.0021
  188SAPI   H5R21628   4.938   4.392   6.790 -1.1667 -2.4417  1.5191
  188SAPI   C2621629   4.778   4.392   6.921 -0.8593 -0.0226  0.7860
  188SAPI   H6R21630   4.847   4.407   7.005 -1.8132  2.6222  1.1774
  188SAPI   C2721631   4.627   4.385   6.962  0.0408 -0.3933  0.2095
  188SAPI   H7R21632   4.566   4.386   6.869  0.0318 -2.1367  0.1536
  188SAPI   H7S21633   4.608   4.476   7.022  2.1590  0.6434 -0.5875
  188SAPI   C2821634   4.587   4.255   7.031  0.4553 -0.2069 -0.4821
  188SAPI   H8R21635   4.555   4.172   6.966 -1.3431  1.9779 -2.5727
  188SAPI   C2921636   4.587   4.237   7.162 -0.0389  0.6709 -0.2029
  188SAPI   H9R21637   4.552   4.137   7.190 -0.4931  0.1753 -2.3209
  188SAPI  C21021638   4.623   4.342   7.265  0.4946 -0.1350  0.2374
  188SAPI  H10R21639   4.622   4.445   7.223 -0.1811 -1.1982 -2.5799
  188SAPI  H10S21640   4.724   4.342   7.309  0.5116  0.7010  0.2022
  188SAPI  C21121641   4.529   4.334   7.386  0.0573  0.1568  0.1026
  188SAPI  H11R21642   4.425   4.345   7.351 -0.4805 -0.6391  1.4007
  188SAPI  C21221643   4.559   4.302   7.517  0.1513 -0.4793  0.2955
  188SAPI  H12R21644   4.473   4.302   7.586 -1.6195  1.5286 -1.7198
  188SAPI  C21321645   4.687   4.263   7.586  0.1642 -0.9795  0.8810
  188SAPI  H13R21646   4.776   4.289   7.526  0.2597  0.5514  1.6290
  188SAPI  H13S21647   4.688   4.152   7.579 -1.4649 -0.9030 -1.8370
  188SAPI  C21421648   4.703   4.305   7.727  1.0097  0.0245 -0.0539
  188SAPI  H14R21649   4.788   4.373   7.737  0.2723  0.8715  0.5662
  188SAPI  C21521650   4.620   4.279   7.832 -0.3823  0.6570 -0.0344
  188SAPI  H15R21651   4.651   4.297   7.936 -0.7161  1.2241 -0.0275
  188SAPI  C21621652   4.498   4.195   7.837  0.1304  0.4215 -0.3969
  188SAPI  H16R21653   4.497   4.117   7.758 -1.1930  1.0958 -1.0944
  188SAPI  H16S21654   4.401   4.247   7.820 -1.5502 -2.5275 -0.5683
  188SAPI  C21721655   4.470   4.124   7.973 -0.9584  0.8618 -0.1071
  188SAPI  H17R21656   4.404   4.187   8.038 -0.3925  0.2690  1.0785
  188SAPI  H17S21657   4.570   4.116   8.021 -0.8765 -1.2418 -0.5487
  188SAPI  C21821658   4.412   3.984   7.966 -0.1332 -0.1782  0.3867
  188SAPI  H18R21659   4.454   3.918   7.886 -1.1048 -0.9664  0.5072
  188SAPI  H18S21660   4.307   3.997   7.932  0.4293 -0.2308 -1.5047
  188SAPI  C21921661   4.413   3.921   8.106  0.3253  0.0185  0.0635
  188SAPI  H19R21662   4.411   4.005   8.179  1.4417  0.2895 -0.1933
  188SAPI  H19S21663   4.506   3.867   8.133  0.5885  0.6098  0.3510
  188SAPI  C22021664   4.288   3.839   8.118 -0.4188  0.4579  0.3850
  188SAPI  H20R21665   4.294   3.785   8.215 -2.4785  1.1791  0.9618
  188SAPI  H20S21666   4.274   3.764   8.037 -0.4328 -0.7001  1.4210
  188SAPI  H20T21667   4.199   3.905   8.128 -0.4340  0.3555  0.9690
  188SAPI   C3321668   4.168   4.052   7.155 -0.8172 -0.7237  0.4091
  188SAPI   H3X21669   4.067   4.008   7.143 -1.8713  1.8695 -1.0711
  188SAPI   H3Y21670   4.188   4.128   7.076 -2.3393 -1.2683 -0.5324
  188SAPI   C3421671   4.169   4.139   7.288  0.1570  0.0565 -0.6827
  188SAPI   H4X21672   4.110   4.231   7.267  2.8192  1.9647 -0.2603
  188SAPI   H4Y21673   4.275   4.168   7.305  0.4373 -0.0438 -2.1547
  188SAPI   C3521674   4.123   4.065   7.413 -0.7462 -0.2225 -0.1716
  188SAPI   H5X21675   4.189   3.976   7.421 -0.3288  0.0985 -0.0262
  188SAPI   H5Y21676   4.016   4.035   7.403 -0.8585  0.5749 -1.7114
  188SAPI   C3621677   4.138   4.150   7.539  0.7075  0.1203  0.1964
  188SAPI   H6X21678   4.083   4.246   7.532 -0.5770 -0.6634 -0.6974
  188SAPI   H6Y21679   4.246   4.175   7.553  0.5290  1.2850 -0.3881
  188SAPI   C3721680   4.068   4.089   7.662  0.2954  0.3255 -0.7437
  188SAPI   H7X21681   4.112   3.987   7.661  0.0383  0.1620  0.9803
  188SAPI   H7Y21682   3.960   4.075   7.644  0.4483 -0.5896 -0.9738
  188SAPI   C3821683   4.086   4.166   7.791 -1.1207  0.5442 -0.6249
  188SAPI   H8X21684   4.040   4.267   7.777 -1.0238  0.7200  0.2454
  188SAPI   H8Y21685   4.195   4.178   7.805 -1.1999  1.3278 -0.6376
  188SAPI   C3921686   4.025   4.115   7.922  0.4298  0.3281  0.0854
  188SAPI   H9X21687   4.050   4.007   7.931  1.8240  0.3236 -2.7152
  188SAPI   H9Y21688   3.916   4.110   7.903  0.6144 -0.9842 -0.7919
  188SAPI  C31021689   4.079   4.179   8.053 -0.6304  0.1460 -0.8628
  188SAPI  H10X21690   4.062   4.288   8.034 -2.4984  0.2673  1.0884
  188SAPI  H10Y21691   4.186   4.154   8.066 -0.7687 -0.0471 -0.0762
  188SAPI  C31121692   4.000   4.146   8.177  0.8158 -0.4603  0.3393
  188SAPI  H11X21693   3.983   4.037   8.160 -2.7544 -0.3148  2.0156
  188SAPI  H11Y21694   3.906   4.205   8.188  2.0390  1.9023 -1.1315
  188SAPI  C31221695   4.089   4.170   8.292 -0.2232  0.1628 -0.1840
  188SAPI  H12X21696   4.093   4.276   8.327 -2.2658  0.3574 -0.4581
  188SAPI  H12Y21697   4.193   4.140   8.266 -1.6480 -2.7318 -3.2961
  188SAPI  C31321698   4.037   4.089   8.421 -0.0481  0.4143 -0.2723
  188SAPI  H13X21699   3.928   4.103   8.405 -0.4785 -0.2192  1.8099
  188SAPI  H13Y21700   4.074   4.141   8.512  0.4030 -0.0589 -0.1812
  188SAPI  C31421701   4.088   3.944   8.411  0.4377 -0.1096  0.0196
  188SAPI  H14X21702   4.198   3.947   8.427  0.5523 -1.0217 -0.5454
  188SAPI  H14Y21703   4.066   3.905   8.309  0.2088  0.3035 -0.0893
  188SAPI  C31521704   4.026   3.850   8.518  0.1852 -0.0936 -0.2116
  188SAPI  H15X21705   3.917   3.872   8.531  0.1837  1.4946 -2.4192
  188SAPI  H15Y21706   4.066   3.866   8.621  0.4426 -0.7767 -0.2034
  188SAPI  C31621707   4.042   3.700   8.488 -0.5898  0.2783  0.0312
  188SAPI  H16X21708   4.151   3.691   8.507 -0.2544 -0.0883 -1.8713
  188SAPI  H16Y21709   4.024   3.678   8.381  2.1175 -1.1854 -0.1966
  188SAPI  C31721710   3.970   3.615   8.593 -0.0019 -0.0822  0.8069
  188SAPI  H17X21711   3.999   3.652   8.693 -1.0620 -1.9169  1.8568
  188SAPI  H17Y21712   3.991   3.507   8.577 -0.3751  0.2050 -2.3610
  188SAPI  C31821713   3.816   3.611   8.578  0.1127 -0.0434 -0.7264
  188SAPI  H18X21714   3.793   3.601   8.469  0.0957 -1.3791 -0.6132
  188SAPI  H18Y21715   3.774   3.708   8.613 -0.8083 -0.6054 -0.2618
  188SAPI  H18Z21716   3.767   3.530   8.635 -0.9990  1.4254  0.4805
  189POPC     N21717   3.672   0.542  10.666  0.4694  0.2302  0.1864
  189POPC   C1221718   3.676   0.392  10.700 -0.0053 -0.8086  0.0922
  189POPC  H12A21719   3.773   0.344  10.694 -1.0307 -2.8818 -0.7734
  189POPC  H12B21720   3.609   0.349  10.627 -1.2114  1.7397 -0.4256
  189POPC   C1321721   3.762   0.615  10.768  0.1358 -0.6347  0.1188
  189POPC  H13A21722   3.760   0.574  10.867 -1.0816 -0.0701  0.3434
  189POPC  H13B21723   3.866   0.611  10.737 -0.0810 -0.5845 -0.6522
  189POPC  H13C21724   3.734   0.720  10.762  2.9025  0.3013  1.7963
  189POPC   C1421725   3.716   0.567  10.534  0.4739  0.5564  0.3849
  189POPC  H14A21726   3.718   0.669  10.500  2.4625  0.9762  1.5935
  189POPC  H14B21727   3.817   0.534  10.518  1.0467  2.1994  0.4146
  189POPC  H14C21728   3.646   0.511  10.474 -2.1420  1.6110  2.2167
  189POPC   C1521729   3.533   0.600  10.691 -0.2164 -0.0704  0.0917
  189POPC  H15A21730   3.456   0.565  10.623  0.0234 -0.8017  0.1849
  189POPC  H15B21731   3.537   0.707  10.674  1.7956 -0.2660 -1.0091
  189POPC  H15C21732   3.497   0.576  10.790  1.9179 -0.9651  0.7025
  189POPC   C1121733   3.617   0.360  10.842  0.1517 -0.0978 -0.2150
  189POPC  H11A21734   3.677   0.411  10.921 -1.2848  1.0079  0.2040
  189POPC  H11B21735   3.634   0.252  10.862  0.5919  0.2268  1.3048
  189POPC     P21736   3.373   0.300  10.789 -0.2818  0.3008 -0.6475
  189POPC   O1321737   3.302   0.206  10.880 -0.1093 -0.0789 -0.1547
  189POPC   O1421738   3.441   0.242  10.672  0.2802  0.4677 -0.3647
  189POPC   O1221739   3.482   0.388  10.868 -0.3333 -0.4163  0.6221
  189POPC   O1121740   3.271   0.403  10.746 -0.3867  0.2364  0.0652
  189POPC    C121741   3.131   0.394  10.783  0.1246 -0.4320  0.0752
  189POPC    HA21742   3.094   0.498  10.785  0.5711 -0.2650  2.6234
  189POPC    HB21743   3.118   0.364  10.889 -0.0770 -1.5852 -0.2631
  189POPC    C221744   3.044   0.302  10.691  0.0670 -0.4676 -0.0229
  189POPC    HS21745   3.068   0.197  10.719  1.1539  0.0573  1.1037
  189POPC   O2121746   3.085   0.340  10.552 -0.7677 -0.1751 -0.0543
  189POPC   C2121747   3.096   0.240  10.462 -0.1702  0.2638 -0.0216
  189POPC   O2221748   3.119   0.124  10.494 -0.0067 -0.0822  0.1977
  189POPC   C2221749   3.087   0.297  10.320 -0.3930  0.3564 -0.1678
  189POPC   H2R21750   3.158   0.382  10.314 -2.8123  2.6826  1.7883
  189POPC   H2S21751   2.983   0.325  10.296 -0.4302 -0.4872 -1.0886
  189POPC    C321752   2.893   0.319  10.714  0.0679  0.0012  0.0681
  189POPC    HX21753   2.867   0.426  10.729  2.1902  0.5579  0.0680
  189POPC    HY21754   2.868   0.274  10.813 -0.5775  0.7647  0.2578
  189POPC   O3121755   2.808   0.257  10.611 -0.0988 -0.2909 -0.5998
  189POPC   C3121756   2.754   0.138  10.647 -0.2282 -0.2880  0.0429
  189POPC   O3221757   2.755   0.080  10.755 -0.3477 -0.3190  0.2890
  189POPC   C3221758   2.676   0.087  10.525 -0.3037 -0.2461 -0.5922
  189POPC   H2X21759   2.623   0.170  10.473 -1.6280  0.1050  1.2266
  189POPC   H2Y21760   2.600   0.016  10.565  0.4120 -1.3319 -1.1011
  189POPC   C2321761   3.136   0.217  10.196  0.3165  0.5611 -1.5461
  189POPC   H3R21762   3.096   0.114  10.209 -1.9259  1.2452 -2.4144
  189POPC   H3S21763   3.246   0.217  10.185  0.7427  4.3918  0.8329
  189POPC   C2421764   3.086   0.273  10.067 -0.1236 -0.3184  0.2052
  189POPC   H4R21765   3.094   0.383  10.078 -0.8699  0.0170 -2.1668
  189POPC   H4S21766   2.982   0.232  10.065 -0.3795  0.2922  0.6510
  189POPC   C2521767   3.153   0.222   9.942  0.2174  0.4517  0.0261
  189POPC   H5R21768   3.263   0.230   9.945  0.1981  1.8453 -1.5934
  189POPC   H5S21769   3.105   0.273   9.856 -0.4524 -0.8599 -0.4014
  189POPC   C2621770   3.120   0.076   9.922  0.8276  0.6268  0.6596
  189POPC   H6R21771   3.015   0.056   9.893  1.5976 -3.6391  0.1774
  189POPC   H6S21772   3.135   0.016  10.014 -1.0102  1.0087  1.2491
  189POPC   C2721773   3.222   0.015   9.824 -0.6898 -0.2501  0.1877
  189POPC   H7R21774   3.219  -0.093   9.798  2.8213 -0.6386  0.9526
  189POPC   H7S21775   3.319   0.035   9.874 -1.0559  1.9338  0.1400
  189POPC   C2821776   3.230   0.096   9.689 -0.1866  0.9520  0.2222
  189POPC   H8R21777   3.313   0.047   9.633 -0.5885  0.2313  0.2396
  189POPC   H8S21778   3.259   0.203   9.699  0.8469  0.5157  2.3816
  189POPC   C2921779   3.097   0.086   9.623 -0.6748 -0.8491 -0.0881
  189POPC   H9121780   3.012   0.088   9.693 -0.8999  0.3820 -0.3718
  189POPC  C21021781   3.074   0.070   9.488 -0.4640  0.4111 -0.7701
  189POPC  H10121782   2.968   0.058   9.459 -1.3005  1.9912  1.3787
  189POPC  C21121783   3.186   0.059   9.389  0.4323 -0.5151  0.6600
  189POPC  H11R21784   3.197  -0.048   9.361 -3.2978 -0.6076 -1.1519
  189POPC  H11S21785   3.286   0.092   9.424  0.4947  0.6291 -0.5119
  189POPC  C21221786   3.153   0.145   9.266  0.3886  0.5422  0.4769
  189POPC  H12R21787   3.045   0.142   9.240  0.1202 -0.7624  1.6147
  189POPC  H12S21788   3.190   0.094   9.174 -0.5466 -0.1932  0.4893
  189POPC  C21321789   3.197   0.289   9.268 -0.5388  0.1681  0.1541
  189POPC  H13R21790   3.304   0.295   9.295 -0.1688 -1.0855 -0.9056
  189POPC  H13S21791   3.141   0.330   9.355 -0.7962 -0.3704  0.2479
  189POPC  C21421792   3.169   0.371   9.147  0.0568  0.5007  1.1618
  189POPC  H14R21793   3.160   0.481   9.164 -1.0417  0.5730  0.2579
  189POPC  H14S21794   3.071   0.333   9.110  1.1778  1.4621 -3.3595
  189POPC  C21521795   3.261   0.340   9.034  0.3047 -0.5731  0.0215
  189POPC  H15R21796   3.279   0.231   9.017  2.4083 -0.4508  1.0796
  189POPC  H15S21797   3.362   0.381   9.056  0.2512 -1.0833  1.2808
  189POPC  C21621798   3.204   0.406   8.904 -0.4102 -0.4607 -0.3914
  189POPC  H16R21799   3.185   0.514   8.922 -1.2786 -0.4232 -1.4440
  189POPC  H16S21800   3.108   0.358   8.876 -0.3399 -0.6173 -0.3669
  189POPC  C21721801   3.290   0.390   8.777 -0.6134 -0.1540  0.1075
  189POPC  H17R21802   3.387   0.442   8.793 -0.5801 -0.2096  0.0892
  189POPC  H17S21803   3.247   0.432   8.684  2.6634 -3.4852 -3.2659
  189POPC  C21821804   3.322   0.249   8.730 -0.1049  0.0448 -0.4793
  189POPC  H18R21805   3.356   0.255   8.624  2.3725  1.0406  0.3006
  189POPC  H18S21806   3.238   0.178   8.742 -0.4479  0.7383  1.6982
  189POPC  H18T21807   3.411   0.211   8.786 -3.5891 -1.2538  4.9899
  189POPC   C3321808   2.761   0.022  10.420  0.2236  1.5206  0.3270
  189POPC   H3X21809   2.826  -0.054  10.468 -1.2263  0.6553  1.0061
  189POPC   H3Y21810   2.825   0.093  10.363  0.3394  1.2387  0.1018
  189POPC   C3421811   2.677  -0.056  10.319  0.2039 -0.6094  0.6605
  189POPC   H4X21812   2.628   0.019  10.254  0.4322 -2.2170 -1.4648
  189POPC   H4Y21813   2.612  -0.123  10.379  1.6475 -3.2107 -0.4889
  189POPC   C3521814   2.773  -0.135  10.217 -0.4136  0.0389  0.1642
  189POPC   H5X21815   2.874  -0.087  10.215 -0.4610  0.1466  0.3993
  189POPC   H5Y21816   2.733  -0.141  10.114 -0.7991 -0.2064  0.3303
  189POPC   C3621817   2.794  -0.275  10.256 -0.3360 -0.4638 -0.0152
  189POPC   H6X21818   2.711  -0.340  10.219 -0.4581 -1.8314  2.4439
  189POPC   H6Y21819   2.792  -0.283  10.367 -1.0526  0.3652  0.0464
  189POPC   C3721820   2.932  -0.317  10.205 -0.4443 -0.4427  0.0149
  189POPC   H7X21821   2.958  -0.421  10.236  1.2356 -1.3481 -3.7887
  189POPC   H7Y21822   3.010  -0.244  10.235 -2.4552  1.1654  1.7069
  189POPC   C3821823   2.925  -0.326  10.056  0.2438 -0.6479  0.1090
  189POPC   H8X21824   2.928  -0.220  10.023 -0.1338 -0.0358  1.9346
  189POPC   H8Y21825   2.835  -0.378  10.016  1.4489 -2.9900  0.3248
  189POPC   C3921826   3.049  -0.374   9.985 -1.1289 -0.2376  0.9548
  189POPC   H9X21827   3.086  -0.476  10.010 -2.0157 -0.8942 -0.2898
  189POPC   H9Y21828   3.129  -0.301  10.010 -1.2310 -0.4859  2.0280
  189POPC  C31021829   3.030  -0.377   9.825 -0.7176 -0.2956 -0.4115
  189POPC  H10X21830   3.002  -0.272   9.800  1.0327  0.7877  1.9075
  189POPC  H10Y21831   2.963  -0.465   9.812  1.0007 -1.5470 -1.2473
  189POPC  C31121832   3.169  -0.398   9.753 -0.0412 -0.5714 -0.3047
  189POPC  H11X21833   3.193  -0.505   9.765 -0.5898 -0.6627  0.0568
  189POPC  H11Y21834   3.250  -0.339   9.801 -0.2655  0.6668 -1.3777
  189POPC  C31221835   3.143  -0.360   9.608  0.3629 -0.6345  0.6575
  189POPC  H12X21836   3.137  -0.252   9.579 -0.3519 -0.3529  1.7999
  189POPC  H12Y21837   3.045  -0.404   9.577  0.9434 -1.1814 -0.4599
  189POPC  C31321838   3.243  -0.439   9.514 -0.4680  0.3821  0.1464
  189POPC  H13X21839   3.256  -0.545   9.545 -0.0699  0.0942 -0.9784
  189POPC  H13Y21840   3.339  -0.384   9.516 -0.6263  0.8164 -2.1437
  189POPC  C31421841   3.186  -0.445   9.371  0.0273  0.2142  0.0607
  189POPC  H14X21842   3.085  -0.490   9.376 -0.8513  1.9089 -1.3697
  189POPC  H14Y21843   3.254  -0.506   9.309 -1.9266  0.0926 -2.0746
  189POPC  C31521844   3.171  -0.307   9.306 -0.1974 -1.0815 -0.2391
  189POPC  H15X21845   3.260  -0.244   9.328  1.9162 -4.2093  0.9452
  189POPC  H15Y21846   3.078  -0.260   9.345  0.6260 -1.1130  1.8742
  189POPC  C31621847   3.168  -0.307   9.155 -0.6542 -0.5917 -0.3141
  189POPC  H16X21848   3.253  -0.369   9.119  0.0323 -0.8214  1.6224
  189POPC  H16Y21849   3.188  -0.208   9.108  0.0974  0.0112  1.2309
  189POPC  H16Z21850   3.069  -0.348   9.124  0.2495 -2.5006 -0.8290
  190POPC     N21851   0.475   0.367  11.284  0.0088 -0.1866  0.8411
  190POPC   C1221852   0.600   0.314  11.207 -0.8309  0.4030 -0.0007
  190POPC  H12A21853   0.645   0.245  11.275 -1.2570  0.8708  0.7704
  190POPC  H12B21854   0.670   0.396  11.199  1.8780 -1.9208 -2.7430
  190POPC   C1321855   0.378   0.258  11.311 -0.0011 -0.8246 -0.0935
  190POPC  H13A21856   0.298   0.292  11.376  2.5683  0.1183  2.7735
  190POPC  H13B21857   0.341   0.224  11.215 -0.2282  0.3930 -0.4527
  190POPC  H13C21858   0.424   0.177  11.365  0.2843  0.9760  2.6084
  190POPC   C1421859   0.522   0.430  11.408  0.3590  0.6294 -0.4663
  190POPC  H14A21860   0.577   0.357  11.466 -0.0999  1.1594  0.6696
  190POPC  H14B21861   0.590   0.510  11.382  1.2267 -0.1608 -0.7096
  190POPC  H14C21862   0.445   0.470  11.473 -0.8013  0.0894 -1.4779
  190POPC   C1521863   0.419   0.480  11.203 -0.3714 -0.3887 -0.1941
  190POPC  H15A21864   0.485   0.565  11.192 -3.0013  1.4390 -3.5368
  190POPC  H15B21865   0.330   0.525  11.246  0.8378  2.1460 -0.1778
  190POPC  H15C21866   0.393   0.449  11.103 -1.5743 -0.3895  0.1062
  190POPC   C1121867   0.584   0.251  11.057  1.0831 -0.1158  0.7867
  190POPC  H11A21868   0.528   0.155  11.057 -2.3100  1.5786 -3.2089
  190POPC  H11B21869   0.686   0.228  11.020  0.8372  1.2241 -0.7980
  190POPC     P21870   0.608   0.439  10.882  0.4100  0.1540 -0.0103
  190POPC   O1321871   0.716   0.487  10.966  0.1521  0.0086 -0.3210
  190POPC   O1421872   0.535   0.555  10.819 -0.0277 -0.0710  0.0049
  190POPC   O1221873   0.506   0.342  10.967  0.2696 -0.3737  0.0891
  190POPC   O1121874   0.664   0.350  10.758  0.1809  0.2823 -0.0988
  190POPC    C121875   0.599   0.226  10.730  0.1929  0.3897 -0.4303
  190POPC    HA21876   0.501   0.214  10.781  0.5149 -0.4650  0.0094
  190POPC    HB21877   0.672   0.150  10.766  1.4473  1.2615 -1.0945
  190POPC    C221878   0.582   0.218  10.573 -0.1594 -0.2450 -0.9160
  190POPC    HS21879   0.549   0.112  10.560  1.0560 -0.7354 -0.2584
  190POPC   O2121880   0.715   0.233  10.508 -0.0505  0.1401 -0.4221
  190POPC   C2121881   0.726   0.182  10.388  0.7100  0.2210  0.4510
  190POPC   O2221882   0.637   0.130  10.327  0.0004 -0.3675  0.4212
  190POPC   C2221883   0.866   0.201  10.335  0.3413  0.4565  0.1711
  190POPC   H2R21884   0.938   0.193  10.420  1.0497 -1.4099 -0.5611
  190POPC   H2S21885   0.873   0.301  10.287 -1.7762  1.7133  2.2668
  190POPC    C321886   0.474   0.316  10.532  0.3863 -0.2988  0.0382
  190POPC    HX21887   0.523   0.413  10.556 -1.6458  1.0444 -1.0144
  190POPC    HY21888   0.375   0.310  10.582 -0.4745  0.3468 -1.5381
  190POPC   O3121889   0.452   0.317  10.391  0.1090  0.0472 -0.1149
  190POPC   C3121890   0.364   0.238  10.328 -0.5823  0.0905  0.4419
  190POPC   O3221891   0.291   0.152  10.369 -0.3491 -0.6866  0.9047
  190POPC   C3221892   0.368   0.295  10.176  0.0432  0.3567  0.9830
  190POPC   H2X21893   0.472   0.305  10.140 -0.7940  0.0791 -1.7504
  190POPC   H2Y21894   0.314   0.393  10.173 -0.7278 -0.0920 -0.7323
  190POPC   C2321895   0.894   0.086  10.232  0.3383 -0.0449 -0.3815
  190POPC   H3R21896   0.804   0.068  10.168  1.1291 -1.4632 -1.1541
  190POPC   H3S21897   0.907  -0.000  10.300 -2.0152 -0.3977 -0.2923
  190POPC   C2421898   1.019   0.109  10.141 -0.3778  0.0785 -0.1321
  190POPC   H4R21899   1.115   0.107  10.196  0.6783 -0.8524 -1.9215
  190POPC   H4S21900   1.020   0.217  10.115  1.8920 -0.1698 -1.2880
  190POPC   C2521901   1.012   0.028  10.011 -0.1691 -0.6159  0.2768
  190POPC   H5R21902   0.907  -0.002   9.992 -1.1986  2.1068  1.1956
  190POPC   H5S21903   1.069  -0.067  10.013  0.1165 -0.5580 -2.1704
  190POPC   C2621904   1.060   0.106   9.895  0.2475  0.1353  0.4001
  190POPC   H6R21905   1.156   0.157   9.921  0.6595 -0.8908  0.9648
  190POPC   H6S21906   0.984   0.186   9.885  0.8619  0.8601  1.2442
  190POPC   C2721907   1.078   0.041   9.757  0.2202 -1.1636 -0.2098
  190POPC   H7R21908   0.988  -0.023   9.749  1.0353 -2.3125 -0.5192
  190POPC   H7S21909   1.171  -0.020   9.758  0.6120 -0.5808  0.3968
  190POPC   C2821910   1.088   0.142   9.645 -0.2003  0.2715  0.1342
  190POPC   H8R21911   1.171   0.211   9.670 -0.1664  0.8814 -1.5355
  190POPC   H8S21912   0.987   0.186   9.629 -0.0161  0.3880 -0.7451
  190POPC   C2921913   1.121   0.060   9.519 -0.0321  0.0391 -0.5973
  190POPC   H9121914   1.222   0.016   9.513  0.6960  0.8273  3.2463
  190POPC  C21021915   1.041   0.032   9.414  0.1001 -0.5742 -0.5994
  190POPC  H10121916   1.074  -0.048   9.346  5.6528 -1.0504  2.0834
  190POPC  C21121917   0.903   0.091   9.400  0.4557  0.1220  0.4491
  190POPC  H11R21918   0.895   0.195   9.437 -0.0511 -0.0101  0.7172
  190POPC  H11S21919   0.826   0.028   9.450 -0.4270  0.0915 -0.8764
  190POPC  C21221920   0.865   0.107   9.250  0.8201 -0.4190  0.6153
  190POPC  H12R21921   0.754   0.116   9.244  0.9070  0.0263 -0.9692
  190POPC  H12S21922   0.897   0.020   9.189  0.3628 -0.5212  0.5162
  190POPC  C21321923   0.920   0.239   9.187 -0.2893  0.6758  0.0341
  190POPC  H13R21924   1.029   0.236   9.210 -0.4365 -1.8246  0.7155
  190POPC  H13S21925   0.878   0.331   9.233  1.8089  1.2368  0.9274
  190POPC  C21421926   0.904   0.231   9.037  0.2081  1.0057 -0.2295
  190POPC  H14R21927   0.795   0.230   9.020 -0.0766  0.9656  1.4652
  190POPC  H14S21928   0.960   0.146   8.992  1.7089  2.6862 -1.6751
  190POPC  C21521929   0.953   0.346   8.964 -0.5491  0.4998 -0.1315
  190POPC  H15R21930   1.059   0.360   8.995 -0.6308  2.0106 -0.4285
  190POPC  H15S21931   0.911   0.443   9.000 -0.1837  0.4992  0.3112
  190POPC  C21621932   0.960   0.346   8.803  0.3815  0.6503  0.1317
  190POPC  H16R21933   0.858   0.367   8.764 -0.2106 -1.3961  0.5023
  190POPC  H16S21934   0.982   0.242   8.771  0.1145  0.6307  0.0076
  190POPC  C21721935   1.059   0.446   8.745 -0.1941  0.1482  0.0998
  190POPC  H17R21936   1.081   0.413   8.641 -1.8702 -1.0968  0.1110
  190POPC  H17S21937   1.159   0.448   8.794  0.1566  0.5907 -0.6000
  190POPC  C21821938   1.011   0.592   8.760  0.0920 -0.7569  0.0340
  190POPC  H18R21939   1.088   0.668   8.736  1.6294 -1.4696  2.3092
  190POPC  H18S21940   0.961   0.608   8.858  2.1162  1.6162  0.7838
  190POPC  H18T21941   0.930   0.600   8.684 -0.0432 -2.6220 -0.0586
  190POPC   C3321942   0.290   0.199  10.091 -0.2304 -0.8410 -0.0286
  190POPC   H3X21943   0.186   0.200  10.132 -0.2048 -0.3028  0.0327
  190POPC   H3Y21944   0.315   0.091  10.091 -2.2653 -1.3728  1.1395
  190POPC   C3421945   0.291   0.258   9.941  0.6808  0.1503  0.7007
  190POPC   H4X21946   0.395   0.267   9.902  1.4703 -1.3665  2.2953
  190POPC   H4Y21947   0.243   0.358   9.948 -0.8283 -0.5431  0.5626
  190POPC   C3521948   0.210   0.161   9.850  0.3362  0.2745  0.6320
  190POPC   H5X21949   0.108   0.169   9.893  0.2251 -0.0724  0.4297
  190POPC   H5Y21950   0.251   0.059   9.868  1.1487  0.6328  0.8594
  190POPC   C3621951   0.229   0.186   9.696 -0.3219 -0.1976 -0.7836
  190POPC   H6X21952   0.337   0.180   9.671 -0.6832 -0.3644 -2.4007
  190POPC   H6Y21953   0.204   0.294   9.692  0.1351 -0.0799 -0.6096
  190POPC   C3721954   0.143   0.112   9.600 -0.2444 -0.7536 -0.6903
  190POPC   H7X21955   0.038   0.145   9.612 -0.1454 -0.2179 -1.2523
  190POPC   H7Y21956   0.157   0.002   9.606 -0.2196 -0.6699  1.7834
  190POPC   C3821957   0.185   0.136   9.460  1.1431  0.0506 -0.6842
  190POPC   H8X21958   0.291   0.103   9.453  1.5186  0.9992  0.2242
  190POPC   H8Y21959   0.175   0.244   9.441 -0.0280  0.0744 -0.0050
  190POPC   C3921960   0.090   0.057   9.373  0.1777  1.1676  0.0028
  190POPC   H9X21961  -0.012   0.083   9.409  0.0129  1.4071 -0.6264
  190POPC   H9Y21962   0.101  -0.053   9.389  0.8285  0.9799 -1.5724
  190POPC  C31021963   0.121   0.082   9.224 -0.1396  0.0467  0.8112
  190POPC  H10X21964   0.233   0.082   9.220 -0.1463  0.3012 -2.9415
  190POPC  H10Y21965   0.096   0.190   9.218  2.5783  0.7830  1.3487
  190POPC  C31121966   0.037  -0.000   9.136 -0.5252 -0.2344  0.0346
  190POPC  H11X21967  -0.065   0.041   9.154  0.3613  1.8903  0.3982
  190POPC  H11Y21968   0.049  -0.108   9.160 -0.8838  0.1149  1.9258
  190POPC  C31221969   0.049   0.035   8.986  0.8618  0.7738  0.5414
  190POPC  H12X21970   0.151   0.029   8.943 -0.2336  2.2071 -2.4964
  190POPC  H12Y21971   0.006   0.137   8.984 -0.8662  0.1033  0.7870
  190POPC  C31321972  -0.045  -0.061   8.900 -0.1185 -0.4345  0.1178
  190POPC  H13X21973  -0.141  -0.064   8.956  0.2631 -0.3866  0.7885
  190POPC  H13Y21974  -0.006  -0.166   8.900  2.4352  0.4321  0.3999
  190POPC  C31421975  -0.064  -0.005   8.758 -0.4284  0.2900 -0.1954
  190POPC  H14X21976   0.022  -0.029   8.692  1.2519  1.1848  1.5769
  190POPC  H14Y21977  -0.064   0.106   8.766  2.7433  0.3339  0.5359
  190POPC  C31521978  -0.186  -0.051   8.679 -0.1797 -0.3025  0.3907
  190POPC  H15X21979  -0.188  -0.004   8.578 -1.4326 -0.2095  0.4411
  190POPC  H15Y21980  -0.258   0.002   8.744 -0.0840 -0.2488  0.4524
  190POPC  C31621981  -0.199  -0.201   8.676 -0.7616  0.4803 -0.2871
  190POPC  H16X21982  -0.150  -0.239   8.768 -2.6792 -0.7113  0.2841
  190POPC  H16Y21983  -0.161  -0.253   8.585 -1.4502  0.3524 -0.5059
  190POPC  H16Z21984  -0.307  -0.226   8.687 -0.8286  1.0008  0.3308
  191POPC     N21985   1.265   3.320   5.979  0.4172  0.3449 -0.1173
  191POPC   C1221986   1.205   3.369   6.108  0.4492 -0.0044 -1.0003
  191POPC  H12A21987   1.147   3.460   6.098  0.1399 -0.0952 -0.1404
  191POPC  H12B21988   1.281   3.385   6.183  1.6949 -0.1380 -2.1885
  191POPC   C1321989   1.314   3.183   5.992 -0.1495 -0.4858 -0.2553
  191POPC  H13A21990   1.344   3.159   5.891  1.9082  0.0270  0.1864
  191POPC  H13B21991   1.395   3.185   6.062  0.2380  2.6557 -0.6414
  191POPC  H13C21992   1.255   3.103   6.033  0.3974 -0.2528  1.0322
  191POPC   C1421993   1.174   3.331   5.866  0.2722 -0.3493 -0.0077
  191POPC  H14A21994   1.118   3.422   5.882  1.6381  0.1366  2.5877
  191POPC  H14B21995   1.230   3.331   5.774  2.5044 -0.5927  1.2785
  191POPC  H14C21996   1.100   3.252   5.869 -2.1906  1.8308  1.7053
  191POPC   C1521997   1.377   3.419   5.946 -0.0124 -0.3391 -0.5274
  191POPC  H15A21998   1.445   3.427   6.030 -0.0417 -2.1148 -0.2971
  191POPC  H15B21999   1.335   3.518   5.934 -0.4255 -0.5263 -0.6457
  191POPC  H15C22000   1.431   3.386   5.859  1.9099 -1.6156  1.0574
  191POPC   C1122001   1.097   3.273   6.164  0.0937  0.0840  0.0777
  191POPC  H11A22002   1.075   3.298   6.269 -3.0142  1.8969 -0.8703
  191POPC  H11B22003   1.131   3.167   6.165 -0.7553 -0.1931  0.8170
  191POPC     P22004   0.863   3.373   6.117 -0.1913 -0.2946 -0.5522
  191POPC   O1322005   0.758   3.373   6.014 -0.0216  0.2748  0.6194
  191POPC   O1422006   0.933   3.505   6.123  0.2230  0.0031  0.1536
  191POPC   O1222007   0.972   3.261   6.087 -0.0303 -0.2113 -0.1998
  191POPC   O1122008   0.817   3.335   6.259  0.2743  0.4901  0.2294
  191POPC    C122009   0.790   3.191   6.282 -0.3693 -0.5457 -0.5001
  191POPC    HA22010   0.880   3.127   6.287  2.4319  3.1593  0.5683
  191POPC    HB22011   0.717   3.158   6.206 -1.0609  0.8767 -0.4951
  191POPC    C222012   0.702   3.161   6.407 -0.0081 -0.1821  0.0426
  191POPC    HS22013   0.632   3.247   6.414  0.6797  0.6547 -2.4381
  191POPC   O2122014   0.785   3.160   6.523 -0.1960  0.2174 -0.0826
  191POPC   C2122015   0.743   3.233   6.629 -1.0636 -0.8266 -0.1761
  191POPC   O2222016   0.638   3.292   6.630 -0.1029 -0.2201 -0.4674
  191POPC   C2222017   0.836   3.224   6.753  0.6560  0.3425 -0.2862
  191POPC   H2R22018   0.922   3.290   6.734  1.3131 -0.1322  0.9408
  191POPC   H2S22019   0.874   3.120   6.763 -1.0889 -0.3192 -0.1028
  191POPC    C322020   0.625   3.027   6.395  0.6826  0.3594  0.0838
  191POPC    HX22021   0.696   2.944   6.409 -1.1893 -1.4160 -0.3981
  191POPC    HY22022   0.577   3.007   6.296 -0.1237  0.4966  0.4337
  191POPC   O3122023   0.535   3.017   6.503  0.0404  0.6277 -0.3751
  191POPC   C3122024   0.416   3.062   6.483  0.3718 -0.2282  0.7952
  191POPC   O3222025   0.372   3.123   6.388  0.5360  0.2352 -0.1156
  191POPC   C3222026   0.328   3.019   6.605  0.0310 -0.1328  0.0032
  191POPC   H2X22027   0.354   2.915   6.634 -0.9307 -0.1281  0.8940
  191POPC   H2Y22028   0.223   3.025   6.569  0.4078  2.1660 -0.8819
  191POPC   C2322029   0.762   3.282   6.875  0.2651 -0.2936  0.2045
  191POPC   H3R22030   0.664   3.231   6.888 -0.4865  1.3462  1.2142
  191POPC   H3S22031   0.736   3.389   6.870 -0.8315 -0.5803 -0.8486
  191POPC   C2422032   0.842   3.256   7.008  0.7988  0.1105 -0.6112
  191POPC   H4R22033   0.941   3.303   6.986  0.0090  0.9009 -2.7101
  191POPC   H4S22034   0.872   3.149   7.010  1.0837  0.2002  0.2835
  191POPC   C2522035   0.762   3.297   7.128  0.0911  0.2817 -0.3810
  191POPC   H5R22036   0.661   3.252   7.113  0.4492 -0.5280 -0.4318
  191POPC   H5S22037   0.751   3.407   7.126 -0.5863  0.2228 -0.3512
  191POPC   C2622038   0.817   3.255   7.261 -0.3444  0.3411 -0.3303
  191POPC   H6R22039   0.915   3.308   7.262  0.8613 -1.7230  2.2279
  191POPC   H6S22040   0.824   3.144   7.259 -4.2791 -0.0373 -0.9064
  191POPC   C2722041   0.729   3.298   7.376  0.0510  0.5199  0.2417
  191POPC   H7R22042   0.629   3.250   7.371  0.6370 -0.8235  0.8387
  191POPC   H7S22043   0.706   3.406   7.372 -1.9388  0.0934 -1.9391
  191POPC   C2822044   0.789   3.253   7.506 -0.1172 -0.3598 -0.2045
  191POPC   H8R22045   0.893   3.289   7.494 -0.5266  0.1597 -2.6433
  191POPC   H8S22046   0.795   3.142   7.508 -1.6351 -0.4656  1.6135
  191POPC   C2922047   0.714   3.301   7.627 -0.1853  0.2165 -0.3459
  191POPC   H9122048   0.610   3.267   7.615  0.3012 -1.6885  0.5353
  191POPC  C21022049   0.753   3.386   7.727  0.6722 -0.1555  0.4986
  191POPC  H10122050   0.687   3.390   7.815  0.5862 -0.6553  0.4646
  191POPC  C21122051   0.888   3.445   7.743 -0.0679 -0.1233 -0.1718
  191POPC  H11R22052   0.880   3.554   7.761  0.0543 -0.2423  0.6133
  191POPC  H11S22053   0.959   3.428   7.659 -0.5587  0.4895 -0.7238
  191POPC  C21222054   0.961   3.402   7.869 -0.2865 -0.3140 -0.0077
  191POPC  H12R22055   1.065   3.436   7.851 -0.1165 -0.8275  0.0035
  191POPC  H12S22056   0.964   3.291   7.872  0.1904 -0.2984  0.1914
  191POPC  C21322057   0.905   3.452   7.998 -0.6786  0.0621  0.7234
  191POPC  H13R22058   0.804   3.406   8.002 -0.5379 -0.2269  1.0108
  191POPC  H13S22059   0.896   3.562   7.999  2.4858  0.4002  1.2924
  191POPC  C21422060   0.978   3.399   8.125 -0.8716  0.3269  0.0422
  191POPC  H14R22061   1.076   3.452   8.132 -1.9040  2.2418  1.1823
  191POPC  H14S22062   1.000   3.290   8.127  0.5039  0.5904  0.7870
  191POPC  C21522063   0.896   3.423   8.250  0.3722 -0.0724 -0.2509
  191POPC  H15R22064   0.795   3.378   8.240  0.1985 -0.0512  1.3122
  191POPC  H15S22065   0.873   3.531   8.258 -0.0020 -0.0055 -1.7873
  191POPC  C21622066   0.958   3.373   8.379  0.1864  0.6046  0.2545
  191POPC  H16R22067   1.051   3.428   8.403  1.0184 -0.8028  0.3756
  191POPC  H16S22068   0.992   3.267   8.370 -1.1970  0.2807 -2.0976
  191POPC  C21722069   0.859   3.364   8.495  0.5152  0.4661 -0.4243
  191POPC  H17R22070   0.802   3.269   8.481 -0.1955  0.8989 -0.5015
  191POPC  H17S22071   0.780   3.442   8.498 -2.7973 -2.5143 -2.0774
  191POPC  C21822072   0.922   3.350   8.632 -0.1120  0.4382  0.8036
  191POPC  H18R22073   0.854   3.295   8.700 -1.2969  2.0480  0.9762
  191POPC  H18S22074   0.941   3.450   8.676 -1.2632  1.4226 -0.8405
  191POPC  H18T22075   1.013   3.288   8.617 -0.5839 -0.1144  0.1592
  191POPC   C3322076   0.341   3.103   6.726 -0.4369 -0.3222 -0.4662
  191POPC   H3X22077   0.277   3.193   6.713 -0.2887 -0.1978 -0.3426
  191POPC   H3Y22078   0.443   3.144   6.737 -1.0862  1.2405  0.0347
  191POPC   C3422079   0.303   3.027   6.849 -0.7042  0.6326  0.2581
  191POPC   H4X22080   0.373   2.943   6.864 -0.7963  0.0498 -2.1682
  191POPC   H4Y22081   0.198   2.991   6.847 -0.9895  1.4475 -1.0899
  191POPC   C3522082   0.335   3.110   6.979 -0.2031 -0.0213  0.2654
  191POPC   H5X22083   0.279   3.206   6.977 -2.0307 -1.0450 -0.4577
  191POPC   H5Y22084   0.441   3.141   6.970 -0.1977 -0.1151 -0.0000
  191POPC   C3622085   0.321   3.029   7.104  0.1566  0.1029  0.1544
  191POPC   H6X22086   0.385   2.941   7.083 -0.1499  0.0487 -0.5825
  191POPC   H6Y22087   0.216   2.995   7.116  0.0749  0.8580  1.9043
  191POPC   C3722088   0.373   3.088   7.231 -0.2720  0.2834 -0.4833
  191POPC   H7X22089   0.379   3.199   7.227  0.2034  0.2646 -0.3278
  191POPC   H7Y22090   0.476   3.047   7.241 -0.1486  0.6298 -0.3303
  191POPC   C3822091   0.293   3.044   7.353 -0.9124  0.3526  0.5605
  191POPC   H8X22092   0.316   2.942   7.390 -2.4897  0.2543  1.3381
  191POPC   H8Y22093   0.184   3.051   7.335 -1.0432  0.0145  1.1940
  191POPC   C3922094   0.319   3.135   7.476  0.3972  0.0055  0.4704
  191POPC   H9X22095   0.287   3.237   7.447 -0.4952 -0.2586  0.4906
  191POPC   H9Y22096   0.428   3.137   7.499  0.1664  1.9525  1.5658
  191POPC  C31022097   0.242   3.091   7.599 -0.7878 -0.1605 -0.1301
  191POPC  H10X22098   0.281   2.990   7.622 -0.0053  0.5587  1.9258
  191POPC  H10Y22099   0.134   3.082   7.573 -0.7617 -1.7885  0.2341
  191POPC  C31122100   0.266   3.191   7.719  0.0369  0.0599  0.3890
  191POPC  H11X22101   0.261   3.296   7.685 -0.7215 -0.6173 -1.7488
  191POPC  H11Y22102   0.371   3.183   7.757 -0.1881  2.0124  1.5293
  191POPC  C31222103   0.183   3.151   7.840  0.3900 -0.5197  0.5450
  191POPC  H12X22104   0.223   3.048   7.851  3.6288  0.6206  0.3341
  191POPC  H12Y22105   0.075   3.152   7.813  0.8983 -0.9569 -1.6603
  191POPC  C31322106   0.208   3.236   7.967 -0.0990 -0.4912  0.4404
  191POPC  H13X22107   0.123   3.219   8.036 -0.8520 -0.5013 -0.4741
  191POPC  H13Y22108   0.207   3.342   7.934 -2.4119 -0.0554  1.7134
  191POPC  C31422109   0.337   3.193   8.031  0.1256 -0.6806  0.3941
  191POPC  H14X22110   0.422   3.223   7.967 -0.1035  0.2919  0.5252
  191POPC  H14Y22111   0.341   3.083   8.044  0.9139 -0.4477  2.5215
  191POPC  C31522112   0.353   3.275   8.164 -0.8413 -0.0584  0.2203
  191POPC  H15X22113   0.273   3.236   8.231 -0.7504 -1.1734 -0.3023
  191POPC  H15Y22114   0.308   3.375   8.143 -1.1656 -0.4638 -1.0784
  191POPC  C31622115   0.492   3.258   8.234  0.4716 -0.2764  0.1885
  191POPC  H16X22116   0.500   3.330   8.318 -0.6437  0.0014  0.0726
  191POPC  H16Y22117   0.578   3.282   8.167  1.0149  0.4268  1.1018
  191POPC  H16Z22118   0.497   3.156   8.278  0.0109 -0.2196  0.3783
  192POPC     N22119   5.857   4.698   6.004 -0.3798  0.1364  0.3620
  192POPC   C1222120   5.993   4.734   6.065  0.3246  0.0669  0.6368
  192POPC  H12A22121   5.993   4.835   6.102  0.5726 -0.0482  0.9584
  192POPC  H12B22122   6.073   4.726   5.992 -0.5577  0.1801 -0.3552
  192POPC   C1322123   5.834   4.784   5.888  0.2468 -0.5285  0.3837
  192POPC  H13A22124   5.822   4.886   5.922 -2.1440 -0.6253  0.0477
  192POPC  H13B22125   5.905   4.778   5.807 -2.1743  0.8432 -2.0391
  192POPC  H13C22126   5.740   4.772   5.835  0.1714  2.8287 -0.4580
  192POPC   C1422127   5.853   4.556   5.958 -0.2151 -0.0266 -0.0158
  192POPC  H14A22128   5.853   4.486   6.040 -0.1276 -0.2609 -0.2151
  192POPC  H14B22129   5.758   4.538   5.909 -0.3720 -0.4179  0.4265
  192POPC  H14C22130   5.939   4.530   5.898 -1.0198  0.6951 -1.5382
  192POPC   C1522131   5.750   4.711   6.108 -0.5244  0.2593  0.1249
  192POPC  H15A22132   5.648   4.706   6.073 -0.8654 -2.9671  1.2941
  192POPC  H15B22133   5.752   4.811   6.148  0.4442  1.1052 -1.8904
  192POPC  H15C22134   5.755   4.633   6.182  0.4924  1.4012  1.2976
  192POPC   C1122135   6.048   4.631   6.180  0.7308  0.2980  0.0406
  192POPC  H11A22136   5.971   4.600   6.253 -0.3594  0.4704 -0.9926
  192POPC  H11B22137   6.115   4.693   6.244  0.3662  0.7921 -0.0440
  192POPC     P22138   6.255   4.495   6.106  0.1248  0.0572 -0.0484
  192POPC   O1322139   6.330   4.623   6.082 -0.0255 -0.2159 -0.4065
  192POPC   O1422140   6.273   4.391   5.998 -0.3350  0.5420 -0.6462
  192POPC   O1222141   6.098   4.520   6.112 -0.6200  0.2364 -0.4163
  192POPC   O1122142   6.279   4.425   6.244 -0.4405 -0.3399  0.7455
  192POPC    C122143   6.206   4.307   6.274 -0.1278  0.5891  0.0003
  192POPC    HA22144   6.275   4.225   6.304  0.5094  0.6273 -1.2605
  192POPC    HB22145   6.148   4.270   6.186 -3.4270 -0.6381  2.4507
  192POPC    C222146   6.105   4.333   6.393 -0.5303 -0.3447  0.2093
  192POPC    HS22147   6.022   4.397   6.356 -0.2926 -0.4627 -0.5589
  192POPC   O2122148   6.177   4.387   6.502  0.1530  0.5486  0.0786
  192POPC   C2122149   6.126   4.501   6.552  0.3114  0.0439  0.2591
  192POPC   O2222150   6.020   4.548   6.523 -0.1130 -0.3054 -0.4036
  192POPC   C2222151   6.228   4.568   6.644 -0.3061  0.5125 -0.5210
  192POPC   H2R22152   6.254   4.672   6.614 -2.7197  1.6504  1.0402
  192POPC   H2S22153   6.322   4.509   6.647 -1.5555 -1.5579  1.2380
  192POPC    C322154   6.040   4.190   6.419  0.4607 -0.2904  0.3292
  192POPC    HX22155   5.998   4.149   6.325  0.6494  1.2913 -0.4834
  192POPC    HY22156   5.954   4.206   6.488  0.4709 -0.6553  0.4302
  192POPC   O3122157   6.136   4.103   6.468 -0.3327 -0.0794  0.3046
  192POPC   C3122158   6.132   4.067   6.599 -0.2410 -0.0517 -0.0100
  192POPC   O3222159   6.052   4.114   6.674 -0.0970 -0.7734 -0.2312
  192POPC   C3222160   6.251   3.982   6.642 -0.1463 -0.9045  1.2082
  192POPC   H2X22161   6.342   4.038   6.612 -1.3657  2.5201  3.2737
  192POPC   H2Y22162   6.253   3.892   6.577  1.2062 -0.6192  0.8312
  192POPC   C2322163   6.162   4.570   6.787  0.3201  0.1585 -0.7111
  192POPC   H3R22164   6.069   4.630   6.793 -0.8457 -1.5244 -1.0219
  192POPC   H3S22165   6.244   4.604   6.854  1.4696  0.3468 -2.1454
  192POPC   C2422166   6.128   4.429   6.835 -0.4010 -0.3522  0.5056
  192POPC   H4R22167   6.210   4.365   6.799  1.6905  1.5054  1.7040
  192POPC   H4S22168   6.034   4.396   6.786 -1.5671  3.4328 -0.1360
  192POPC   C2522169   6.103   4.430   6.985  0.5488  0.1435  0.0816
  192POPC   H5R22170   6.194   4.462   7.041  1.0883  1.4429 -1.4641
  192POPC   H5S22171   6.082   4.323   7.007  0.8983 -0.0026 -0.2662
  192POPC   C2622172   5.980   4.514   7.031 -0.8594  0.5756 -0.0289
  192POPC   H6R22173   5.909   4.490   6.948  1.3772 -1.6184 -1.4633
  192POPC   H6S22174   6.013   4.619   7.015  0.5727  0.0394 -0.8075
  192POPC   C2722175   5.914   4.472   7.167 -0.2977 -0.0659  0.0105
  192POPC   H7R22176   5.917   4.361   7.166  0.1365 -0.0793  1.1961
  192POPC   H7S22177   5.812   4.515   7.175 -0.3299 -0.4130  1.8945
  192POPC   C2822178   6.000   4.526   7.284  0.1991 -0.1413  0.0007
  192POPC   H8R22179   6.008   4.636   7.269 -0.1611  0.1564  1.7347
  192POPC   H8S22180   6.104   4.487   7.284  0.5284  0.7181  0.3318
  192POPC   C2922181   5.941   4.495   7.416 -0.1686 -0.8191  0.4663
  192POPC   H9122182   5.984   4.404   7.463 -2.2687 -0.9051  2.3920
  192POPC  C21022183   5.867   4.580   7.491 -0.6483  0.8617 -0.2190
  192POPC  H10122184   5.854   4.554   7.597  1.2429 -1.4215 -0.4692
  192POPC  C21122185   5.827   4.720   7.453 -0.2319  0.4817  0.7345
  192POPC  H11R22186   5.725   4.722   7.409 -0.3474 -2.7626  0.6160
  192POPC  H11S22187   5.894   4.769   7.380  0.4308 -0.1798  0.8886
  192POPC  C21222188   5.839   4.825   7.567 -0.3184  0.0348  1.2743
  192POPC  H12R22189   5.767   4.803   7.649 -0.6475 -1.8791  0.5444
  192POPC  H12S22190   5.810   4.925   7.529  0.3627 -0.9007 -2.0467
  192POPC  C21322191   5.988   4.849   7.611 -0.6368 -0.3355 -0.3168
  192POPC  H13R22192   6.062   4.854   7.528 -0.2339 -0.9187 -0.0039
  192POPC  H13S22193   6.018   4.750   7.652  2.2807  0.7125  0.3694
  192POPC  C21422194   5.992   4.950   7.724  0.8395 -0.1576  0.2391
  192POPC  H14R22195   5.904   4.915   7.781  0.9597 -2.7761 -1.0418
  192POPC  H14S22196   5.963   5.049   7.683 -2.0595 -0.7031  0.8231
  192POPC  C21522197   6.112   4.954   7.819  0.5501  0.1375 -0.1683
  192POPC  H15R22198   6.190   5.024   7.781 -2.0696  3.2516 -0.3078
  192POPC  H15S22199   6.151   4.852   7.834 -0.6855 -0.4014 -0.4557
  192POPC  C21622200   6.063   5.018   7.947  0.1600 -0.2975 -0.0269
  192POPC  H16R22201   5.985   4.958   7.999 -0.2292 -0.3284 -0.6416
  192POPC  H16S22202   6.031   5.122   7.929  0.9294 -0.2119 -0.9896
  192POPC  C21722203   6.179   5.016   8.049 -0.4194  0.0999  0.1386
  192POPC  H17R22204   6.275   5.046   8.003 -1.0065  1.5921 -0.1670
  192POPC  H17S22205   6.188   4.907   8.068 -4.4322 -1.0107 -2.8368
  192POPC  C21822206   6.133   5.090   8.176  0.1647 -0.5330 -0.6466
  192POPC  H18R22207   6.203   5.073   8.261 -1.6426  2.7781  1.7630
  192POPC  H18S22208   6.039   5.049   8.218  0.1937 -0.0825 -0.1282
  192POPC  H18T22209   6.122   5.198   8.153  2.5509  0.1604  1.1059
  192POPC   C3322210   6.252   3.943   6.794  0.0543  0.1534 -0.0873
  192POPC   H3X22211   6.308   3.848   6.793 -0.4031 -0.1171 -1.1850
  192POPC   H3Y22212   6.148   3.913   6.821  0.6772 -1.3789  0.7481
  192POPC   C3422213   6.310   4.052   6.876 -0.2952 -0.1219 -0.5208
  192POPC   H4X22214   6.235   4.133   6.886 -0.7295 -0.7076  1.4092
  192POPC   H4Y22215   6.408   4.080   6.832  1.2255 -2.5119  1.1023
  192POPC   C3522216   6.346   4.012   7.021  0.0357 -0.1232 -0.9018
  192POPC   H5X22217   6.411   3.922   7.018  0.1193 -0.0493 -3.0184
  192POPC   H5Y22218   6.254   3.972   7.069 -0.4467 -0.2498 -1.8847
  192POPC   C3622219   6.386   4.134   7.109  0.5785  0.3596  0.2414
  192POPC   H6X22220   6.335   4.220   7.061  1.1901  0.4648 -0.2244
  192POPC   H6Y22221   6.496   4.139   7.092  0.4405 -0.5739 -1.0628
  192POPC   C3722222   6.370   4.124   7.255  0.2734  0.6746 -0.1445
  192POPC   H7X22223   6.463   4.095   7.307 -0.5851 -1.4303  0.3270
  192POPC   H7Y22224   6.301   4.041   7.281 -0.4471  0.9769 -1.0464
  192POPC   C3822225   6.308   4.244   7.336 -0.1545  0.2263  0.6306
  192POPC   H8X22226   6.215   4.278   7.286 -0.4003  0.2142  1.0823
  192POPC   H8Y22227   6.376   4.332   7.339 -1.3873  1.2988 -0.9895
  192POPC   C3922228   6.269   4.211   7.479  0.7316 -0.2649  0.6323
  192POPC   H9X22229   6.182   4.141   7.476  1.0760 -0.7458  1.5569
  192POPC   H9Y22230   6.236   4.307   7.524  0.5932 -0.5291  1.1004
  192POPC  C31022231   6.390   4.169   7.561  0.3428  0.9363  0.2631
  192POPC  H10X22232   6.474   4.242   7.552  0.3061  1.0752  0.9851
  192POPC  H10Y22233   6.413   4.065   7.530 -2.2162  0.4637 -0.2416
  192POPC  C31122234   6.354   4.159   7.705 -0.1126 -0.1144 -0.1484
  192POPC  H11X22235   6.273   4.085   7.720 -0.7694  0.1119 -2.2022
  192POPC  H11Y22236   6.309   4.255   7.738  1.9868  0.7540  0.3262
  192POPC  C31222237   6.472   4.131   7.798  0.3158  0.2312 -0.6138
  192POPC  H12X22238   6.532   4.225   7.791  1.3602 -0.4680 -1.3358
  192POPC  H12Y22239   6.530   4.043   7.762  3.0508  1.7437 -0.2143
  192POPC  C31322240   6.439   4.104   7.941  0.5440 -0.9846 -0.0058
  192POPC  H13X22241   6.354   4.034   7.955 -0.6438  0.4701  0.4240
  192POPC  H13Y22242   6.394   4.200   7.976 -0.0892 -1.3913  0.3074
  192POPC  C31422243   6.559   4.078   8.032 -0.0753 -0.2131  0.2592
  192POPC  H14X22244   6.657   4.102   7.986 -0.8383 -0.2451 -1.4416
  192POPC  H14Y22245   6.564   3.969   8.053 -0.9047 -0.4501 -0.7226
  192POPC  C31522246   6.553   4.158   8.167 -0.0609 -0.0152  0.1605
  192POPC  H15X22247   6.534   4.266   8.148  1.2401  0.4276  1.2322
  192POPC  H15Y22248   6.658   4.150   8.204  0.1830  1.6114 -0.0928
  192POPC  C31622249   6.462   4.104   8.269 -0.6495 -0.0127 -0.7283
  192POPC  H16X22250   6.419   4.176   8.342  2.2367 -0.7585  1.8901
  192POPC  H16Y22251   6.507   4.023   8.330  0.0187  0.7458 -0.2033
  192POPC  H16Z22252   6.380   4.048   8.218 -0.7063  1.2830 -2.1290
  193SOD    SOD22253   1.096   2.515   5.675 -0.2784  0.0963  0.4362
  194SOD    SOD22254   2.705   2.918  11.187  0.6744  0.1184 -0.1174
  195SOD    SOD22255   1.442   1.604   6.284 -0.0355 -0.1888  0.0521
  196SOD    SOD22256   6.709   0.224  12.581  0.5014  0.5757 -0.1489
  197SOD    SOD22257   5.580   4.645  14.878 -0.0893  0.0784  0.1719
  198SOD    SOD22258   1.771   0.274  15.206  0.1051  0.6952 -0.0814
  199SOD    SOD22259   4.860   1.344   5.939  0.1657 -0.5428 -0.8288
  200SOD    SOD22260   4.621   1.105  12.232 -0.2948 -0.1347  0.3116
  201SOD    SOD22261   2.199   4.576  16.704 -0.1937 -0.1642 -0.3699
  202SOD    SOD22262   1.929   5.857  12.799  0.0704  0.1512 -0.1372
  203SOD    SOD22263   3.093   5.593  16.507  0.0519  0.4058 -0.0368
  204SOD    SOD22264   5.184   2.750  15.362 -0.0478  0.4445 -0.3675
  205SOD    SOD22265   0.184   2.040  12.054  0.0665  0.2402 -0.6025
  206SOD    SOD22266   3.774   5.889   4.405 -0.5583  0.2979 -0.1150
  207SOD    SOD22267   2.629   6.300   0.214 -0.1052  0.0086 -0.1963
  208SOD    SOD22268   1.926   6.661  13.277 -0.0115  0.2348 -0.2414
  209SOD    SOD22269   2.454   2.019  10.983  0.0398 -0.3341  0.1756
  210SOD    SOD22270   0.214   0.263  15.413  0.2871  0.2744  0.3704
  211SOD    SOD22271   4.002   2.568  11.492 -0.4665 -0.1418  0.1064
  212SOD    SOD22272   0.287   4.115  14.816  0.5303 -0.3229 -0.2183
  213SOD    SOD22273   2.056   5.057   6.192  0.2443  0.0199  0.4341
  214SOD    SOD22274   6.685   3.549   5.466  0.2989 -0.5277 -0.1787
  215SOD    SOD22275   4.100   3.282   5.049 -0.4901  0.1612 -0.2284
  216SOD    SOD22276   0.108   4.325  11.199  0.0828 -0.1468 -0.2460
  217SOD    SOD22277   6.208   5.158   2.077 -0.2631 -0.2190 -0.0702
  218SOD    SOD22278   0.687   3.089  11.443 -0.6910  0.5222  0.1145
  219SOD    SOD22279   1.997   2.271   5.978  0.0086 -0.1088  0.0516
  220SOD    SOD22280   4.632   0.750   4.103 -0.3919  0.0085  0.4129
  221SOD    SOD22281   5.742   2.299  14.023 -0.4285  0.3128 -0.6833
  222SOD    SOD22282   3.308   3.565  12.338  0.4701 -0.1126 -0.6070
  223SOD    SOD22283   3.764   6.769  11.907 -0.0370 -0.3971 -0.2234
  224SOD    SOD22284   4.424   6.483  11.711  0.1850 -0.0786  0.0530
  225SOD    SOD22285   2.816   5.330   1.163 -0.0321  0.0354 -0.4008
  226SOD    SOD22286   4.383   2.298  16.690  0.4962 -0.0970  0.2786
  227SOD    SOD22287   5.083   2.819   4.946  0.3156 -0.6148 -0.0554
  228SOD    SOD22288   0.790   1.827   6.541  0.2959  0.6061 -0.2701
  229SOD    SOD22289   0.631   1.491  13.449  0.1193  0.1535  0.0786
  230SOD    SOD22290   1.820   4.302   2.893  0.0277 -0.3689 -0.7889
  231SOD    SOD22291   4.051   5.419  14.355  0.3045 -0.3154  0.1890
  232SOD    SOD22292   4.540   1.226  11.099 -0.2767  0.0541 -0.0729
  233SOD    SOD22293   4.287   2.398   1.866  0.2522  0.2408  0.4078
  234SOD    SOD22294   5.693   5.239   1.535 -0.3692 -0.1298  0.1676
  235SOD    SOD22295   2.577   0.679  11.363 -0.1399 -0.2289 -0.1949
  236SOD    SOD22296   1.481   6.750  11.630 -0.1743 -0.6603 -0.3486
  237SOD    SOD22297   4.457   5.604   2.793  0.2409 -0.1923  0.2125
  238SOD    SOD22298   1.179   0.182  11.231 -0.2811 -0.0152  0.0879
  239SOD    SOD22299   5.084   3.849   0.530  0.2577 -0.3667 -0.2357
  240SOD    SOD22300   6.083   6.398   6.300  0.0113  0.4529 -0.0981
  241SOD    SOD22301   6.788   4.520   1.134 -0.3817 -0.0522 -0.4171
  242SOD    SOD22302   3.865   5.403   5.528 -0.2472  0.2919 -0.5825
  243SOD    SOD22303   2.022   5.968  11.072 -0.0499 -0.2260  0.2591
  244SOD    SOD22304   0.186   2.984  12.094 -0.2717 -0.1296 -0.1533
  245SOD    SOD22305   1.617   1.158  11.397 -0.3679  0.3698  0.0596
  246SOD    SOD22306   0.899   3.246   2.221  0.1349  0.0799  0.3653
  247SOD    SOD22307   0.407   5.288   4.483 -0.1943  0.6417 -0.5309
  248SOD    SOD22308   0.904   5.115  13.225  0.1536  0.0426  0.4197
  249SOD    SOD22309   1.020   2.517  16.650  0.0145  0.3825  0.2655
  250SOD    SOD22310   4.328   5.305  15.585 -0.0188 -0.4860 -0.2151
  251SOD    SOD22311   3.723   4.474  16.037 -0.3477 -0.1676  0.2163
  252SOD    SOD22312   5.455   0.036  17.181 -0.0107  0.1577  0.0260
  253SOD    SOD22313   1.060   0.463   2.234 -0.2820 -0.1637 -0.0191
  254SOD    SOD22314   4.690   3.879   3.018  0.2037 -0.2338  0.6420
  255SOD    SOD22315   6.151   2.610   5.349  0.1973 -0.0197 -0.5003
  256SOD    SOD22316   3.047   2.786   5.690 -0.4498 -0.2532  0.3018
  257SOD    SOD22317   6.376   3.223  11.215 -0.0796 -0.1315 -0.0042
  258SOD    SOD22318   4.015   0.847   5.328  0.0380  0.2419  0.0952
  259SOD    SOD22319   1.447   2.238  11.518  0.1012 -0.3846 -0.3403
  260SOD    SOD22320   2.645   0.465   5.863 -0.0311  0.3996 -0.5757
  261SOD    SOD22321   2.994   5.363   2.065 -0.0134  0.1273  0.0193
  262SOD    SOD22322   1.008   6.523   0.123  0.1127 -0.0851  0.4919
  263SOD    SOD22323   4.890   1.602  12.089 -0.1334  0.1332  0.1075
  264SOD    SOD22324   6.568   0.698   0.128  0.6365  0.1929  0.0001
  265SOD    SOD22325   0.742   4.426   4.874  0.1002 -0.2460 -0.0814
  266SOD    SOD22326   0.160   2.642   3.394  0.1745  0.0063 -0.1361
  267SOD    SOD22327   1.655   0.097   0.976 -0.1962 -0.4330 -0.0817
  268SOD    SOD22328   0.123   2.578   2.461  0.0647  0.2745 -0.6671
  269SOD    SOD22329   4.402   6.597  15.907 -0.0900  0.1230  0.2682
  270CLA    CLA22330   0.592   3.107  10.921  0.1772  0.1877 -0.0288
  271CLA    CLA22331   2.635   1.745  16.321 -0.0350 -0.0599 -0.4333
  272CLA    CLA22332   0.548   2.879  11.432  0.0335  0.0524 -0.2670
  273CLA    CLA22333   6.597   3.765  13.900 -0.1566 -0.1268 -0.1542
  274CLA    CLA22334   5.486   3.018  13.855  0.0886  0.2546  0.0197
  275CLA    CLA22335   6.410   4.800  15.462  0.1066 -0.2732  0.3923
  276CLA    CLA22336   2.751   2.405  14.184  0.2418  0.1358  0.4131
  277CLA    CLA22337   3.639   4.844   1.985  0.1418 -0.0722  0.0585
  278CLA    CLA22338   0.962   0.783   0.717  0.3342  0.0392 -0.0926
  279CLA    CLA22339   0.535   3.568   3.308  0.1696  0.1854 -0.1441
  280CLA    CLA22340   1.250   4.498  15.100 -0.1966  0.1411 -0.1815
  281CLA    CLA22341   5.101   5.472   0.655  0.1311 -0.0975 -0.1049
  282CLA    CLA22342   5.230   1.986   2.817 -0.0493  0.4089  0.0913
  283CLA    CLA22343   6.365   6.302   5.030  0.1163 -0.3387  0.2210
  284CLA    CLA22344   3.552   6.780  11.309 -0.1271 -0.2011  0.0588
  285CLA    CLA22345   5.071   0.553  15.183  0.0785 -0.0142 -0.2545
  286CLA    CLA22346   5.042   6.756  12.815  0.0569  0.0143 -0.0196
  287CLA    CLA22347   4.839   5.125   0.059  0.1114 -0.1080 -0.2503
  288CLA    CLA22348   4.133   1.083   2.764 -0.7738  0.1274 -0.3119
  289CLA    CLA22349   0.363   3.850   2.961  0.1001 -0.6125  0.0693
  290CLA    CLA22350   0.371   0.622   3.383  0.3035  0.3906 -0.1774
  291CLA    CLA22351   3.858   0.236  14.042  0.1384  0.0023  0.0904
  292CLA    CLA22352   0.634   4.731  16.194  0.3868  0.5989  0.1256
  293CLA    CLA22353   4.680   0.152  14.337  0.1117  0.0759  0.3111
  294CLA    CLA22354   4.576   0.232   3.615 -0.5391 -0.1236  0.3389
  295CLA    CLA22355   5.732   1.975  15.778 -0.0089  0.1284 -0.0937
  296CLA    CLA22356   5.722   0.556   0.920  0.2076 -0.1732  0.1431
  297CLA    CLA22357   1.839   6.180   1.404 -0.2512 -0.0372 -0.6628
  298CLA    CLA22358   4.998   3.299   1.112 -0.3474  0.0161  0.1402
  299CLA    CLA22359   4.104   3.301   4.498  0.0307  0.0186 -0.1293
  300CLA    CLA22360   1.653   1.484  13.622 -0.1970 -0.3653  0.1140
  301CLA    CLA22361   5.398   3.811  16.402 -0.1672 -0.3104 -0.1408
  302CLA    CLA22362   0.488   3.715  12.619  0.3243  0.1805  0.0745
  303CLA    CLA22363   3.836   2.746   3.311 -0.2491  0.1556  0.1166
  304CLA    CLA22364   0.481   1.539   3.099 -0.4558  0.4807  0.5084
  305CLA    CLA22365   4.284   0.172   0.418 -0.3085  0.4107 -0.0385
  306CLA    CLA22366   0.677   3.291  11.613  0.1243 -0.6376  0.3617
  307CLA    CLA22367   2.616   1.999   0.766  0.0791 -0.2187 -0.2073
  308CLA    CLA22368   1.206   0.772   1.881 -0.3533 -0.2445  0.1359
  309CLA    CLA22369   0.669   4.490   1.073 -0.4491  0.0367  0.0609
  310CLA    CLA22370   0.543   3.146   1.877 -0.1316  0.2866  0.0578
  311CLA    CLA22371   4.466   6.124  16.331 -0.0585  0.1274 -0.0151
  312CLA    CLA22372   4.750   3.532  13.629  0.3812 -0.0476 -0.0533
  313CLA    CLA22373   0.247   2.793   0.045  0.2752  0.5011 -0.3367
  314CLA    CLA22374   0.646   0.271  13.982  0.1085  0.3851  0.0164
  315CLA    CLA22375   2.424   3.150   5.288 -0.3089  0.1570 -0.1204
  316CLA    CLA22376   4.987   3.772  14.305  0.2732  0.3741  0.1480
  317CLA    CLA22377   2.069   6.226  11.056  0.2836  0.5260  0.0403
  318CLA    CLA22378   0.560   4.564   2.139  0.2858  0.0207 -0.0299
  319CLA    CLA22379   0.998   2.059  12.495 -0.4862  0.3225 -0.0647
  320CLA    CLA22380   5.761   4.399  16.130  0.0077  0.2660  0.1812
  321CLA    CLA22381   5.886   3.058   5.242 -0.0028 -0.1641  0.0071
  322CLA    CLA22382   0.834   0.451  11.989 -0.0545  0.0113  0.0317
  323TIP3   OH222383   6.426   2.460  14.688 -0.3365 -0.0776  0.0426
  323TIP3    H122384   6.443   2.428  14.776  0.7287 -2.0111 -0.7911
  323TIP3    H222385   6.340   2.425  14.666 -0.2950 -0.1926  0.0624
  324TIP3   OH222386   2.896   0.294   0.922 -0.1642 -0.1771  0.0196
  324TIP3    H122387   2.983   0.293   0.961 -0.8203  1.7651  1.7020
  324TIP3    H222388   2.901   0.360   0.853 -0.7716  1.4866  1.4918
  325TIP3   OH222389   6.444   3.338   3.066  0.0894 -0.6504  0.8121
  325TIP3    H122390   6.387   3.398   3.113  0.9504  0.7185  0.1557
  325TIP3    H222391   6.416   3.344   2.975 -0.1236 -1.6125  0.8055
  326TIP3   OH222392   3.629   4.737  16.642  0.5502  0.2908  0.4633
  326TIP3    H122393   3.600   4.647  16.632  2.0606  0.0089 -2.1360
  326TIP3    H222394   3.664   4.742  16.731 -0.3440 -1.4153  0.9415
  327TIP3   OH222395   2.442   6.791  14.793 -0.3294  0.2447  0.7657
  327TIP3    H122396   2.377   6.800  14.863 -0.7819  0.2761  0.3476
  327TIP3    H222397   2.473   6.701  14.802  0.4047  0.5797  1.6783
  328TIP3   OH222398   2.684   3.575  14.287  0.1661  0.0126  0.2821
  328TIP3    H122399   2.654   3.666  14.285 -0.4679 -0.1691  1.1206
  328TIP3    H222400   2.604   3.523  14.280  0.4580 -0.4827  0.5734
  329TIP3   OH222401   5.244   3.442   4.018  0.1252 -0.4189 -0.0930
  329TIP3    H122402   5.239   3.492   4.099 -2.3273 -0.2458 -0.2811
  329TIP3    H222403   5.246   3.351   4.046  0.3660 -0.3292  0.1806
  330TIP3   OH222404   1.469   4.966  11.469  0.5276  0.4106 -0.4870
  330TIP3    H122405   1.454   4.882  11.512  2.3447 -0.3029 -1.1459
  330TIP3    H222406   1.564   4.979  11.474  0.4070  1.8681 -1.4168
  331TIP3   OH222407   6.766   3.230   6.116  0.5025  0.2850  0.0439
  331TIP3    H122408   6.860   3.239   6.131  0.4440  0.1308  0.5284
  331TIP3    H222409   6.743   3.145   6.153  0.1040  0.5031  0.3207
  332TIP3   OH222410   1.887   5.125  16.243  0.0035  0.3510  0.2214
  332TIP3    H122411   1.881   5.169  16.328  0.4453 -1.0392  1.0085
  332TIP3    H222412   1.806   5.075  16.237  0.8580 -1.1717  0.8039
  333TIP3   OH222413   4.615   4.623  12.184  0.2633 -0.2689  0.1150
  333TIP3    H122414   4.660   4.544  12.156  0.5000 -0.1625  0.1907
  333TIP3    H222415   4.555   4.594  12.253 -0.7445 -0.6250 -0.8843
  334TIP3   OH222416   0.210   6.659  16.734 -0.2438  0.1281 -0.1425
  334TIP3    H122417   0.144   6.675  16.801 -1.1218  0.7672 -1.1251
  334TIP3    H222418   0.159   6.631  16.657  0.7294 -0.5607 -0.5537
  335TIP3   OH222419   3.473   6.586   5.253  0.0000 -0.0038  1.1331
  335TIP3    H122420   3.431   6.611   5.335 -0.3043 -0.0415  0.9934
  335TIP3    H222421   3.453   6.658   5.193 -0.4107 -0.3138  0.8852
  336TIP3   OH222422   1.007   3.456   4.761 -0.3475 -0.3878 -0.5241
  336TIP3    H122423   1.100   3.469   4.780 -0.4007 -0.0193 -0.5072
  336TIP3    H222424   0.973   3.410   4.837 -0.2228 -0.3345 -0.4359
  337TIP3   OH222425   1.525   4.268  13.587 -0.2697  0.0431  0.4132
  337TIP3    H122426   1.602   4.213  13.574  0.1776  1.0534 -1.8105
  337TIP3    H222427   1.551   4.353  13.552 -2.2699  0.4943 -0.0847
  338TIP3   OH222428   4.802   0.166   2.069 -0.3488  0.4705  0.1950
  338TIP3    H122429   4.733   0.158   2.004  0.4003  0.4013 -0.6080
  338TIP3    H222430   4.873   0.211   2.024  0.3406  0.0605  0.8326
  339TIP3   OH222431   4.924   3.597   1.491  0.4916 -0.0394  0.5362
  339TIP3    H122432   4.979   3.600   1.412  1.4439  3.1742  1.1747
  339TIP3    H222433   4.844   3.554   1.462  0.6089  1.4380 -2.3695
  340TIP3   OH222434   5.256   0.113   5.438  0.3116  0.3937  0.2996
  340TIP3    H122435   5.316   0.170   5.391  1.4928  0.0967  1.3741
  340TIP3    H222436   5.299   0.096   5.522  0.3860 -2.6286 -0.2117
  341TIP3   OH222437   4.816   3.268  12.539  0.0077  0.9694 -0.0157
  341TIP3    H122438   4.806   3.351  12.493  0.5803 -0.0084 -2.0076
  341TIP3    H222439   4.817   3.292  12.632 -0.5964  3.0849 -0.5072
  342TIP3   OH222440   4.545   0.656  10.876 -0.1860  0.0868  0.3962
  342TIP3    H122441   4.456   0.688  10.860 -0.7653 -0.9764  1.3285
  342TIP3    H222442   4.588   0.727  10.924 -0.4124  0.7524 -0.3728
  343TIP3   OH222443   0.063   4.493  15.014 -0.3998  0.2531 -0.0095
  343TIP3    H122444   0.078   4.587  15.024  0.8176  0.1041 -0.2093
  343TIP3    H222445  -0.030   4.485  14.992 -0.7679  1.3155  1.0888
  344TIP3   OH222446   1.514   2.852   4.321  0.2402  0.1080  0.1832
  344TIP3    H122447   1.605   2.833   4.345  0.4039  0.9742  0.2909
  344TIP3    H222448   1.520   2.880   4.229  0.3876  2.1628  0.7749
  345TIP3   OH222449   0.843   5.684   5.491 -0.5214  0.2377 -0.6788
  345TIP3    H122450   0.833   5.749   5.560 -0.7512  1.1276 -1.5253
  345TIP3    H222451   0.779   5.709   5.425 -0.1906 -0.4899 -1.2921
  346TIP3   OH222452   3.150   6.034  14.656  0.3387 -0.2662 -0.1023
  346TIP3    H122453   3.099   6.074  14.586  0.8958 -0.1637 -0.4538
  346TIP3    H222454   3.216   6.100  14.679  0.1671 -0.3056  0.5069
  347TIP3   OH222455   6.752   4.554   0.649 -0.0218  0.5534 -0.2464
  347TIP3    H122456   6.722   4.634   0.605  0.4356  0.7100 -0.2725
  347TIP3    H222457   6.846   4.567   0.662 -0.3973  1.2723  2.3234
  348TIP3   OH222458   6.572   0.332  11.299 -0.2211 -0.1974  0.5292
  348TIP3    H122459   6.577   0.409  11.356 -2.2551  1.1228 -0.9490
  348TIP3    H222460   6.479   0.316  11.289 -0.0570  0.3491 -3.2628
  349TIP3   OH222461   4.191   1.840   5.172 -0.3655  0.1234  0.7462
  349TIP3    H122462   4.241   1.851   5.091 -2.1221  0.5881 -0.3291
  349TIP3    H222463   4.201   1.924   5.218 -1.7646  0.9902 -0.4464
  350TIP3   OH222464   5.039   6.456   5.262  0.2940  0.2914  0.2741
  350TIP3    H122465   5.031   6.534   5.317 -0.8474  0.7545 -0.4926
  350TIP3    H222466   5.088   6.486   5.185 -2.1261  0.9635 -1.1365
  351TIP3   OH222467   2.019   3.810   3.523  0.1103  0.2957 -0.4595
  351TIP3    H122468   2.025   3.792   3.429  1.9639 -0.6857 -0.2134
  351TIP3    H222469   1.984   3.730   3.561  1.6663 -0.2726 -0.1107
  352TIP3   OH222470   5.416   0.823   2.251 -0.1948  0.2817  0.2453
  352TIP3    H122471   5.323   0.842   2.267 -0.7625  0.1439 -2.4062
  352TIP3    H222472   5.416   0.736   2.211  1.0835  0.3543  0.0516
  353TIP3   OH222473   4.033   2.285  16.032  0.3146 -0.1873  0.2585
  353TIP3    H122474   3.975   2.342  15.982  1.0596 -0.7254 -1.2558
  353TIP3    H222475   4.103   2.260  15.971  1.9484  0.1230  1.9091
  354TIP3   OH222476   0.978   4.094   4.433  0.5811  0.0518 -0.5206
  354TIP3    H122477   0.936   4.045   4.504 -0.1556  1.2431 -0.0997
  354TIP3    H222478   0.970   4.038   4.357 -0.7421 -0.2613 -0.1831
  355TIP3   OH222479   6.481   0.790  12.548  0.2825 -0.5586 -0.4354
  355TIP3    H122480   6.450   0.875  12.517  1.1667  0.3073  0.9508
  355TIP3    H222481   6.456   0.729  12.478 -0.6833  0.7616 -1.3050
  356TIP3   OH222482   0.482   1.545  13.282  1.1825 -0.6809 -0.1325
  356TIP3    H122483   0.503   1.604  13.210  1.7975  0.0371  0.6204
  356TIP3    H222484   0.387   1.539  13.281  1.1850 -0.7543 -1.0513
  357TIP3   OH222485   1.318   0.049   5.788  0.1181 -0.0007  0.4852
  357TIP3    H122486   1.319   0.139   5.756  1.7363  0.6786  2.2332
  357TIP3    H222487   1.225   0.027   5.795 -0.3281  1.7647  0.5850
  358TIP3   OH222488   1.088   4.257  16.781 -0.3294 -0.5892 -0.1812
  358TIP3    H122489   1.081   4.253  16.685  0.8189 -2.1530 -0.2460
  358TIP3    H222490   1.109   4.348  16.800  0.8150 -0.5262 -1.5437
  359TIP3   OH222491   4.930   6.732   1.304 -0.2706 -0.5527  0.7169
  359TIP3    H122492   4.839   6.759   1.295 -0.3506 -1.2133 -0.7996
  359TIP3    H222493   4.981   6.806   1.272 -0.2136  0.1243  2.2959
  360TIP3   OH222494   1.073   3.978   3.444  0.0996 -0.3536  0.0627
  360TIP3    H122495   0.995   3.959   3.497 -0.1301 -1.6201 -0.6827
  360TIP3    H222496   1.137   4.011   3.506 -0.6281 -0.4550  0.8873
  361TIP3   OH222497   5.470   1.157   1.403 -0.2681  0.2797 -0.1951
  361TIP3    H122498   5.438   1.242   1.374  0.2120  0.2019 -0.9775
  361TIP3    H222499   5.440   1.095   1.337  4.0617  0.6077 -2.8491
  362TIP3   OH222500   3.793   3.354  15.707  0.3243  0.0766  0.5941
  362TIP3    H122501   3.711   3.387  15.671  0.2937  0.8175  1.3087
  362TIP3    H222502   3.815   3.278  15.653 -0.9559 -0.2666  0.5395
  363TIP3   OH222503   2.984   3.885  13.568  0.6607  0.3071 -0.2343
  363TIP3    H122504   2.930   3.913  13.495  0.8093 -1.2521 -0.9881
  363TIP3    H222505   3.069   3.865  13.529  0.4536 -1.5058  0.1416
  364TIP3   OH222506   2.544   4.576  13.221 -0.1544  0.3356  0.3119
  364TIP3    H122507   2.617   4.539  13.172 -0.3863 -0.0090  0.2228
  364TIP3    H222508   2.553   4.671  13.209 -0.8949  0.2358 -1.4332
  365TIP3   OH222509   3.717   3.437  14.751 -0.3535 -0.4907  0.2380
  365TIP3    H122510   3.776   3.489  14.696 -0.3056  1.5163  2.0678
  365TIP3    H222511   3.632   3.443  14.707 -0.4828  1.6896  0.6596
  366TIP3   OH222512   1.221   5.309   3.345  0.4347  0.6490 -0.2157
  366TIP3    H122513   1.182   5.251   3.279  0.5691  0.2105  0.0873
  366TIP3    H222514   1.293   5.258   3.382  0.2202  0.8078  0.4287
  367TIP3   OH222515   1.733   3.379   0.600  0.2208 -0.0964  0.0609
  367TIP3    H122516   1.650   3.427   0.603 -0.2106 -0.7871 -0.4515
  367TIP3    H222517   1.795   3.434   0.648 -0.1040  1.2580 -1.0302
  368TIP3   OH222518   0.904   5.573  12.602  0.5436 -0.0325 -0.1558
  368TIP3    H122519   0.979   5.581  12.543  0.5463  0.0424 -0.1422
  368TIP3    H222520   0.938   5.596  12.688  0.7629 -1.0328  0.0379
  369TIP3   OH222521   4.099   4.323  13.235  0.2880  0.2471 -0.2791
  369TIP3    H122522   4.082   4.305  13.143  2.3256 -0.1011 -0.6314
  369TIP3    H222523   4.097   4.418  13.242  1.1197  0.3267 -0.9240
  370TIP3   OH222524   2.182   5.366   4.489  0.1471 -0.3100 -0.2059
  370TIP3    H122525   2.222   5.302   4.549 -1.7194 -0.0226  1.4342
  370TIP3    H222526   2.113   5.317   4.444 -0.2184  0.1546 -0.1539
  371TIP3   OH222527   1.851   6.108   2.485 -0.5742 -0.1833 -0.0395
  371TIP3    H122528   1.941   6.088   2.512 -0.1668 -0.2038 -1.3439
  371TIP3    H222529   1.796   6.065   2.550  0.3508 -1.1833  0.1050
  372TIP3   OH222530   2.673   0.439  10.971 -0.2561  0.2010  0.4938
  372TIP3    H122531   2.581   0.441  10.945 -0.3333  0.6796  0.7876
  372TIP3    H222532   2.680   0.364  11.030 -0.2187 -0.4950 -0.3710
  373TIP3   OH222533   5.809   2.553   4.484 -0.2944  0.6061 -0.5579
  373TIP3    H122534   5.891   2.555   4.435 -0.3796 -0.8009 -0.8162
  373TIP3    H222535   5.825   2.608   4.561  0.0789  2.2622 -1.7673
  374TIP3   OH222536   0.250   0.289  15.078 -0.1126 -0.2180 -0.3580
  374TIP3    H122537   0.249   0.347  15.002  0.4604  0.4131  0.1044
  374TIP3    H222538   0.174   0.315  15.129 -0.5278 -0.6774 -0.7319
  375TIP3   OH222539   4.381   2.447   1.208  0.7518 -0.0564  0.0216
  375TIP3    H122540   4.366   2.524   1.264 -0.8141  0.4863 -1.0613
  375TIP3    H222541   4.379   2.482   1.119  2.9754 -0.9395 -0.4393
  376TIP3   OH222542   2.055   4.030  13.966 -0.1175  0.1151  0.3898
  376TIP3    H122543   2.139   4.073  13.953 -0.8939  1.2107 -1.3359
  376TIP3    H222544   2.070   3.939  13.940  0.6299  0.2018  0.5047
  377TIP3   OH222545   5.274   5.983  16.823  0.2681  0.7434  0.4228
  377TIP3    H122546   5.284   6.003  16.915  1.5353  3.9804 -0.3169
  377TIP3    H222547   5.363   5.965  16.792 -0.2164 -0.9977 -0.1222
  378TIP3   OH222548   0.863   1.860  13.645  0.7027 -0.1337 -0.9433
  378TIP3    H122549   0.799   1.875  13.715 -0.8495 -1.1302 -2.0824
  378TIP3    H222550   0.812   1.867  13.565  2.6794  2.2289 -2.1008
  379TIP3   OH222551   0.456   0.062  16.461  0.6894 -0.0574 -0.2443
  379TIP3    H122552   0.390   0.068  16.392 -0.9655  1.4088  1.3719
  379TIP3    H222553   0.497   0.149  16.462 -0.5832  0.5730  1.7668
  380TIP3   OH222554   0.453   1.760   2.558 -0.2689  0.4822  0.0623
  380TIP3    H122555   0.460   1.674   2.599 -0.6691  0.3352 -0.1737
  380TIP3    H222556   0.480   1.746   2.467 -1.1495  0.4231 -0.2010
  381TIP3   OH222557   2.175   1.698  15.645  0.4344 -0.0680  0.4946
  381TIP3    H122558   2.242   1.767  15.643  0.6774 -0.3092 -0.7840
  381TIP3    H222559   2.218   1.623  15.603 -0.2191 -0.6278  0.8199
  382TIP3   OH222560   3.573   2.403   3.625  0.2724  0.8484  0.3141
  382TIP3    H122561   3.507   2.383   3.692  0.3773 -1.2706 -0.1307
  382TIP3    H222562   3.655   2.412   3.674  0.1728  0.3057  0.5976
  383TIP3   OH222563   3.961   1.983  11.957  0.0269 -0.1748 -0.5346
  383TIP3    H122564   3.989   1.922  12.026 -2.6190 -1.7258 -0.6801
  383TIP3    H222565   3.881   2.024  11.992 -0.9848 -0.4780 -2.3350
  384TIP3   OH222566   0.163   6.395  13.931  0.1391 -0.1387 -0.0540
  384TIP3    H122567   0.138   6.485  13.948  0.3559  0.2669 -1.7479
  384TIP3    H222568   0.167   6.388  13.836  1.1045 -1.6645  0.0600
  385TIP3   OH222569   2.354   3.845   3.050  0.6454 -0.1658 -0.1831
  385TIP3    H122570   2.274   3.792   3.047  2.3592 -2.9905  0.1451
  385TIP3    H222571   2.380   3.853   2.958  1.2677 -1.4518 -0.1434
  386TIP3   OH222572   2.282   2.364  12.624 -0.1144 -0.5479 -0.0830
  386TIP3    H122573   2.320   2.354  12.711 -0.0037 -1.3076 -0.2147
  386TIP3    H222574   2.327   2.441  12.588  0.4472 -0.7251  0.2139
  387TIP3   OH222575   3.183   4.451   4.889  0.2951 -0.2785 -0.4708
  387TIP3    H122576   3.227   4.511   4.949  0.3555  0.0484 -0.8387
  387TIP3    H222577   3.093   4.482   4.884  0.1522 -0.6318 -0.1287
  388TIP3   OH222578   0.875   0.967  15.116 -0.4190  0.2031 -0.1197
  388TIP3    H122579   0.866   1.026  15.190 -0.9429 -0.1116  0.0704
  388TIP3    H222580   0.869   1.024  15.039 -0.3557  0.4667  0.0690
  389TIP3   OH222581   0.386   3.757   4.783  0.0893  0.3261  0.1144
  389TIP3    H122582   0.403   3.663   4.785 -1.3294  0.0437  1.8170
  389TIP3    H222583   0.313   3.767   4.721 -2.1398 -0.2435  2.4802
  390TIP3   OH222584   2.021   3.683  16.336  0.1410  0.6681 -0.1916
  390TIP3    H122585   2.104   3.640  16.315 -0.2736  0.0218 -0.5364
  390TIP3    H222586   2.031   3.772  16.302  0.7086  0.6062 -0.1978
  391TIP3   OH222587   3.925   3.907  14.158  0.1801  0.2789  0.7451
  391TIP3    H122588   3.894   3.997  14.166 -0.6591 -0.0669  1.5704
  391TIP3    H222589   3.869   3.868  14.091 -0.9032 -0.1982  1.8722
  392TIP3   OH222590   5.841   1.773   1.656 -0.2101 -0.0198 -0.0315
  392TIP3    H122591   5.861   1.807   1.743 -2.0903 -1.7088  1.1538
  392TIP3    H222592   5.753   1.806   1.636  0.8408  1.7877 -2.1454
  393TIP3   OH222593   6.400   1.133   6.745 -0.0736  0.0303 -0.6681
  393TIP3    H122594   6.486   1.168   6.767 -0.5557  0.8253  0.0014
  393TIP3    H222595   6.411   1.038   6.750  0.9466  0.0945 -1.3543
  394TIP3   OH222596   3.589   0.888   4.130 -0.4213 -0.5575  0.0434
  394TIP3    H122597   3.497   0.894   4.103 -0.1183 -0.2892 -0.9753
  394TIP3    H222598   3.638   0.898   4.049  0.5330 -0.0579  0.6663
  395TIP3   OH222599   1.663   4.972  13.217  0.2669  0.8875  0.2090
  395TIP3    H122600   1.619   5.000  13.137 -0.0742  0.8687  0.3881
  395TIP3    H222601   1.670   4.877  13.209  1.8913  1.0503 -0.6368
  396TIP3   OH222602   5.639   4.140  16.231  0.0088  0.1155 -0.3780
  396TIP3    H122603   5.618   4.159  16.323 -0.8655  2.5847 -0.9941
  396TIP3    H222604   5.687   4.218  16.201  2.3641 -1.6210 -1.4532
  397TIP3   OH222605   2.028   1.165  14.343 -0.0638 -0.2198 -0.2607
  397TIP3    H122606   1.985   1.108  14.279  0.1303 -0.1257 -0.4808
  397TIP3    H222607   1.957   1.211  14.387 -0.1602  1.3887 -1.9608
  398TIP3   OH222608   5.417   1.469   0.942  0.0977  0.8223  0.0352
  398TIP3    H122609   5.388   1.499   1.028  0.0355  0.8716 -0.0034
  398TIP3    H222610   5.453   1.548   0.900 -0.6559  0.9825 -0.3178
  399TIP3   OH222611   5.041   4.036   3.485 -0.0104 -0.5363  0.0676
  399TIP3    H122612   5.076   4.121   3.511 -0.6882 -0.2796  0.1716
  399TIP3    H222613   5.004   4.000   3.565  3.6411 -2.7038  1.0004
  400TIP3   OH222614   5.619   4.362   0.933 -0.1107  0.7997  0.3924
  400TIP3    H122615   5.584   4.419   0.864  0.8137  0.3707 -0.4498
  400TIP3    H222616   5.689   4.313   0.891  0.7609  0.8239  1.7479
  401TIP3   OH222617   2.838   5.434  15.853  0.3984 -0.4462 -0.4205
  401TIP3    H122618   2.754   5.471  15.882 -0.1127  0.8262 -3.1464
  401TIP3    H222619   2.813   5.369  15.786  1.4677 -3.3733  1.7987
  402TIP3   OH222620   2.640   3.503  15.136 -0.5858  0.7553 -0.5579
  402TIP3    H122621   2.689   3.563  15.080 -0.0982 -0.3206 -1.3129
  402TIP3    H222622   2.654   3.417  15.098 -1.2402  0.1400  0.5251
  403TIP3   OH222623   4.333   4.743  15.782  0.0328 -0.6895  0.3966
  403TIP3    H122624   4.399   4.767  15.847  0.7140 -0.9657 -0.1775
  403TIP3    H222625   4.379   4.685  15.721 -0.2881  0.4203 -0.9493
  404TIP3   OH222626   3.604   1.103  14.582  0.3806 -0.3188 -0.1123
  404TIP3    H122627   3.653   1.037  14.532 -0.8586 -1.2060 -0.2196
  404TIP3    H222628   3.596   1.066  14.670 -1.0725 -0.7605 -0.4002
  405TIP3   OH222629   3.129   2.303   5.071 -0.5964  0.6597  0.4911
  405TIP3    H122630   3.106   2.346   5.153 -0.2302  1.2296  0.2992
  405TIP3    H222631   3.078   2.222   5.072 -0.6820  0.7134  1.2246
  406TIP3   OH222632   3.860   4.191  14.185  0.5722  0.4301 -0.0028
  406TIP3    H122633   3.839   4.198  14.278  2.7994  1.4839  0.4790
  406TIP3    H222634   3.785   4.231  14.140  0.5630  2.1861  1.4696
  407TIP3   OH222635   2.127   5.535  13.347  0.5406 -0.4540 -0.3553
  407TIP3    H122636   2.062   5.500  13.407  0.0944  0.6935 -0.1388
  407TIP3    H222637   2.206   5.546  13.399 -0.3018  2.1140  0.5457
  408TIP3   OH222638   3.519   5.299  14.260  0.3582 -0.0999 -0.5104
  408TIP3    H122639   3.598   5.264  14.301  0.0693  0.1716  0.3034
  408TIP3    H222640   3.543   5.313  14.169  1.1670 -0.2593 -0.3299
  409TIP3   OH222641   0.969   1.551   3.444 -0.2516 -0.3839  0.7713
  409TIP3    H122642   0.977   1.508   3.359  3.0105 -2.3288  1.8876
  409TIP3    H222643   0.895   1.507   3.486 -1.3945  0.0610 -0.6951
  410TIP3   OH222644   2.050   4.512   3.973  0.0082  0.1914 -0.4519
  410TIP3    H122645   2.011   4.499   4.060 -0.1493  0.1008 -0.5355
  410TIP3    H222646   2.132   4.558   3.990  0.6348 -0.9890 -0.1350
  411TIP3   OH222647   2.474   1.178  13.834 -0.1868 -0.3299 -0.3496
  411TIP3    H122648   2.453   1.167  13.741  1.8211 -0.2503 -0.8563
  411TIP3    H222649   2.433   1.262  13.858  1.3805  0.9287 -1.8613
  412TIP3   OH222650   6.806   2.446  10.264 -0.2323 -0.6896  0.5012
  412TIP3    H122651   6.899   2.424  10.257 -0.6095 -2.1144 -0.5662
  412TIP3    H222652   6.783   2.423  10.354  0.5835  0.3570  1.0039
  413TIP3   OH222653   4.297   2.084   1.456  0.3403 -0.2959  0.8234
  413TIP3    H122654   4.283   2.154   1.520  2.1857  0.7054  0.2177
  413TIP3    H222655   4.381   2.045   1.482  1.4034  0.4888 -1.2509
  414TIP3   OH222656   2.749   0.759   1.630  0.5795  0.7088 -0.1547
  414TIP3    H122657   2.656   0.737   1.618  0.8649 -0.4363 -0.3376
  414TIP3    H222658   2.769   0.729   1.719  0.8740  0.6134 -0.2527
  415TIP3   OH222659   2.631   0.796  13.139 -0.3013  0.9039  0.1838
  415TIP3    H122660   2.559   0.794  13.076  0.4341 -0.0891 -0.6493
  415TIP3    H222661   2.707   0.766  13.090  0.0957 -0.8291  1.7644
  416TIP3   OH222662   2.724   1.520  11.975  0.0842 -0.7525  0.1783
  416TIP3    H122663   2.754   1.592  11.919 -0.6556 -1.6083 -1.3473
  416TIP3    H222664   2.805   1.480  12.007  0.5380 -0.9489 -1.1797
  417TIP3   OH222665   0.620   3.948   3.538  0.3348 -0.2926  0.5681
  417TIP3    H122666   0.636   3.916   3.450 -0.2786  3.9533 -1.3134
  417TIP3    H222667   0.527   3.931   3.553  0.3052 -0.4818  0.1785
  418TIP3   OH222668   0.214   5.313  17.217 -0.1985 -0.2181 -0.3304
  418TIP3    H122669   0.218   5.223  17.251  0.7232  0.4361  1.4337
  418TIP3    H222670   0.187   5.303  17.126  1.1464 -2.3843 -0.5586
  419TIP3   OH222671   1.448   1.119   6.067  0.1205 -0.4614  0.3268
  419TIP3    H122672   1.380   1.062   6.032 -0.4939 -1.2249  2.6559
  419TIP3    H222673   1.516   1.060   6.099  1.1484  0.2505 -0.4595
  420TIP3   OH222674   6.736   6.726   4.630 -0.0751 -0.3945  0.0932
  420TIP3    H122675   6.738   6.635   4.598 -0.6262  0.0228 -1.2268
  420TIP3    H222676   6.682   6.722   4.709  1.1311 -1.4361  0.9085
  421TIP3   OH222677   2.732   2.209   2.802  0.4744  0.4908  0.2139
  421TIP3    H122678   2.646   2.244   2.824  0.6697  0.8148  0.4639
  421TIP3    H222679   2.715   2.142   2.736  0.0176  0.4666  0.3573
  422TIP3   OH222680   2.355   5.752   5.210 -0.0287 -0.0741  0.0650
  422TIP3    H122681   2.323   5.664   5.233 -0.9806  0.4024  0.6428
  422TIP3    H222682   2.310   5.772   5.128 -1.4919  0.7025  1.0112
  423TIP3   OH222683   1.707   0.267   4.551  0.4255 -0.2458  0.0776
  423TIP3    H122684   1.647   0.341   4.540 -1.2837 -1.3313  1.5001
  423TIP3    H222685   1.661   0.193   4.514  2.3815 -0.5723 -1.8888
  424TIP3   OH222686   5.413   3.224   4.471 -0.1088 -0.9245 -0.0735
  424TIP3    H122687   5.421   3.316   4.445  2.1750 -0.6776  1.2437
  424TIP3    H222688   5.461   3.176   4.404  1.1764 -0.8221  0.7365
  425TIP3   OH222689   4.935   5.898  12.767 -0.4991  0.0695 -0.2949
  425TIP3    H122690   4.958   5.874  12.677  0.0618  0.7314 -0.3409
  425TIP3    H222691   4.970   5.986  12.778 -0.7032  0.0609  0.5237
  426TIP3   OH222692   1.843   4.416   3.111  0.3201 -0.2340  0.5309
  426TIP3    H122693   1.911   4.482   3.124 -0.5394  0.7161  0.3226
  426TIP3    H222694   1.782   4.431   3.183  0.4671 -1.2611  0.8744
  427TIP3   OH222695   4.339   3.600  13.913 -0.0376 -0.6194 -0.7620
  427TIP3    H122696   4.365   3.577  13.825  1.5482 -0.5842 -0.3207
  427TIP3    H222697   4.409   3.567  13.969 -0.9791 -0.5849  0.4815
  428TIP3   OH222698   5.771   2.983  16.820  0.0026 -0.7681 -0.3002
  428TIP3    H122699   5.734   3.024  16.742 -1.1985  0.2189  0.7325
  428TIP3    H222700   5.704   2.921  16.849 -0.1752 -0.1249  0.7011
  429TIP3   OH222701   3.356   0.429   4.426 -0.6546 -0.3128  0.0242
  429TIP3    H122702   3.449   0.428   4.449 -0.8707  0.4672  0.9751
  429TIP3    H222703   3.326   0.516   4.451 -1.8449 -0.8519  0.5130
  430TIP3   OH222704   3.171   5.371   1.431  0.5071 -0.1058 -0.0658
  430TIP3    H122705   3.197   5.290   1.476  0.0342  0.1186  0.6329
  430TIP3    H222706   3.153   5.432   1.503  0.5206  0.5106 -0.5860
  431TIP3   OH222707   2.233   4.708   0.563 -0.6738  0.2795 -0.4832
  431TIP3    H122708   2.240   4.612   0.557  0.7940  0.2408  1.2662
  431TIP3    H222709   2.143   4.727   0.534 -1.8715 -1.8622  1.4567
  432TIP3   OH222710   2.502   1.201  13.315  0.3448  0.3745 -0.0803
  432TIP3    H122711   2.539   1.115  13.299  0.7880  0.3713  0.8520
  432TIP3    H222712   2.437   1.214  13.246 -2.3096 -2.1925  1.6657
  433TIP3   OH222713   4.743   2.786  12.690  0.5761 -0.1046  0.0754
  433TIP3    H122714   4.814   2.824  12.741 -0.6833  0.7918  1.2361
  433TIP3    H222715   4.739   2.695  12.719  3.5425 -1.2829 -2.6507
  434TIP3   OH222716   4.481   6.675   1.511  0.3823 -1.0451  0.2260
  434TIP3    H122717   4.429   6.597   1.529 -0.1469 -0.5996  0.6467
  434TIP3    H222718   4.427   6.727   1.451  0.7041 -0.9714 -0.0018
  435TIP3   OH222719   2.156   2.508  14.750  0.0064  0.1526 -0.0384
  435TIP3    H122720   2.188   2.422  14.777 -0.2041 -0.8608 -2.6980
  435TIP3    H222721   2.127   2.550  14.831 -0.5882 -2.5776  1.2578
  436TIP3   OH222722   3.466   5.284   2.999 -0.1498  0.0538  0.0808
  436TIP3    H122723   3.408   5.282   3.075 -2.3504  0.8419 -1.4604
  436TIP3    H222724   3.490   5.192   2.985 -1.2408 -0.3304  0.6187
  437TIP3   OH222725   6.581   3.460   5.255 -0.0246  0.4516 -0.1130
  437TIP3    H122726   6.493   3.439   5.225  1.0146 -3.1137 -1.1202
  437TIP3    H222727   6.630   3.481   5.175  0.8536 -1.2374 -0.0641
  438TIP3   OH222728   5.194   0.999   2.577  0.2663 -0.0949 -0.2078
  438TIP3    H122729   5.248   1.075   2.599  0.0825  0.0561 -0.2764
  438TIP3    H222730   5.158   0.970   2.661 -1.9721  1.6321 -0.4532
  439TIP3   OH222731   0.078   6.199   6.101  0.1111 -0.1639 -0.6521
  439TIP3    H122732   0.144   6.130   6.102  1.3479  0.9612  0.7282
  439TIP3    H222733   0.117   6.269   6.048 -0.9433 -0.3310 -1.6903
  440TIP3   OH222734   0.167   3.300   4.993 -0.2463  0.4289  0.2866
  440TIP3    H122735   0.229   3.244   4.947  0.2117  1.5596 -0.5236
  440TIP3    H222736   0.139   3.248   5.068  0.0226 -0.9393 -0.5228
  441TIP3   OH222737   4.555   6.656  11.273  0.0879  0.5400 -0.1232
  441TIP3    H122738   4.529   6.573  11.233  0.7695 -0.4261  1.3326
  441TIP3    H222739   4.482   6.677  11.333  1.0474 -0.4140  1.4512
  442TIP3   OH222740   5.541   0.574  15.035  0.1374  0.3481 -0.4919
  442TIP3    H122741   5.504   0.500  15.085 -1.1512  1.1282 -0.2288
  442TIP3    H222742   5.574   0.534  14.954  2.1061 -0.9133  0.8622
  443TIP3   OH222743   2.041   5.820  11.239  0.6808 -0.9397  0.0777
  443TIP3    H122744   2.089   5.796  11.318 -0.0632 -0.6634  0.6260
  443TIP3    H222745   1.950   5.797  11.258  0.5003 -0.9435 -0.7339
  444TIP3   OH222746   6.533   6.775  14.496  0.5819 -0.4507  0.2325
  444TIP3    H122747   6.473   6.845  14.469 -0.4769 -1.2627  0.4315
  444TIP3    H222748   6.597   6.770  14.425  0.8262  0.8752  0.3256
  445TIP3   OH222749   0.169   1.436   1.416  0.0309  0.1972 -0.4152
  445TIP3    H122750   0.188   1.481   1.334  0.0072  0.2250 -0.4052
  445TIP3    H222751   0.093   1.381   1.395  1.3899 -1.5446 -1.0703
  446TIP3   OH222752   1.818   1.607  14.172 -0.2187 -0.4296  0.4916
  446TIP3    H122753   1.880   1.546  14.212  1.1445 -0.3348 -1.3602
  446TIP3    H222754   1.803   1.572  14.084 -1.9651  0.1623  0.5174
  447TIP3   OH222755   5.085   3.060  13.071  0.1897  0.3873  0.1627
  447TIP3    H122756   5.132   3.074  13.153  1.2979 -0.2359 -0.3404
  447TIP3    H222757   5.112   3.132  13.015 -1.9510  1.8462  0.8855
  448TIP3   OH222758   1.591   6.028   0.922 -0.8525 -0.3422 -0.9693
  448TIP3    H122759   1.569   6.108   0.971  1.2518  0.8937 -1.8847
  448TIP3    H222760   1.639   5.975   0.985  2.5292  1.5778 -1.6611
  449TIP3   OH222761   3.700   0.243   4.371  0.0808  0.7217  0.4378
  449TIP3    H122762   3.682   0.255   4.277  1.6405  1.1313  0.1734
  449TIP3    H222763   3.648   0.311   4.414 -1.7771 -0.3531  0.0218
  450TIP3   OH222764   6.319   4.732   0.910  0.0658 -0.0818  0.4240
  450TIP3    H122765   6.347   4.823   0.924 -1.5488  0.5689 -0.3163
  450TIP3    H222766   6.296   4.728   0.817  1.6118 -1.7056  0.0703
  451TIP3   OH222767   1.650   0.394   4.009  0.6560 -0.5873 -0.4889
  451TIP3    H122768   1.654   0.303   4.040  1.1217 -0.3650  0.1188
  451TIP3    H222769   1.625   0.386   3.917  2.6837 -1.4567 -1.0358
  452TIP3   OH222770   4.991   3.836  14.622 -0.3292  0.1587 -0.1896
  452TIP3    H122771   4.980   3.804  14.533 -1.1469  1.4084 -0.5544
  452TIP3    H222772   4.965   3.928  14.619  0.0985  0.3558  1.2350
  453TIP3   OH222773   4.419   2.389  15.606 -0.3370  0.7045 -0.4976
  453TIP3    H122774   4.475   2.460  15.639 -0.7743  0.9414 -0.2586
  453TIP3    H222775   4.334   2.404  15.647 -0.0983 -0.7118  0.5789
  454TIP3   OH222776   1.428   0.856   0.600 -0.0595 -0.5184  0.3713
  454TIP3    H122777   1.486   0.784   0.626  0.4071 -1.2561 -2.3801
  454TIP3    H222778   1.345   0.813   0.578 -0.4520  0.0672  0.6785
  455TIP3   OH222779   2.880   4.421  16.153 -0.1069  0.3070  0.0255
  455TIP3    H122780   2.920   4.433  16.240  0.2224 -1.2751  0.1322
  455TIP3    H222781   2.898   4.503  16.107 -0.1144  1.1100  1.3806
  456TIP3   OH222782   4.292   0.257  13.510  0.2802  0.7582 -0.1186
  456TIP3    H122783   4.336   0.210  13.439  2.2144  0.9112  0.9064
  456TIP3    H222784   4.267   0.188  13.571 -0.1393  0.7496 -0.2991
  457TIP3   OH222785   1.241   5.131  13.709  0.4157 -0.2563  0.0243
  457TIP3    H122786   1.180   5.111  13.780 -0.2571  1.4004 -0.0480
  457TIP3    H222787   1.327   5.133  13.752  0.5290 -2.8946  0.0724
  458TIP3   OH222788   1.585   5.274   5.356  0.2648 -1.0042  0.2069
  458TIP3    H122789   1.667   5.234   5.383  0.8377 -0.6015 -0.8516
  458TIP3    H222790   1.599   5.298   5.264 -0.5757  0.2445  0.3759
  459TIP3   OH222791   4.277   0.231   1.453  0.1544 -0.1014 -0.2648
  459TIP3    H122792   4.316   0.281   1.381 -1.3564  1.8229  0.1721
  459TIP3    H222793   4.317   0.268   1.532 -0.4778 -0.0453  0.0313
  460TIP3   OH222794   2.046   0.542   1.362  0.0142  0.0341  0.3367
  460TIP3    H122795   1.997   0.525   1.442 -1.1691 -1.5076 -0.6497
  460TIP3    H222796   2.001   0.617   1.322 -1.4373 -1.1622 -0.3969
  461TIP3   OH222797   4.014   5.578   5.530  0.1922 -0.1118  0.2101
  461TIP3    H122798   4.025   5.614   5.442  0.4817  1.4220  0.8361
  461TIP3    H222799   4.103   5.556   5.558  0.1169 -0.4604  0.1750
  462TIP3   OH222800   3.767   5.538   5.357  0.0984  0.3820 -0.3386
  462TIP3    H122801   3.732   5.470   5.299  1.6733 -1.6919  0.9788
  462TIP3    H222802   3.789   5.611   5.298 -3.3712  0.6134 -1.5676
  463TIP3   OH222803   0.099   5.122   0.354  0.1842  0.0104 -0.4537
  463TIP3    H122804   0.091   5.102   0.447  1.2671 -0.8961 -0.5239
  463TIP3    H222805   0.184   5.166   0.347 -0.0249  0.3362 -0.9839
  464TIP3   OH222806   0.140   1.056   5.197  0.1998 -0.0448  0.2873
  464TIP3    H122807   0.132   1.115   5.122 -0.2211 -0.2090  0.1966
  464TIP3    H222808   0.194   1.103   5.260 -0.2125  0.4812  0.2547
  465TIP3   OH222809   4.675   1.970  13.899  0.3215 -0.0513 -0.2884
  465TIP3    H122810   4.631   2.002  13.820 -0.4482 -0.0282  0.1416
  465TIP3    H222811   4.609   1.918  13.944  1.4416 -1.9836 -0.7838
  466TIP3   OH222812   5.509   5.236   3.529  0.2925  0.0744 -0.6296
  466TIP3    H122813   5.423   5.195   3.522  0.2369  0.3077 -1.4081
  466TIP3    H222814   5.491   5.320   3.573  0.4837 -0.9115  1.4775
  467TIP3   OH222815   5.687   4.623   2.312  0.4301  0.0516  0.3332
  467TIP3    H122816   5.681   4.555   2.245  0.9582  0.9837 -0.7054
  467TIP3    H222817   5.626   4.691   2.282 -1.0883 -0.4738  2.0302
  468TIP3   OH222818   1.709   4.951   4.734  0.2031 -0.1768  0.7339
  468TIP3    H122819   1.795   4.971   4.770 -0.5736  0.1222  2.5069
  468TIP3    H222820   1.727   4.897   4.657  2.0175  0.9043  0.3432
  469TIP3   OH222821   3.941   4.501   3.964  0.4277 -0.5578 -0.2040
  469TIP3    H122822   3.939   4.496   3.868 -0.8543  0.1965 -0.2301
  469TIP3    H222823   4.001   4.573   3.983 -1.5493  1.2623 -0.5550
  470TIP3   OH222824   0.927   5.276   1.773  0.1611  0.3128  0.2864
  470TIP3    H122825   0.951   5.203   1.830 -1.0326 -0.8158 -0.6046
  470TIP3    H222826   0.896   5.344   1.832 -0.4355 -0.5875  1.0293
  471TIP3   OH222827   4.766   4.071  16.497  0.1164  0.0315 -0.0534
  471TIP3    H122828   4.736   4.089  16.586 -1.1470 -0.7303 -0.2995
  471TIP3    H222829   4.858   4.097  16.497  0.0963  0.1896  1.4254
  472TIP3   OH222830   6.057   2.365  15.569 -0.0749 -0.5054  0.1947
  472TIP3    H122831   5.979   2.330  15.612  0.3706 -0.8636  0.7222
  472TIP3    H222832   6.045   2.344  15.476  0.0828 -1.8603  0.4664
  473TIP3   OH222833   1.282   4.280  10.953 -0.1260 -0.3262 -0.1191
  473TIP3    H122834   1.279   4.243  10.865 -0.2275 -0.4014 -0.0843
  473TIP3    H222835   1.237   4.215  11.008  0.9290 -0.8360  0.1804
  474TIP3   OH222836   5.928   0.818  12.687 -0.0903 -0.7892  0.0708
  474TIP3    H122837   5.880   0.894  12.719 -0.7611 -0.5748 -1.3910
  474TIP3    H222838   6.020   0.844  12.693 -0.3330  0.4916 -1.2032
  475TIP3   OH222839   1.720   4.335  15.901  0.5506  0.4084  0.0300
  475TIP3    H122840   1.634   4.360  15.935  1.7115  1.2691  2.5360
  475TIP3    H222841   1.704   4.314  15.809 -2.7833 -1.9081  0.9790
  476TIP3   OH222842   4.901   3.270  17.035  0.5587 -0.3387 -0.6790
  476TIP3    H122843   4.963   3.290  17.106  0.6407 -1.6788 -0.3408
  476TIP3    H222844   4.817   3.301  17.068  0.4765 -1.5188  0.3239
  477TIP3   OH222845   3.287   3.692   4.790 -0.3657 -0.1834 -0.2756
  477TIP3    H122846   3.341   3.641   4.730 -0.5164 -1.4794  0.6597
  477TIP3    H222847   3.348   3.756   4.828  0.3668 -1.1056  0.1687
  478TIP3   OH222848   2.747   1.139   3.487 -0.0737 -0.5821  0.2849
  478TIP3    H122849   2.652   1.148   3.490 -0.1772 -0.4589 -1.9586
  478TIP3    H222850   2.770   1.150   3.395  2.2230  0.3006  0.8822
  479TIP3   OH222851   3.397   5.321   1.239 -0.1276  0.2775  0.0304
  479TIP3    H122852   3.369   5.310   1.148 -0.6799  1.6577  0.0076
  479TIP3    H222853   3.317   5.348   1.285  0.5310  1.4275  0.5388
  480TIP3   OH222854   5.668   0.948  15.536  0.3054  0.2958  0.5481
  480TIP3    H122855   5.732   0.890  15.494  0.5811  0.9255  0.0863
  480TIP3    H222856   5.583   0.912  15.511  0.4029 -1.8226  2.8872
  481TIP3   OH222857   0.834   4.122   3.540 -0.1138 -0.1947  0.2621
  481TIP3    H122858   0.767   4.054   3.534 -0.0562 -0.1938 -0.3906
  481TIP3    H222859   0.803   4.193   3.484  0.1686  0.0325  0.3893
  482TIP3   OH222860   1.744   0.041  10.462 -0.0831 -0.4186 -0.1386
  482TIP3    H122861   1.659   0.038  10.418  0.1220  0.1863 -0.5808
  482TIP3    H222862   1.772  -0.051  10.466  0.1203 -0.4437 -1.7201
  483TIP3   OH222863   0.836   0.233   5.814  0.3160 -0.2269  0.2101
  483TIP3    H122864   0.819   0.189   5.897  0.7186  0.5737  0.7293
  483TIP3    H222865   0.778   0.190   5.751 -0.6896 -0.2187  1.1060
  484TIP3   OH222866   1.103   2.952  11.634 -0.3753  0.6729  0.3515
  484TIP3    H122867   1.061   2.914  11.557  1.7834 -0.0723 -0.5562
  484TIP3    H222868   1.104   2.882  11.699 -0.4282  0.6561  0.3336
  485TIP3   OH222869   0.420   1.062   2.507 -0.0175 -0.0435 -0.0832
  485TIP3    H122870   0.347   1.100   2.555 -1.3671 -1.4544 -0.8982
  485TIP3    H222871   0.475   1.022   2.574  0.1385  1.2166  0.5628
  486TIP3   OH222872   2.538   3.673   3.587 -0.1338 -0.1707  0.2869
  486TIP3    H122873   2.584   3.621   3.653  0.9943 -0.2651 -0.5346
  486TIP3    H222874   2.505   3.749   3.634  1.1208  0.0329  0.8633
  487TIP3   OH222875   3.612   5.158   0.169  0.4622  0.3976  0.1183
  487TIP3    H122876   3.631   5.209   0.248 -1.3521 -0.5003  1.1874
  487TIP3    H222877   3.517   5.150   0.167  0.4826  0.0743 -1.9796
  488TIP3   OH222878   3.354   5.782  11.263 -0.2373  0.2902 -0.1454
  488TIP3    H122879   3.341   5.877  11.272 -1.3439  0.2463 -0.9741
  488TIP3    H222880   3.444   5.767  11.290  0.3560  1.7652 -1.1695
  489TIP3   OH222881   1.098   3.637  13.806  0.2845 -0.2902  0.1445
  489TIP3    H122882   1.192   3.657  13.808  0.4360 -1.0222  0.4440
  489TIP3    H222883   1.092   3.557  13.754  0.0120 -1.2238  1.5588
  490TIP3   OH222884   5.049   6.680  11.424 -0.1719 -0.4841 -0.3300
  490TIP3    H122885   5.136   6.722  11.429  0.0073 -1.0315  2.1180
  490TIP3    H222886   5.020   6.698  11.335  2.3116  0.0103 -1.1346
  491TIP3   OH222887   0.456   4.354  16.048  0.0659  0.0230 -0.1726
  491TIP3    H122888   0.495   4.297  15.982 -0.5407 -0.4468 -0.1343
  491TIP3    H222889   0.531   4.392  16.094  0.4762 -1.1439  0.1452
  492TIP3   OH222890   0.833   4.420  15.056 -0.0431  0.5859  0.1731
  492TIP3    H122891   0.813   4.382  14.970  0.5510 -0.9199  0.6684
  492TIP3    H222892   0.800   4.509  15.051  0.5357  0.7361 -1.8489
  493TIP3   OH222893   6.365   0.153   3.663 -0.5324 -0.5714 -0.0083
  493TIP3    H122894   6.416   0.145   3.743 -1.1411 -2.4310  0.2456
  493TIP3    H222895   6.338   0.245   3.660  1.0658 -0.0425  0.9123
  494TIP3   OH222896   6.624   4.572  11.854 -0.2562  0.6628 -0.1316
  494TIP3    H122897   6.563   4.553  11.926 -0.0205 -0.2451 -0.1492
  494TIP3    H222898   6.685   4.498  11.855  0.5527  1.3063 -0.4297
  495TIP3   OH222899   6.640   5.950   2.128 -0.3063  0.6237  0.0733
  495TIP3    H122900   6.572   5.916   2.187 -0.5109 -1.4487 -1.2687
  495TIP3    H222901   6.598   6.025   2.085 -1.1658  0.3654  0.4337
  496TIP3   OH222902   6.412   5.402   1.042 -0.5155 -0.1084  0.0301
  496TIP3    H122903   6.361   5.350   1.104 -0.7643 -1.2892 -1.1186
  496TIP3    H222904   6.349   5.429   0.976 -0.4313  1.8770  0.6940
  497TIP3   OH222905   5.481   5.922  13.286 -0.4927 -0.0619  0.4940
  497TIP3    H122906   5.515   5.976  13.358 -2.4178  0.5533  0.9813
  497TIP3    H222907   5.479   5.981  13.210 -0.0440 -0.2412  0.3365
  498TIP3   OH222908   3.619   6.479  11.249 -0.5920 -0.2752 -0.2838
  498TIP3    H122909   3.528   6.449  11.246 -0.8997  0.6490 -0.2999
  498TIP3    H222910   3.613   6.573  11.266  0.3502 -0.1005 -0.8802
  499TIP3   OH222911   5.813   2.625  11.326 -0.5670  0.6122  0.2148
  499TIP3    H122912   5.773   2.669  11.401 -0.5582  2.7263 -0.9350
  499TIP3    H222913   5.907   2.641  11.336 -0.3324 -1.0687  0.9144
  500TIP3   OH222914   5.969   2.036   2.112  0.5893 -0.6891 -0.3572
  500TIP3    H122915   5.938   1.958   2.157  0.3778 -0.4907 -0.1538
  500TIP3    H222916   5.896   2.098   2.117  0.8370 -0.3955 -0.3136
  501TIP3   OH222917   2.831   2.133   0.982 -0.4443 -0.3773  1.0130
  501TIP3    H122918   2.780   2.176   1.050 -0.9557 -0.0564  0.4422
  501TIP3    H222919   2.765   2.097   0.922 -0.0818  1.8192 -0.8592
  502TIP3   OH222920   1.556   2.928  16.498 -0.2416 -0.5362 -0.5816
  502TIP3    H122921   1.562   2.885  16.413 -1.0571  0.0285 -0.9261
  502TIP3    H222922   1.543   3.021  16.478  1.4405 -0.0960  0.1544
  503TIP3   OH222923   2.457   2.792   4.834  0.4396 -0.2633  0.5069
  503TIP3    H122924   2.401   2.868   4.820  0.6011 -0.1601  0.4134
  503TIP3    H222925   2.440   2.765   4.924 -1.3375 -1.5103 -0.1408
  504TIP3   OH222926   6.072   5.969  15.855 -0.5017  0.0836 -0.1619
  504TIP3    H122927   5.989   5.995  15.897  1.1765  1.0865  2.8374
  504TIP3    H222928   6.082   6.032  15.783 -2.2309  0.0554 -0.4766
  505TIP3   OH222929   5.749   3.489   0.964 -0.9199  0.4382  0.5869
  505TIP3    H122930   5.710   3.433   0.897  3.2522 -1.2326 -0.8039
  505TIP3    H222931   5.771   3.429   1.035 -0.0598  1.0187  0.8330
  506TIP3   OH222932   4.084   6.179   2.179 -0.0862  0.2641  0.3646
  506TIP3    H122933   4.148   6.121   2.138 -0.8787 -1.2489  1.1896
  506TIP3    H222934   4.055   6.132   2.257 -1.4546  1.3584  0.5601
  507TIP3   OH222935   5.746   0.380   0.633 -0.3671  0.5112 -0.2142
  507TIP3    H122936   5.741   0.426   0.717 -2.1046 -0.7403  0.4338
  507TIP3    H222937   5.820   0.320   0.643 -0.7556  0.1421  0.5787
  508TIP3   OH222938   5.212   4.754  11.297  0.1503  0.1599 -0.2184
  508TIP3    H122939   5.175   4.711  11.219 -1.0294 -0.1721  0.5001
  508TIP3    H222940   5.307   4.750  11.283 -0.0385  0.6217 -1.9114
  509TIP3   OH222941   2.249   0.394  12.009  0.4202  0.0403  0.4993
  509TIP3    H122942   2.287   0.307  11.995  0.9174  0.3822 -0.3726
  509TIP3    H222943   2.161   0.376  12.043 -0.6389 -0.9063 -2.3993
  510TIP3   OH222944   0.783   3.630   4.950 -0.6634  0.4591 -0.1166
  510TIP3    H122945   0.816   3.610   5.037 -0.6124  0.7014 -0.0798
  510TIP3    H222946   0.764   3.545   4.911 -1.8344  0.3928  0.5696
  511TIP3   OH222947   6.437   5.284   2.901  0.7848  0.5796 -0.8274
  511TIP3    H122948   6.530   5.305   2.910  0.2330  3.8385 -1.5861
  511TIP3    H222949   6.398   5.307   2.985  0.5758 -0.4934 -0.6129
  512TIP3   OH222950   0.877   5.908  11.251 -0.3364  0.0621  0.3448
  512TIP3    H122951   0.954   5.883  11.303  0.6686  1.8526 -0.2138
  512TIP3    H222952   0.807   5.851  11.284  0.9127 -0.7429  1.7503
  513TIP3   OH222953   4.384   5.929   0.480 -0.0825  0.1927  0.0601
  513TIP3    H122954   4.357   5.845   0.443 -1.0437  0.4618  0.1274
  513TIP3    H222955   4.309   5.958   0.532  0.1452  1.2006 -0.1475
  514TIP3   OH222956   6.540   5.922  12.735 -0.1143 -0.1168  0.4288
  514TIP3    H122957   6.512   5.833  12.754  0.1642 -0.8512 -2.2629
  514TIP3    H222958   6.465   5.976  12.761 -0.4746 -1.1526  1.6509
  515TIP3   OH222959   5.367   5.216  15.056  0.4872  0.4936  0.2308
  515TIP3    H122960   5.432   5.179  15.116  0.9576  0.4161 -0.3148
  515TIP3    H222961   5.287   5.221  15.107  0.8398  0.2671  0.8120
  516TIP3   OH222962   5.631   4.446  16.872 -0.0327 -0.1491  0.2414
  516TIP3    H122963   5.644   4.394  16.793 -1.2240 -0.7176  0.4006
  516TIP3    H222964   5.637   4.383  16.944  0.6623  0.3007  0.5858
  517TIP3   OH222965   3.489   1.690  16.791  0.1031 -0.2911  0.7496
  517TIP3    H122966   3.467   1.690  16.698  3.2756  0.5994 -0.1389
  517TIP3    H222967   3.511   1.599  16.811  0.8156 -0.2442  0.2126
  518TIP3   OH222968   2.705   1.344  13.963 -0.4888  0.1841  0.2648
  518TIP3    H122969   2.770   1.404  13.926 -0.4272  0.0512  0.1564
  518TIP3    H222970   2.624   1.364  13.916 -0.4241  0.0554  0.0956
  519TIP3   OH222971   2.208   0.687   5.698  0.3734 -0.1377 -0.3388
  519TIP3    H122972   2.231   0.693   5.605  0.6556 -0.6016 -0.3028
  519TIP3    H222973   2.272   0.743   5.742  0.0373  0.3367 -0.4566
  520TIP3   OH222974   0.544   4.712  15.773  0.5826 -0.7811  0.1482
  520TIP3    H122975   0.473   4.771  15.801  1.0134 -0.1834 -0.0002
  520TIP3    H222976   0.519   4.685  15.685  0.4184 -0.7685  0.1898
  521TIP3   OH222977   6.543   0.026  13.462 -0.0544 -0.3559  0.2398
  521TIP3    H122978   6.546  -0.028  13.384 -0.3748 -0.5638  0.3686
  521TIP3    H222979   6.487   0.100  13.438  0.4922 -0.0038  0.0199
  522TIP3   OH222980   4.413   3.836   1.427  0.5890  0.2840  0.1227
  522TIP3    H122981   4.348   3.866   1.364  1.1098  0.4867 -0.3326
  522TIP3    H222982   4.362   3.802   1.500 -0.0883 -1.9255 -1.2654
  523TIP3   OH222983   4.505   5.482  10.935  0.0700 -0.0319  0.0784
  523TIP3    H122984   4.523   5.418  11.004 -2.4616 -0.7691  0.1422
  523TIP3    H222985   4.464   5.430  10.865  2.7217  0.6351 -2.1683
  524TIP3   OH222986   5.051   4.235  16.539 -0.0124 -0.3284 -0.1253
  524TIP3    H122987   5.135   4.281  16.540 -0.0121 -0.3278  0.8188
  524TIP3    H222988   4.986   4.305  16.535  0.0232 -0.3285 -0.8399
  525TIP3   OH222989   1.546   3.619  12.986 -0.6807 -0.4057  0.0505
  525TIP3    H122990   1.476   3.555  13.001 -0.7779 -0.0527  1.2168
  525TIP3    H222991   1.597   3.583  12.913  0.1871 -2.6181  1.6507
  526TIP3   OH222992   5.533   5.218   4.684 -0.6638  0.1382  0.3407
  526TIP3    H122993   5.544   5.287   4.619  0.7965  0.1110  0.5318
  526TIP3    H222994   5.438   5.210   4.695 -0.9009  0.8919 -0.9706
  527TIP3   OH222995   6.484   5.665  14.609 -0.3559 -0.3699 -0.3136
  527TIP3    H122996   6.445   5.586  14.647  1.3711 -2.0816 -1.8675
  527TIP3    H222997   6.423   5.691  14.540  0.1140 -1.7291 -1.2864
  528TIP3   OH222998   1.461   2.719   3.400  0.2800  0.1171 -0.2252
  528TIP3    H122999   1.546   2.677   3.385  0.1039 -1.1798  2.0546
  528TIP3    H223000   1.397   2.651   3.382 -0.0849 -0.0727  1.5867
  529TIP3   OH223001   0.528   1.894   1.651 -0.6508 -0.1727 -0.2198
  529TIP3    H123002   0.600   1.888   1.589 -0.0993  0.4020  0.3556
  529TIP3    H223003   0.569   1.915   1.734 -1.6385  2.6014 -0.3402
  530TIP3   OH223004   4.117   4.842  15.070  0.0822  0.0197  0.1338
  530TIP3    H123005   4.188   4.829  15.007 -0.1542 -0.8621  0.0326
  530TIP3    H223006   4.149   4.911  15.128  0.8094 -0.0100 -0.2118
  531TIP3   OH223007   1.264   5.160   2.009  0.0317  0.7368 -0.8084
  531TIP3    H123008   1.298   5.171   2.098 -0.6135 -0.9017 -0.3281
  531TIP3    H223009   1.301   5.234   1.960  0.6490  1.4955  0.7338
  532TIP3   OH223010   5.751   6.690   1.960 -0.4379 -0.7475 -0.3687
  532TIP3    H123011   5.735   6.693   1.866 -0.1005 -1.8552 -0.4818
  532TIP3    H223012   5.787   6.776   1.982  0.4470 -0.8197 -1.4417
  533TIP3   OH223013   5.317   5.270   4.138  0.0673 -0.0111  0.5390
  533TIP3    H123014   5.324   5.354   4.093 -0.3104 -0.9148 -1.3073
  533TIP3    H223015   5.379   5.213   4.093  0.4732 -0.7075  1.9005
  534TIP3   OH223016   0.986   1.514   0.255  0.0180  0.0886 -1.3243
  534TIP3    H123017   0.904   1.524   0.303  1.3805  3.2554  0.6652
  534TIP3    H223018   1.012   1.603   0.233  1.7878 -0.9796 -4.0226
  535TIP3   OH223019   3.185   1.727   0.989  0.2196 -0.5138  0.0051
  535TIP3    H123020   3.117   1.785   0.954  0.1750 -1.4515 -1.5712
  535TIP3    H223021   3.267   1.772   0.971  0.0999 -0.1371  0.3968
  536TIP3   OH223022   6.166   0.115  12.209 -0.8467 -0.3711  0.0832
  536TIP3    H123023   6.145   0.165  12.129 -1.2787  1.0558  1.0477
  536TIP3    H223024   6.123   0.031  12.196 -1.6240  0.1386 -0.8373
  537TIP3   OH223025   0.331   4.344   4.426  0.3112  0.4071  0.4674
  537TIP3    H123026   0.285   4.428   4.423 -0.6084 -0.1089 -0.8710
  537TIP3    H223027   0.299   4.302   4.506 -1.8837 -0.0629 -0.5682
  538TIP3   OH223028   4.725   2.545   2.079 -0.0405 -0.2644 -0.3544
  538TIP3    H123029   4.691   2.630   2.054  0.5133  0.7189  1.9779
  538TIP3    H223030   4.674   2.521   2.157  0.8980 -1.2848 -0.0249
  539TIP3   OH223031   6.691   5.863   2.611  0.0326  0.2560 -0.5142
  539TIP3    H123032   6.717   5.915   2.687  0.1981 -0.0111 -0.3846
  539TIP3    H223033   6.662   5.927   2.546 -1.4567  0.4188  0.2692
  540TIP3   OH223034   5.617   6.487   2.482 -0.4462 -0.3616 -0.6936
  540TIP3    H123035   5.544   6.550   2.481  0.7472  1.1372  0.3856
  540TIP3    H223036   5.584   6.413   2.533 -1.4961 -0.0718 -0.9375
  541TIP3   OH223037   0.354   2.099   2.953 -0.1569 -0.2263  0.2411
  541TIP3    H123038   0.408   2.057   2.886  0.2549  1.0194 -0.2475
  541TIP3    H223039   0.296   2.030   2.984  0.2478 -1.0578 -0.7802
  542TIP3   OH223040   6.032   0.351  15.118 -0.1061 -0.0475 -0.5717
  542TIP3    H123041   6.098   0.381  15.181 -1.5443  0.7943  0.5881
  542TIP3    H223042   5.962   0.415  15.124 -1.8081 -1.8095 -0.4905
  543TIP3   OH223043   2.389   0.006   2.379  0.1343  0.0737  0.1277
  543TIP3    H123044   2.337   0.064   2.434  0.6209  0.0029  0.6714
  543TIP3    H223045   2.341   0.002   2.296  0.6457  2.1430 -0.3342
  544TIP3   OH223046   0.427   6.177   5.128 -0.1343  0.7960  0.3561
  544TIP3    H123047   0.432   6.268   5.101 -0.2087  0.2154 -1.7441
  544TIP3    H223048   0.507   6.137   5.094  0.1950  0.1803  1.7741
  545TIP3   OH223049   3.337   0.978   1.907 -0.1988 -0.2821  0.4259
  545TIP3    H123050   3.408   0.947   1.964  0.4045  1.1394  0.4825
  545TIP3    H223051   3.259   0.933   1.940  0.2542 -0.0254  1.9471
  546TIP3   OH223052   4.400   4.361  15.893  0.1484  0.1262  0.6215
  546TIP3    H123053   4.444   4.435  15.852 -0.7654  1.1289  1.3968
  546TIP3    H223054   4.364   4.311  15.820 -1.0544  1.6227  0.1255
  547TIP3   OH223055   1.399   5.605   2.500  0.4545  0.6190  0.2423
  547TIP3    H123056   1.313   5.587   2.462  0.2006 -0.5800  1.2938
  547TIP3    H223057   1.417   5.528   2.554  1.6078  1.4504  1.0774
  548TIP3   OH223058   0.152   0.456   1.713 -0.8876  0.2107 -0.4950
  548TIP3    H123059   0.173   0.409   1.632  0.4230  0.1295 -0.1221
  548TIP3    H223060   0.202   0.537   1.707 -0.5458  0.0679  0.3697
  549TIP3   OH223061   3.404   2.660  14.690  0.2145 -0.3310 -0.5863
  549TIP3    H123062   3.327   2.626  14.737  0.1697 -1.0638 -1.1673
  549TIP3    H223063   3.449   2.581  14.659  0.6699  0.1240 -1.0842
  550TIP3   OH223064   2.301   4.931  13.232  0.0393  0.0983 -0.5518
  550TIP3    H123065   2.230   4.907  13.172  1.3898 -1.3531 -1.6657
  550TIP3    H223066   2.293   5.026  13.242 -0.5895  0.3210 -2.6169
  551TIP3   OH223067   5.958   1.680  16.612 -0.3735 -0.6796 -0.1063
  551TIP3    H123068   5.969   1.735  16.689  2.1975  0.2012 -1.0040
  551TIP3    H223069   6.037   1.626  16.610 -0.9483 -1.5251 -1.5084
  552TIP3   OH223070   1.279   5.590   3.878  0.2839 -0.0809  0.0545
  552TIP3    H123071   1.224   5.628   3.947  0.0875 -0.4155  0.0835
  552TIP3    H223072   1.312   5.509   3.916  0.7464  0.0884  0.0126
  553TIP3   OH223073   2.682   6.748   3.116  0.5804 -0.4705 -0.0926
  553TIP3    H123074   2.694   6.654   3.101 -3.6329 -1.7160  2.5689
  553TIP3    H223075   2.726   6.765   3.199  0.2989 -0.4398  0.0540
  554TIP3   OH223076   3.201   0.024   2.714  0.5341 -1.1580 -0.4202
  554TIP3    H123077   3.272   0.002   2.654  0.9468 -1.6773  0.2565
  554TIP3    H223078   3.220  -0.024   2.794  0.8883  0.8415  0.7509
  555TIP3   OH223079   5.771   4.499   6.394  0.1185 -0.0190  0.4420
  555TIP3    H123080   5.751   4.407   6.409 -2.0180  0.6705  2.4870
  555TIP3    H223081   5.839   4.520   6.458 -1.1164  0.3139  1.7123
  556TIP3   OH223082   0.531   2.834  12.632 -0.1215  0.4185 -0.3185
  556TIP3    H123083   0.527   2.760  12.692 -0.5726  1.3662  0.8679
  556TIP3    H223084   0.507   2.910  12.686 -3.2850  0.9919 -2.2755
  557TIP3   OH223085   1.489   3.135  16.757  0.2119  0.5299  0.2779
  557TIP3    H123086   1.419   3.136  16.823  1.2202  1.2647  1.3760
  557TIP3    H223087   1.568   3.161  16.805  0.7984  2.1171 -1.4313
  558TIP3   OH223088   3.395   0.541  11.954  0.1641 -0.6114  0.1120
  558TIP3    H123089   3.300   0.533  11.941 -0.2194  0.2968  2.0450
  558TIP3    H223090   3.419   0.463  12.004  0.3529 -0.6191  0.0092
  559TIP3   OH223091   6.318   5.121   5.142 -0.1181 -0.5764  0.0081
  559TIP3    H123092   6.331   5.191   5.078  1.1896 -0.3013  0.5544
  559TIP3    H223093   6.353   5.043   5.100  0.5637 -0.4339  0.3025
  560TIP3   OH223094   1.731   2.581  11.281  0.7551  0.4180 -0.0253
  560TIP3    H123095   1.648   2.619  11.252  1.2807  2.0578  0.5231
  560TIP3    H223096   1.782   2.570  11.201  0.4088  0.3890 -0.2427
  561TIP3   OH223097   1.673   1.520  11.637 -0.1084 -0.2813  0.0389
  561TIP3    H123098   1.644   1.468  11.562  0.5966 -0.2227 -0.2883
  561TIP3    H223099   1.765   1.495  11.648  0.0117  0.3065  0.3822
  562TIP3   OH223100   0.000   5.570  13.715  0.4446 -0.1757 -0.4561
  562TIP3    H123101   0.030   5.479  13.710 -0.9960 -0.7183  0.1004
  562TIP3    H223102  -0.084   5.570  13.670 -0.2153  0.5688  0.7286
  563TIP3   OH223103   5.254   4.361  15.883 -0.2199 -0.1902 -0.0311
  563TIP3    H123104   5.215   4.277  15.908  0.0916 -0.4223 -0.3041
  563TIP3    H223105   5.340   4.360  15.923 -0.7647  0.6529  1.2105
  564TIP3   OH223106   5.063   1.785   3.187 -0.5709 -0.6405 -0.7827
  564TIP3    H123107   5.100   1.873   3.186 -0.0822 -0.6854  2.4771
  564TIP3    H223108   5.124   1.733   3.134  1.3599  0.2532  0.4501
  565TIP3   OH223109   4.855   3.450  16.428 -0.5505  0.2332  0.4035
  565TIP3    H123110   4.838   3.536  16.465 -0.1453  1.4200 -1.9905
  565TIP3    H223111   4.790   3.393  16.469 -0.6612  1.5950  2.2333
  566TIP3   OH223112   0.763   6.802  15.997 -0.8536  0.5330 -0.0622
  566TIP3    H123113   0.741   6.840  15.912 -0.6115  0.4133 -0.1760
  566TIP3    H223114   0.847   6.758  15.984  0.7466  3.0276  0.9557
  567TIP3   OH223115   3.691   5.333  11.836 -0.0505  0.2213 -0.3834
  567TIP3    H123116   3.774   5.348  11.791  0.6427  1.3808  1.1728
  567TIP3    H223117   3.715   5.281  11.913 -0.9688 -0.4165 -0.5095
  568TIP3   OH223118   2.927   1.111  15.385 -0.3207 -0.0771 -0.2259
  568TIP3    H123119   2.860   1.163  15.339  0.0721 -0.8045 -1.6697
  568TIP3    H223120   2.945   1.161  15.465 -1.5292  0.8793 -0.5222
  569TIP3   OH223121   0.328   6.461  11.168  0.5163 -0.2625 -0.0544
  569TIP3    H123122   0.262   6.531  11.165  1.0839  0.2638 -0.3489
  569TIP3    H223123   0.406   6.499  11.128  1.0586 -0.8238  0.4411
  570TIP3   OH223124   3.634   0.896  13.712 -0.2335  0.0317  0.4328
  570TIP3    H123125   3.552   0.944  13.700  0.4129  1.1993  0.6054
  570TIP3    H223126   3.696   0.940  13.653  0.0720 -1.3744 -0.3421
  571TIP3   OH223127   1.119   3.167  11.011  0.9092  0.1843 -0.2626
  571TIP3    H123128   1.051   3.126  10.959 -1.3143  2.8637  0.2550
  571TIP3    H223129   1.158   3.233  10.953 -0.7503  2.3420  0.8861
  572TIP3   OH223130   1.011   5.065  16.258  0.1388 -0.4090 -0.0088
  572TIP3    H123131   0.931   5.019  16.286 -1.5602  2.7388  0.7856
  572TIP3    H223132   1.028   5.032  16.170 -3.3986  0.2913 -1.1062
  573TIP3   OH223133   5.042   0.752   5.073 -0.0493 -0.1206 -0.2011
  573TIP3    H123134   5.108   0.806   5.030  1.1420 -1.6656 -0.4328
  573TIP3    H223135   4.960   0.799   5.061  0.6021  0.5934 -2.2193
  574TIP3   OH223136   2.950   2.349  12.038 -0.5038  0.3308  0.1659
  574TIP3    H123137   2.994   2.434  12.035  2.4528 -0.9636  1.9612
  574TIP3    H223138   2.881   2.360  12.103  0.9683  0.9538  1.6815
  575TIP3   OH223139   4.942   6.505   4.696  0.5659 -0.0637 -0.2091
  575TIP3    H123140   4.960   6.486   4.604 -0.2565 -0.2860 -0.3318
  575TIP3    H223141   4.971   6.427   4.743  0.8329 -0.0187 -0.3018
  576TIP3   OH223142   5.095   4.954   1.628  0.2635 -0.5349  0.0304
  576TIP3    H123143   5.157   5.026   1.643  0.3333 -0.5934  0.0231
  576TIP3    H223144   5.020   4.997   1.587  0.2753 -0.4538  0.0929
  577TIP3   OH223145   3.617   1.754  15.613  0.1462 -0.7015 -0.4193
  577TIP3    H123146   3.699   1.706  15.605  0.2723 -0.2984 -1.7608
  577TIP3    H223147   3.554   1.688  15.642  0.2712 -1.7964 -2.4425
  578TIP3   OH223148   4.464   0.957  12.907 -0.1900  0.1403  0.0002
  578TIP3    H123149   4.504   0.871  12.892 -0.5096 -0.2520  1.3232
  578TIP3    H223150   4.499   0.985  12.992 -0.4125  1.1392 -0.2315
  579TIP3   OH223151   4.005   5.280  11.869 -0.6296  0.3812  0.6464
  579TIP3    H123152   4.083   5.336  11.873  0.3418 -0.7624 -0.9491
  579TIP3    H223153   3.975   5.274  11.960  1.0340  1.0107  1.2827
  580TIP3   OH223154   0.161   6.095  10.656  0.0469  0.7652 -0.3388
  580TIP3    H123155   0.134   6.054  10.574  1.2566  1.4730 -1.1102
  580TIP3    H223156   0.181   6.185  10.632  0.6169  0.9230  0.7010
  581TIP3   OH223157   1.109   4.839  16.837 -0.6732  0.5323  0.3240
  581TIP3    H123158   1.046   4.903  16.870 -1.1887  0.0644  0.2534
  581TIP3    H223159   1.102   4.847  16.742 -0.3537  0.7391  0.3156
  582TIP3   OH223160   1.125   2.117   2.192  0.7896 -0.2667  0.0787
  582TIP3    H123161   1.140   2.073   2.109  0.6596 -0.3120  0.0793
  582TIP3    H223162   1.074   2.055   2.243 -0.2530  0.2824 -0.2822
  583TIP3   OH223163   6.604   2.729  12.277  0.3689 -0.1199 -0.1300
  583TIP3    H123164   6.558   2.661  12.227  1.7444  0.1435 -1.8212
  583TIP3    H223165   6.622   2.688  12.361 -2.2343 -0.4952  0.3474
  584TIP3   OH223166   6.086   4.954   2.099  0.6933 -0.3008  0.3095
  584TIP3    H123167   5.990   4.944   2.097  0.2935  2.5792  0.5209
  584TIP3    H223168   6.116   4.881   2.153 -1.3662 -1.3543  0.1458
  585TIP3   OH223169   0.182   6.310  11.862  0.1616 -0.1433 -0.2276
  585TIP3    H123170   0.252   6.373  11.873 -0.4874  1.0487 -2.3286
  585TIP3    H223171   0.104   6.362  11.843 -0.6068 -1.5216 -1.0813
  586TIP3   OH223172   2.669   2.256  13.425 -0.0705 -0.1810 -0.1735
  586TIP3    H123173   2.752   2.265  13.470  0.3975  0.2458 -1.0799
  586TIP3    H223174   2.647   2.345  13.396 -0.6252 -0.3523 -0.3056
  587TIP3   OH223175   4.557   0.077  16.959 -0.0373  0.4199 -0.0038
  587TIP3    H123176   4.582   0.124  17.038  0.5822  0.3088 -0.1274
  587TIP3    H223177   4.577  -0.015  16.979 -2.6278 -0.0448  0.8023
  588TIP3   OH223178   5.775   5.850  15.700 -0.3817 -0.0919  0.7920
  588TIP3    H123179   5.825   5.875  15.622 -0.7000  1.2026  0.9725
  588TIP3    H223180   5.841   5.829  15.766 -0.1070 -1.6587  0.0627
  589TIP3   OH223181   3.992   1.792  13.549  0.4015  0.2787  0.0454
  589TIP3    H123182   3.936   1.869  13.536 -0.9271 -0.5167  0.8532
  589TIP3    H223183   4.012   1.793  13.643  2.8781  1.2706 -0.4227
  590TIP3   OH223184   2.142   6.211   2.333 -0.0328 -0.2854  0.4982
  590TIP3    H123185   2.155   6.169   2.248 -2.0188  0.5688 -0.3066
  590TIP3    H223186   2.196   6.290   2.330 -1.6473  0.8522 -0.9061
  591TIP3   OH223187   4.219   5.529   6.113  0.7859  0.1585  0.0199
  591TIP3    H123188   4.210   5.592   6.185 -0.8574 -0.8067  0.7065
  591TIP3    H223189   4.244   5.447   6.156  1.5061 -0.0190 -0.7124
  592TIP3   OH223190   5.996   6.493   0.508 -0.2961  0.0391 -0.2371
  592TIP3    H123191   6.089   6.490   0.532 -0.5118  1.3457  0.8829
  592TIP3    H223192   5.964   6.405   0.527  0.2555  0.1603  1.4437
  593TIP3   OH223193   0.857   5.895  16.882  0.2571 -0.2566  0.0071
  593TIP3    H123194   0.780   5.848  16.913  1.5439 -1.8570  0.9330
  593TIP3    H223195   0.847   5.896  16.786 -0.7384 -0.7311  0.0869
  594TIP3   OH223196   5.453   0.059  12.216  0.0367  0.4252 -0.7099
  594TIP3    H123197   5.470   0.146  12.253 -0.7807 -0.2960  1.5190
  594TIP3    H223198   5.505  -0.001  12.271 -0.7325 -0.6420 -1.1223
  595TIP3   OH223199   2.716   0.186  13.345  0.7690  0.0135  0.5768
  595TIP3    H123200   2.644   0.248  13.359  1.3284  1.2433 -1.5138
  595TIP3    H223201   2.756   0.214  13.263  3.1516 -1.1271  1.2582
  596TIP3   OH223202   3.078   4.095   5.061  0.7024  0.3365  0.4444
  596TIP3    H123203   3.106   4.003   5.059  3.1091  1.0028 -2.0001
  596TIP3    H223204   3.073   4.120   4.969  0.5707  2.7990  1.0677
  597TIP3   OH223205   5.009   2.894  15.348  0.1685 -0.2197  0.1844
  597TIP3    H123206   4.934   2.836  15.358 -0.1962  0.3365  0.7071
  597TIP3    H223207   4.980   2.978  15.382  0.8992  0.1119  0.0194
  598TIP3   OH223208   0.523   6.462  13.773 -0.6918 -0.5338  0.6057
  598TIP3    H123209   0.527   6.451  13.678  0.0974  2.1376  0.2375
  598TIP3    H223210   0.439   6.505  13.789 -0.0601  0.6430  0.8724
  599TIP3   OH223211   2.667   0.171  15.280  0.2129  0.1282  0.2651
  599TIP3    H123212   2.625   0.136  15.202  0.4403 -1.3387  0.7820
  599TIP3    H223213   2.707   0.253  15.251 -1.1062  0.4346 -0.7460
  600TIP3   OH223214   5.054   2.553  12.683 -0.3151 -0.2659 -0.0899
  600TIP3    H123215   5.028   2.482  12.742  0.6323 -0.7075 -0.1989
  600TIP3    H223216   5.126   2.597  12.728  1.3939 -1.4826 -1.5023
  601TIP3   OH223217   1.322   1.578  17.005  0.0736 -0.3806 -0.0107
  601TIP3    H123218   1.362   1.515  17.065  2.1017 -0.0858 -0.9471
  601TIP3    H223219   1.235   1.543  16.987  0.6581 -2.2051  0.5164
  602TIP3   OH223220   4.935   5.760  14.049  0.1466  0.1411  0.1378
  602TIP3    H123221   4.894   5.841  14.078  2.4797  1.1055  0.9148
  602TIP3    H223222   4.968   5.780  13.961 -0.8957 -0.6081 -0.4523
  603TIP3   OH223223   0.650   4.523  16.442 -0.5810  0.0243 -0.0248
  603TIP3    H123224   0.582   4.516  16.509 -1.3050 -0.1075 -0.7512
  603TIP3    H223225   0.619   4.594  16.385  0.1016  0.2449 -0.1218
  604TIP3   OH223226   0.754   5.534   2.186 -0.4402  0.2788  0.2842
  604TIP3    H123227   0.715   5.486   2.113 -1.8884 -1.2124  1.9243
  604TIP3    H223228   0.687   5.599   2.211  0.3623  1.3089 -0.1659
  605TIP3   OH223229   1.034   2.377  10.711  0.0390  0.2629  0.0601
  605TIP3    H123230   0.971   2.446  10.732  0.1444  0.3287  0.1634
  605TIP3    H223231   0.981   2.301  10.689 -0.0858 -0.0756  1.4359
  606TIP3   OH223232   0.796   5.059   5.081 -0.3024 -0.6711 -0.1029
  606TIP3    H123233   0.863   5.127   5.073 -1.3731  0.5359  0.7498
  606TIP3    H223234   0.817   4.995   5.013  0.7273  0.5207 -0.9255
  607TIP3   OH223235   4.891   4.552  13.481  0.0050  0.3221 -0.5865
  607TIP3    H123236   4.973   4.506  13.500 -0.5341 -0.4952 -0.1774
  607TIP3    H223237   4.839   4.489  13.432 -0.1034  1.1000 -1.4883
  608TIP3   OH223238   4.763   1.730  16.584  0.2744 -0.4198 -0.8512
  608TIP3    H123239   4.694   1.665  16.587 -0.1049 -0.0890 -1.7578
  608TIP3    H223240   4.836   1.686  16.540  0.0827 -0.3095 -1.2963
  609TIP3   OH223241   1.955   0.130   2.084 -0.0926 -0.3413  0.1584
  609TIP3    H123242   1.904   0.048   2.080 -1.2222  0.3755 -0.6888
  609TIP3    H223243   2.042   0.105   2.052 -0.7920 -0.9510 -1.3531
  610TIP3   OH223244   0.976   5.960  14.465 -0.6571 -0.5637 -0.0191
  610TIP3    H123245   0.979   5.996  14.376 -0.2182  1.6317  0.8131
  610TIP3    H223246   0.895   5.995  14.502 -0.7872 -1.3813  0.4936
  611TIP3   OH223247   1.529   0.683  16.127 -0.2283  0.1430 -0.3684
  611TIP3    H123248   1.468   0.673  16.054  0.4162  0.0395 -0.9057
  611TIP3    H223249   1.557   0.593  16.146  0.1026  0.2347 -0.4251
  612TIP3   OH223250   2.480   1.383  13.556 -0.0308 -0.8612 -0.3020
  612TIP3    H123251   2.484   1.341  13.470 -1.2280  0.0441 -0.8314
  612TIP3    H223252   2.392   1.420  13.560  0.6940  0.8692  0.4750
  613TIP3   OH223253   6.585   0.552   2.807 -0.0049 -0.4594 -0.3910
  613TIP3    H123254   6.666   0.506   2.829 -0.4770 -1.0638  0.1249
  613TIP3    H223255   6.568   0.609   2.882  1.3160  1.6642 -1.6094
  614TIP3   OH223256   2.244   4.771  11.639 -0.0172  0.2974  0.3826
  614TIP3    H123257   2.197   4.691  11.662  2.3329 -2.1635 -2.4773
  614TIP3    H223258   2.306   4.783  11.711 -1.2549  0.3690  1.4769
  615TIP3   OH223259   6.532   1.482  14.097 -0.1728 -0.2131 -0.0604
  615TIP3    H123260   6.532   1.392  14.130 -1.6796  0.0021  0.6337
  615TIP3    H223261   6.623   1.500  14.076  0.1823 -1.8465 -0.0605
  616TIP3   OH223262   2.461   6.408   5.244  0.1467  0.1746 -0.1225
  616TIP3    H123263   2.505   6.377   5.324  0.0068  0.8273  0.2212
  616TIP3    H223264   2.407   6.480   5.274  0.2358  0.5514 -0.8458
  617TIP3   OH223265   1.181   6.679   1.494  0.7709 -0.3356  0.1024
  617TIP3    H123266   1.155   6.741   1.561  0.5857  1.0509 -1.2104
  617TIP3    H223267   1.162   6.593   1.532 -0.5348  0.4543  1.3100
  618TIP3   OH223268   4.115   4.732   4.053  0.0528 -0.4703 -0.1075
  618TIP3    H123269   4.195   4.762   4.010  1.3068  0.1473  2.4727
  618TIP3    H223270   4.052   4.802   4.037  0.8965  0.3751  0.1438
  619TIP3   OH223271   3.583   5.452   2.088  0.0631 -0.2739  0.2241
  619TIP3    H123272   3.637   5.467   2.011  1.5711 -0.1593  1.2692
  619TIP3    H223273   3.539   5.368   2.071 -0.6283  0.3473 -1.2747
  620TIP3   OH223274   0.555   3.735  15.304  0.5189  0.2181 -0.2076
  620TIP3    H123275   0.583   3.792  15.233 -0.3467 -0.1438 -0.8591
  620TIP3    H223276   0.470   3.770  15.332  0.0216 -0.6735 -0.5533
  621TIP3   OH223277   0.135   0.576   5.045 -0.1652  0.2897 -0.4287
  621TIP3    H123278   0.207   0.521   5.012  0.4686  0.8913 -0.0777
  621TIP3    H223279   0.095   0.523   5.114 -1.5802 -1.0379 -2.1606
  622TIP3   OH223280   0.087   4.237  16.919  0.7594 -0.5649  0.1615
  622TIP3    H123281   0.025   4.165  16.931 -0.5715  0.6082  0.5685
  622TIP3    H223282   0.121   4.255  17.007 -0.9821  1.0495  0.5726
  623TIP3   OH223283   0.911   3.957   0.310  0.7211  0.1106  0.0967
  623TIP3    H123284   0.841   4.014   0.343  1.0744  1.1116 -0.8003
  623TIP3    H223285   0.918   3.980   0.217  1.8273 -0.4198  0.0376
  624TIP3   OH223286   1.097   0.193  13.705  0.0934  0.5779 -0.3062
  624TIP3    H123287   1.034   0.124  13.683  1.0870 -0.6179  0.4169
  624TIP3    H223288   1.085   0.259  13.637 -0.9048 -0.3074 -1.0317
  625TIP3   OH223289   5.958   6.516  16.200 -0.0950  0.1163 -0.0348
  625TIP3    H123290   6.040   6.467  16.205 -0.1727 -0.2114 -1.5371
  625TIP3    H223291   5.894   6.459  16.243  0.0139 -0.6801 -0.8907
  626TIP3   OH223292   6.136   6.165  12.199 -0.0378  0.1918 -0.2395
  626TIP3    H123293   6.172   6.081  12.170 -1.7156 -0.4681 -0.5198
  626TIP3    H223294   6.147   6.223  12.124 -1.0422 -0.4871 -0.9459
  627TIP3   OH223295   2.184   6.583  15.206  0.6278 -0.0818  0.2319
  627TIP3    H123296   2.096   6.552  15.183  0.4822 -0.3564  1.1070
  627TIP3    H223297   2.216   6.517  15.268  0.4539  1.2921  1.8519
  628TIP3   OH223298   5.325   2.273   2.808 -0.4692 -0.1763 -0.3315
  628TIP3    H123299   5.362   2.271   2.719  2.3972 -0.1136  0.7307
  628TIP3    H223300   5.290   2.185   2.821 -0.6689 -0.2764 -1.4206
  629TIP3   OH223301   6.228   5.408  15.842 -0.0649  0.1153  0.5027
  629TIP3    H123302   6.222   5.367  15.756 -2.5140  1.6146 -0.1280
  629TIP3    H223303   6.322   5.421  15.856  0.3642  1.8142 -2.9414
  630TIP3   OH223304   6.440   4.234  11.325  0.1384 -0.0355 -0.0718
  630TIP3    H123305   6.416   4.152  11.281 -1.8655  0.1710  0.5799
  630TIP3    H223306   6.488   4.206  11.403 -2.5396 -0.7979  1.4259
  631TIP3   OH223307   1.449   6.731   3.883  0.0004  0.0276  0.0052
  631TIP3    H123308   1.517   6.792   3.912 -0.3057  0.5641 -0.3749
  631TIP3    H223309   1.485   6.690   3.805  1.0501 -1.8216  1.3919
  632TIP3   OH223310   0.711   1.076  11.876 -0.2079  0.3218  0.3922
  632TIP3    H123311   0.625   1.048  11.908 -1.0212 -0.3516 -2.1892
  632TIP3    H223312   0.715   1.044  11.786  2.4637  1.0068  0.1869
  633TIP3   OH223313   2.343   0.577   1.940  0.3162 -0.1009 -0.6030
  633TIP3    H123314   2.312   0.664   1.965  1.4895  0.5228 -1.2398
  633TIP3    H223315   2.276   0.544   1.880 -1.2098 -0.5422  1.2206
  634TIP3   OH223316   4.103   0.198  15.721 -0.0454 -0.0204 -0.4533
  634TIP3    H123317   4.053   0.121  15.748 -0.6812  0.3169 -0.6533
  634TIP3    H223318   4.055   0.233  15.646 -0.3857  1.2064  0.3133
  635TIP3   OH223319   0.465   6.456  15.927  0.1823  0.5626 -0.5631
  635TIP3    H123320   0.555   6.462  15.961 -0.1006 -2.6975  1.1025
  635TIP3    H223321   0.410   6.469  16.003 -0.6257 -1.2659 -0.7958
  636TIP3   OH223322   5.840   4.528  13.390 -0.8196 -0.1275 -0.1037
  636TIP3    H123323   5.789   4.462  13.437 -1.4399 -0.7242 -1.5619
  636TIP3    H223324   5.775   4.590  13.358 -0.3017  0.8461  0.6538
  637TIP3   OH223325   5.882   4.219   6.022  0.7890  0.0413 -0.3196
  637TIP3    H123326   5.936   4.144   5.996  1.9384  1.0952 -1.0650
  637TIP3    H223327   5.874   4.273   5.943 -0.3362  0.5426  0.1012
  638TIP3   OH223328   1.147   0.191   0.808 -0.4009  0.6502  0.0672
  638TIP3    H123329   1.079   0.205   0.742 -0.6028 -2.7677 -0.6170
  638TIP3    H223330   1.228   0.188   0.757 -0.5247 -1.6832 -0.0905
  639TIP3   OH223331   5.136   3.836  15.974  0.2925 -0.5900  0.3335
  639TIP3    H123332   5.048   3.802  15.962 -0.4868  0.6080  2.1842
  639TIP3    H223333   5.159   3.810  16.064  1.0376  0.7414  0.5438
  640TIP3   OH223334   0.217   5.290  12.520 -0.1463 -0.0476 -0.2324
  640TIP3    H123335   0.277   5.348  12.567 -1.2405  0.6948  0.2847
  640TIP3    H223336   0.136   5.293  12.570 -0.6970 -0.8776 -1.0329
  641TIP3   OH223337   5.512   5.636  17.045 -0.2611  0.1759 -0.5767
  641TIP3    H123338   5.586   5.696  17.049 -0.7610  0.7813 -0.1711
  641TIP3    H223339   5.485   5.626  17.137 -0.1787 -0.6782 -0.6369
  642TIP3   OH223340   0.933   4.805  17.239  0.3272  0.7292 -0.0590
  642TIP3    H123341   0.971   4.807  17.326  1.3541 -0.3785 -0.4652
  642TIP3    H223342   0.840   4.823  17.253  0.3710 -0.0044  1.3278
  643TIP3   OH223343   6.142   5.552   4.705 -0.2089  0.3928  0.6289
  643TIP3    H123344   6.237   5.562   4.713  0.0324 -0.2978 -0.9549
  643TIP3    H223345   6.109   5.556   4.795  1.2150  1.5495  1.1361
  644TIP3   OH223346   4.712   5.744   4.723  0.2704 -0.0872  0.0258
  644TIP3    H123347   4.639   5.757   4.664 -0.0649  0.8009  0.6181
  644TIP3    H223348   4.759   5.668   4.688  0.6396  0.9852 -1.9370
  645TIP3   OH223349   6.620   3.408  12.770  0.6881 -0.4759  0.4003
  645TIP3    H123350   6.689   3.354  12.809 -1.0441 -0.6957  3.5606
  645TIP3    H223351   6.540   3.379  12.815 -0.7319  2.8789  0.2908
  646TIP3   OH223352   3.185   1.028   0.167  0.3268 -0.4022 -0.2711
  646TIP3    H123353   3.098   1.027   0.127  0.3515 -0.0681 -0.3311
  646TIP3    H223354   3.199   0.937   0.193  0.9431 -0.9718 -2.3937
  647TIP3   OH223355   1.834   1.642  11.419 -0.5680  0.6248 -0.4838
  647TIP3    H123356   1.884   1.561  11.410 -0.7047  0.7432 -2.9874
  647TIP3    H223357   1.892   1.701  11.467 -0.0686 -0.6118  0.4822
  648TIP3   OH223358   3.628   6.426   4.382 -0.5305 -0.3092  0.4191
  648TIP3    H123359   3.600   6.494   4.443 -0.3870 -0.0279  0.1691
  648TIP3    H223360   3.703   6.464   4.335  0.3515 -1.0827  1.1513
  649TIP3   OH223361   4.329   6.072   4.907 -0.0044  0.0345  0.1096
  649TIP3    H123362   4.253   6.129   4.918 -1.3730 -1.6959  0.0501
  649TIP3    H223363   4.321   6.037   4.818  1.3871  0.5126 -0.2370
  650TIP3   OH223364   5.040   5.384   5.977 -0.1790 -0.3495  0.5357
  650TIP3    H123365   4.949   5.379   6.004  0.5651  1.1609  3.8086
  650TIP3    H223366   5.078   5.300   6.004 -0.3621 -0.5536  0.1626
  651TIP3   OH223367   6.257   1.847  12.163 -0.0162 -0.3457 -0.1289
  651TIP3    H123368   6.233   1.905  12.091  0.2669  0.8175  0.6985
  651TIP3    H223369   6.222   1.762  12.137 -1.7380  0.4883 -0.6801
  652TIP3   OH223370   4.591   1.702   0.796  0.3078 -0.3212  0.1447
  652TIP3    H123371   4.669   1.740   0.837  1.4810 -0.3693 -1.9172
  652TIP3    H223372   4.602   1.608   0.806  0.4785 -0.3236 -0.0513
  653TIP3   OH223373   0.667   3.940  11.998 -0.3583 -0.5196 -0.0628
  653TIP3    H123374   0.722   3.935  12.076  0.0434 -0.7841 -0.3596
  653TIP3    H223375   0.622   4.024  12.006  0.2804 -0.1815  0.0540
  654TIP3   OH223376   3.555   6.811  14.768  0.4867  0.3183 -0.0630
  654TIP3    H123377   3.552   6.716  14.755  0.9275  0.0901  1.2857
  654TIP3    H223378   3.638   6.826  14.814  0.4030  1.3549 -0.2153
  655TIP3   OH223379   1.684   5.354   1.715  0.2210  0.1720 -0.0692
  655TIP3    H123380   1.688   5.319   1.626 -1.2980 -0.7242  0.1827
  655TIP3    H223381   1.717   5.443   1.707  1.2830 -0.2903 -1.2910
  656TIP3   OH223382   2.363   5.131   4.562 -0.3427  0.3229 -0.1287
  656TIP3    H123383   2.382   5.121   4.656  0.1474  2.0350 -0.0066
  656TIP3    H223384   2.449   5.127   4.520 -0.2636  2.0148 -0.2103
  657TIP3   OH223385   2.288   3.146  13.088 -0.9077 -0.0611  0.1176
  657TIP3    H123386   2.367   3.131  13.035 -0.4743 -3.4479  1.4730
  657TIP3    H223387   2.216   3.140  13.025 -0.2383  0.2228 -0.7004
  658TIP3   OH223388   4.760   4.549  15.402  0.3100 -0.2137 -0.4650
  658TIP3    H123389   4.743   4.475  15.459  1.9306 -0.4152 -0.1943
  658TIP3    H223390   4.755   4.513  15.314 -3.1344  0.2912 -0.5843
  659TIP3   OH223391   5.317   0.019   3.080  0.5487  0.2085  1.0377
  659TIP3    H123392   5.251   0.046   3.016  1.1219 -0.9256 -0.0554
  659TIP3    H223393   5.300  -0.073   3.096 -0.6327  0.8055  3.8468
  660TIP3   OH223394   2.230   5.520   4.838 -0.3985  0.2394 -0.2670
  660TIP3    H123395   2.219   5.553   4.749 -1.1947 -1.0373 -0.6720
  660TIP3    H223396   2.154   5.555   4.885  0.6312  1.8919  0.2586
  661TIP3   OH223397   3.873   4.478  14.814  0.4334  0.2037  0.0679
  661TIP3    H123398   3.909   4.423  14.744 -0.5501 -0.2635 -0.0896
  661TIP3    H223399   3.948   4.501  14.868  1.2310  0.5788 -1.1397
  662TIP3   OH223400   5.168   2.055  14.076  0.6577  0.4716  0.2089
  662TIP3    H123401   5.087   2.084  14.119  0.6848  0.2907  0.3876
  662TIP3    H223402   5.155   1.961  14.064  1.1344  0.3103  0.8957
  663TIP3   OH223403   0.669   6.733   5.465 -0.4056 -0.4103  0.7923
  663TIP3    H123404   0.696   6.724   5.557  3.6226  0.0618 -0.1668
  663TIP3    H223405   0.708   6.657   5.421 -0.5808  0.4019 -0.8270
  664TIP3   OH223406   1.785   4.764   4.553 -0.0756  0.1403 -0.0858
  664TIP3    H123407   1.840   4.729   4.483 -0.2345 -0.3398  0.0228
  664TIP3    H223408   1.766   4.688   4.608 -0.9991  0.2595 -0.2242
  665TIP3   OH223409   0.294   5.366  16.563  0.6016 -0.4886 -0.1630
  665TIP3    H123410   0.247   5.358  16.480  0.4323 -1.2000 -0.0022
  665TIP3    H223411   0.226   5.360  16.630  0.8873 -1.3207  0.0636
  666TIP3   OH223412   2.038   1.113  11.276  0.1946 -0.6847  0.0568
  666TIP3    H123413   1.943   1.111  11.264  0.2268 -2.1802 -0.1258
  666TIP3    H223414   2.067   1.187  11.223 -0.9714  0.4915  0.9943
  667TIP3   OH223415   5.356   3.712  14.750  0.5612 -0.1982  0.4230
  667TIP3    H123416   5.291   3.722  14.680  1.1969  2.4020  0.0765
  667TIP3    H223417   5.438   3.694  14.703  1.5875  4.2579 -0.0023
  668TIP3   OH223418   4.490   0.845   5.792 -0.0562 -0.2418  0.1216
  668TIP3    H123419   4.423   0.906   5.823 -1.3106 -1.2074 -0.5962
  668TIP3    H223420   4.554   0.901   5.748 -0.6469  0.6644  0.3862
  669TIP3   OH223421   2.755   3.010  15.462 -0.5346  0.1792 -0.1368
  669TIP3    H123422   2.707   2.973  15.536 -0.3504 -1.2842 -0.7082
  669TIP3    H223423   2.710   3.092  15.443 -2.6389 -0.9747 -0.4544
  670TIP3   OH223424   4.497   2.529  16.681 -0.7313 -0.0935  0.1413
  670TIP3    H123425   4.477   2.602  16.739 -0.6894  0.0926 -0.0791
  670TIP3    H223426   4.515   2.569  16.596  0.6441 -0.2343  0.3365
  671TIP3   OH223427   3.630   5.289   5.918 -0.3380  0.4401  0.0943
  671TIP3    H123428   3.553   5.312   5.970  0.2041  1.8277  0.3469
  671TIP3    H223429   3.595   5.245   5.841 -1.4182  1.2223  0.1112
  672TIP3   OH223430   5.016   1.576  16.543 -0.1153 -0.6265  0.6175
  672TIP3    H123431   5.108   1.560  16.564 -0.0413 -1.6833 -0.4171
  672TIP3    H223432   5.016   1.599  16.450 -0.6665  1.7240  1.1349
  673TIP3   OH223433   2.139   4.880   1.732 -0.7841  0.2498  0.1981
  673TIP3    H123434   2.179   4.796   1.752  0.1016  0.4947 -0.4864
  673TIP3    H223435   2.212   4.942   1.730 -1.4768  1.1613  1.2642
  674TIP3   OH223436   1.807   3.163   5.136 -0.1161 -0.4872  0.8912
  674TIP3    H123437   1.782   3.255   5.140 -0.5736 -0.6102  0.9085
  674TIP3    H223438   1.893   3.163   5.093 -0.1175 -0.0552  0.8863
  675TIP3   OH223439   3.200   2.401   5.772 -0.0276 -0.0749  0.1506
  675TIP3    H123440   3.199   2.443   5.858 -0.5011  0.8039 -0.2734
  675TIP3    H223441   3.231   2.312   5.789  1.0102  0.4345  1.0688
  676TIP3   OH223442   1.304   4.157  14.216 -0.1024  0.5418  0.1343
  676TIP3    H123443   1.380   4.106  14.186 -0.0457  1.7662 -2.0201
  676TIP3    H223444   1.294   4.133  14.308  1.0377 -1.9180 -0.3069
  677TIP3   OH223445   6.218   0.199  12.480 -0.1037  0.1186 -0.1179
  677TIP3    H123446   6.208   0.164  12.391  1.8049  0.6937 -0.6139
  677TIP3    H223447   6.257   0.127  12.530 -0.3662  0.0743  0.0206
  678TIP3   OH223448   0.820   3.223  13.585  0.4011 -0.1681 -0.2495
  678TIP3    H123449   0.803   3.314  13.562  0.6446 -0.1403 -0.3196
  678TIP3    H223450   0.833   3.178  13.502  2.0665  0.0849 -0.1654
  679TIP3   OH223451   5.860   5.422  12.635 -0.1500  0.2689 -0.0641
  679TIP3    H123452   5.770   5.453  12.640 -0.3711 -0.2097 -0.8720
  679TIP3    H223453   5.854   5.327  12.648  0.1008  0.0847 -1.1335
  680TIP3   OH223454   3.426   1.630  17.202 -0.1687  0.3499  0.0464
  680TIP3    H123455   3.413   1.609  17.109  2.1419 -0.6573 -0.1208
  680TIP3    H223456   3.387   1.557  17.249  0.0104  0.0878 -0.2065
  681TIP3   OH223457   4.972   5.005  14.233 -0.1997  0.0961  0.1766
  681TIP3    H123458   4.908   5.073  14.213 -1.1830 -0.9502 -0.2572
  681TIP3    H223459   4.920   4.929  14.258  0.8645 -0.8378 -0.3868
  682TIP3   OH223460   6.701   1.061  12.529 -0.5759 -0.0699 -0.5208
  682TIP3    H123461   6.761   1.115  12.581 -0.2033 -0.3767 -0.6275
  682TIP3    H223462   6.614   1.080  12.566 -0.2005 -1.2520  1.0942
  683TIP3   OH223463   5.949   5.477  13.408 -0.3279 -0.3032 -0.3843
  683TIP3    H123464   5.855   5.477  13.392 -0.2352 -1.8108 -1.0981
  683TIP3    H223465   5.962   5.411  13.476  0.2863 -0.5607 -0.7488
  684TIP3   OH223466   5.956   5.929   1.440  0.3393 -0.0874 -0.0314
  684TIP3    H123467   6.019   5.857   1.443 -0.3073 -0.6565  0.3610
  684TIP3    H223468   5.938   5.941   1.346  1.2734  0.3131 -0.1675
  685TIP3   OH223469   3.851   5.988  15.776 -0.6381 -0.5067 -0.2067
  685TIP3    H123470   3.847   5.977  15.681 -0.2374 -2.6412 -0.0351
  685TIP3    H223471   3.937   5.953  15.800  0.0816  1.7551  0.7886
  686TIP3   OH223472   6.396   1.579   3.711 -0.3643 -0.9685 -0.0866
  686TIP3    H123473   6.348   1.590   3.793  0.6429 -0.0991  0.4277
  686TIP3    H223474   6.460   1.511   3.730  0.9960  0.3851  0.4456
  687TIP3   OH223475   4.062   3.060   4.991 -0.9035  0.2213  0.5112
  687TIP3    H123476   4.054   3.056   4.896  2.1018 -0.1356  0.1794
  687TIP3    H223477   3.998   2.997   5.024 -1.4203 -0.2510 -1.2937
  688TIP3   OH223478   4.771   0.394  11.717 -0.1097  0.4507 -0.4849
  688TIP3    H123479   4.727   0.314  11.745 -0.0553  0.2608 -0.9291
  688TIP3    H223480   4.753   0.457  11.786 -1.4928  0.5168 -0.8851
  689TIP3   OH223481   5.891   5.190  15.343 -0.4791 -0.2573  0.1367
  689TIP3    H123482   5.854   5.125  15.283 -0.4795  0.0132 -0.1616
  689TIP3    H223483   5.816   5.229  15.387 -0.3973 -1.8317  1.7963
  690TIP3   OH223484   1.441   5.331  15.185 -0.8418  0.0013  0.3495
  690TIP3    H123485   1.451   5.255  15.242 -0.5125  1.5903  2.5366
  690TIP3    H223486   1.494   5.310  15.108  4.5579  0.3777  3.4377
  691TIP3   OH223487   1.224   0.900   3.878  0.6438 -0.1200 -0.7313
  691TIP3    H123488   1.230   0.994   3.863 -0.4269  0.3020  1.1254
  691TIP3    H223489   1.292   0.882   3.942  0.1346 -0.3796 -0.2500
  692TIP3   OH223490   1.873   3.457   2.480  0.5871  0.4112 -0.1719
  692TIP3    H123491   1.880   3.538   2.529  3.8144 -0.4155  0.9581
  692TIP3    H223492   1.779   3.436   2.481  0.1113  2.2175  2.6359
  693TIP3   OH223493   1.935   1.032   4.416  0.1645  0.3059  0.0256
  693TIP3    H123494   1.852   1.037   4.463 -2.0304  2.9029 -3.5814
  693TIP3    H223495   1.940   0.941   4.386 -1.9942  0.2948 -0.4972
  694TIP3   OH223496   0.546   5.766   3.562  0.4097  0.1589  0.0808
  694TIP3    H123497   0.486   5.774   3.488 -0.1321 -0.2982  0.4615
  694TIP3    H223498   0.618   5.826   3.541  1.2221 -1.3348 -1.7212
  695TIP3   OH223499   5.099   0.251  13.627  0.8525  0.2809 -0.0140
  695TIP3    H123500   5.042   0.219  13.698  0.2159  0.7928 -0.2862
  695TIP3    H223501   5.179   0.278  13.672  1.1050 -0.9274  0.3172
  696TIP3   OH223502   3.087   1.922   4.504 -0.2900  0.7076  0.4002
  696TIP3    H123503   3.012   1.944   4.449 -2.3178 -1.4594  2.0957
  696TIP3    H223504   3.141   1.865   4.449  0.1758  2.2988 -0.8423
  697TIP3   OH223505   3.529   2.000   4.825  0.1677 -0.1105 -0.3964
  697TIP3    H123506   3.544   1.929   4.887  0.9638 -0.7872 -1.3357
  697TIP3    H223507   3.441   1.984   4.791  0.1088 -0.2932 -0.1636
  698TIP3   OH223508   4.785   1.940  14.317  0.6340  0.1866 -0.2531
  698TIP3    H123509   4.800   1.868  14.379  0.5235 -1.3670 -1.9413
  698TIP3    H223510   4.692   1.933  14.296  0.4728  1.2635  0.0413
  699TIP3   OH223511   5.727   6.194   5.647  0.5156  0.2262 -0.7285
  699TIP3    H123512   5.631   6.190   5.646  0.5348 -0.2961 -0.7741
  699TIP3    H223513   5.755   6.103   5.634  1.0182  0.4646 -1.4035
  700TIP3   OH223514   4.332   6.531  14.725  0.0316  0.3518  0.7006
  700TIP3    H123515   4.410   6.499  14.770  0.4201 -1.3267 -1.0494
  700TIP3    H223516   4.259   6.496  14.777  0.4597 -1.7897 -0.0318
  701TIP3   OH223517   1.477   4.189   2.697 -0.9033 -0.0672  0.1843
  701TIP3    H123518   1.401   4.215   2.644  0.5172  0.8749 -1.4896
  701TIP3    H223519   1.473   4.094   2.699 -2.4008 -0.0188  0.5515
  702TIP3   OH223520   4.067   0.595  15.424  1.0211  0.1653  0.4456
  702TIP3    H123521   4.085   0.631  15.337  1.5589  1.8538  1.2228
  702TIP3    H223522   4.152   0.597  15.469  0.8948 -1.3278  0.8184
  703TIP3   OH223523   0.705   3.021   1.337  0.9860  0.3339 -0.0573
  703TIP3    H123524   0.744   3.087   1.280 -0.6359  1.9515  0.5729
  703TIP3    H223525   0.671   3.071   1.412 -1.0087 -1.0789  0.0794
  704TIP3   OH223526   2.332   6.192  14.347 -0.0425 -0.3322  0.5102
  704TIP3    H123527   2.278   6.133  14.295  1.3244  0.3852 -1.8566
  704TIP3    H223528   2.363   6.258  14.285  0.8392  1.2202  2.4622
  705TIP3   OH223529   0.729   1.858   1.464  0.2493 -0.5592  1.1030
  705TIP3    H123530   0.714   1.897   1.378  0.2528 -0.8439  0.9707
  705TIP3    H223531   0.812   1.811   1.456  1.1148  0.7856  1.7608
  706TIP3   OH223532   3.907   3.616   3.188  0.0465 -0.4286  0.4792
  706TIP3    H123533   3.957   3.553   3.136  1.8213 -0.4928  2.1312
  706TIP3    H223534   3.875   3.680   3.125  0.6370 -1.4396 -0.8889
  707TIP3   OH223535   5.000   1.413  13.817 -0.6896 -0.0804  0.0109
  707TIP3    H123536   4.914   1.443  13.845 -0.9960  0.7164 -1.6884
  707TIP3    H223537   5.044   1.491  13.784  0.8841 -0.3863  1.2145
  708TIP3   OH223538   0.202   4.103  11.221  0.6372 -0.3213 -0.6436
  708TIP3    H123539   0.112   4.068  11.222 -0.1748  1.6326  0.9405
  708TIP3    H223540   0.239   4.071  11.139 -1.1618 -2.0011 -0.8775
  709TIP3   OH223541   5.252   6.072  12.939 -0.2412 -0.1807  0.5232
  709TIP3    H123542   5.233   6.145  12.879 -0.4355 -0.4846  0.2117
  709TIP3    H223543   5.278   6.000  12.882 -0.9710 -0.6412  0.7597
  710TIP3   OH223544   1.467   4.985   0.388 -0.0085  0.9549  0.1764
  710TIP3    H123545   1.534   5.040   0.430  0.7868 -1.2641  2.0875
  710TIP3    H223546   1.392   5.043   0.378  0.7744  2.4254  2.0351
  711TIP3   OH223547   1.553   4.729   3.381 -0.4062 -0.3641  0.4034
  711TIP3    H123548   1.560   4.807   3.437 -0.8746 -0.9628  1.3262
  711TIP3    H223549   1.460   4.721   3.363 -0.3798 -0.8255  0.4722
  712TIP3   OH223550   1.339   3.509   0.321  0.4993 -0.0556  0.0341
  712TIP3    H123551   1.417   3.564   0.327 -0.4343  1.6060 -1.9117
  712TIP3    H223552   1.364   3.440   0.259  0.4026  0.5642 -0.7080
  713TIP3   OH223553   3.110   0.938  11.891  0.8016 -0.4822  0.2362
  713TIP3    H123554   3.152   0.866  11.845  0.9348 -1.1707  1.4010
  713TIP3    H223555   3.042   0.897  11.945  0.5233  0.3107  0.5067
  714TIP3   OH223556   5.005   5.046   4.422 -0.2262  0.3639  0.1562
  714TIP3    H123557   4.909   5.050   4.422 -0.3003 -0.8956 -0.4664
  714TIP3    H223558   5.028   5.026   4.513 -0.5527  0.6357  0.3012
  715TIP3   OH223559   3.468   0.786   1.497 -0.6590 -0.3926 -0.3476
  715TIP3    H123560   3.435   0.873   1.521  0.1138 -0.1623 -0.1023
  715TIP3    H223561   3.433   0.728   1.564  0.2102  0.0028  0.4712
  716TIP3   OH223562   4.790   4.326   2.529 -0.4429 -0.1842  0.1750
  716TIP3    H123563   4.835   4.259   2.477 -1.1975 -2.4341  2.2236
  716TIP3    H223564   4.854   4.397   2.536  0.9340 -1.2354 -0.9872
  717TIP3   OH223565   5.839   6.052   3.914 -0.0826 -0.1621 -0.1497
  717TIP3    H123566   5.746   6.071   3.905 -0.3316 -1.0528  0.4329
  717TIP3    H223567   5.882   6.134   3.893 -1.0784  0.8295  1.4792
  718TIP3   OH223568   3.833   4.280   3.452 -0.3717 -0.5097 -0.4008
  718TIP3    H123569   3.906   4.324   3.409  0.4177 -2.4362 -1.1331
  718TIP3    H223570   3.756   4.329   3.422  0.5747  1.9066  0.8299
  719TIP3   OH223571   1.436   6.226  14.570  0.1776 -0.1012  0.3087
  719TIP3    H123572   1.435   6.314  14.606  0.8123  0.6119 -1.2982
  719TIP3    H223573   1.344   6.200  14.568  0.0219  0.3543  1.1849
  720TIP3   OH223574   1.854   5.063   6.138 -0.2745 -0.0566 -1.0526
  720TIP3    H123575   1.805   5.128   6.087 -1.6467 -0.0281  0.2595
  720TIP3    H223576   1.816   4.979   6.112 -0.7661 -0.0662 -0.3065
  721TIP3   OH223577   4.850   5.788  15.902  0.3840  0.1351  0.5037
  721TIP3    H123578   4.896   5.721  15.953  1.4007  0.7575  0.4201
  721TIP3    H223579   4.852   5.866  15.957 -0.4526  0.2124  0.4358
  722TIP3   OH223580   1.949   2.412   2.749  0.1899  0.4234  0.4256
  722TIP3    H123581   1.963   2.497   2.707 -1.1631  0.7064  0.4866
  722TIP3    H223582   1.857   2.414   2.776  0.2197 -0.9458  0.6975
  723TIP3   OH223583   5.227   6.700   3.327 -0.4068  0.0688  0.4862
  723TIP3    H123584   5.312   6.737   3.303 -0.8821 -0.0232 -1.4411
  723TIP3    H223585   5.201   6.750   3.404  0.9623  0.7335  0.5609
  724TIP3   OH223586   4.119   1.444   2.328 -0.0967 -0.2898  0.2916
  724TIP3    H123587   4.043   1.394   2.300  0.4142 -0.9657  0.1031
  724TIP3    H223588   4.182   1.379   2.359  0.2543  0.2853  0.8309
  725TIP3   OH223589   0.745   0.050   2.148  0.6049 -0.6778  0.1006
  725TIP3    H123590   0.728   0.105   2.225  1.0874 -0.0790 -0.2065
  725TIP3    H223591   0.693   0.090   2.078  2.2403  0.4574 -0.5486
  726TIP3   OH223592   2.905   4.326   4.319 -0.1739 -0.3392  0.4751
  726TIP3    H123593   2.955   4.307   4.398 -1.1875 -1.8688  0.8032
  726TIP3    H223594   2.864   4.411   4.336  1.6573  0.5802  0.4924
  727TIP3   OH223595   1.370   6.212  17.191 -0.6613 -0.1990 -0.5520
  727TIP3    H123596   1.344   6.127  17.224 -0.2100 -0.6465 -1.3259
  727TIP3    H223597   1.323   6.221  17.108  0.2435 -0.2387 -1.0783
  728TIP3   OH223598   0.576   3.428  15.375 -0.6596  0.5755  0.3889
  728TIP3    H123599   0.545   3.514  15.347 -3.1614 -0.4116 -0.1363
  728TIP3    H223600   0.574   3.375  15.296  0.8775 -0.0108  0.7004
  729TIP3   OH223601   2.497   4.902  14.203 -0.4324 -0.2103 -0.0686
  729TIP3    H123602   2.552   4.978  14.220  1.5492 -1.2342 -1.4838
  729TIP3    H223603   2.514   4.842  14.276  1.0479 -0.8709 -0.9205
  730TIP3   OH223604   6.735   5.153  12.152  0.5241  0.2385 -0.6603
  730TIP3    H123605   6.704   5.201  12.075  2.5661  0.5489 -1.3553
  730TIP3    H223606   6.812   5.201  12.181 -0.1902  0.1311  1.6411
  731TIP3   OH223607   0.067   3.794  14.583 -0.1829 -0.5741  0.0222
  731TIP3    H123608   0.092   3.792  14.491 -0.0343 -1.2953  0.0769
  731TIP3    H223609  -0.024   3.825  14.582  0.5311  1.7534 -0.1915
  732TIP3   OH223610   1.201   3.812  10.746 -0.0379  0.0334 -0.6404
  732TIP3    H123611   1.229   3.832  10.656  0.3676 -2.2690 -1.0886
  732TIP3    H223612   1.224   3.720  10.758 -0.1939  0.2521  1.8084
  733TIP3   OH223613   5.571   4.504   4.326 -0.0818  0.7984 -0.3672
  733TIP3    H123614   5.568   4.565   4.399 -0.8415  1.3379 -0.8343
  733TIP3    H223615   5.533   4.552   4.252  0.2858  0.1275 -1.0157
  734TIP3   OH223616   1.479   6.038   2.143 -0.1935  0.3623 -0.2750
  734TIP3    H123617   1.537   6.033   2.219  2.1449 -0.3575 -1.9790
  734TIP3    H223618   1.391   6.046   2.180  0.8126 -0.1865  2.4814
  735TIP3   OH223619   3.277   0.975   2.590 -0.5974 -0.1118 -0.0670
  735TIP3    H123620   3.191   0.961   2.628 -0.3708 -1.3364  0.0678
  735TIP3    H223621   3.261   0.984   2.496 -0.8965 -0.0535 -0.0097
  736TIP3   OH223622   0.862   0.314   4.768 -0.2857  0.2403  0.0825
  736TIP3    H123623   0.888   0.243   4.709 -1.8143 -1.2591  1.0870
  736TIP3    H223624   0.931   0.316   4.834 -0.4704 -0.6991  0.3244
  737TIP3   OH223625   1.142   2.991   2.427 -0.5308 -0.3697 -0.4599
  737TIP3    H123626   1.221   2.972   2.377  0.2329  0.7114  0.3017
  737TIP3    H223627   1.154   3.080   2.459 -1.9650 -0.2656 -0.1417
  738TIP3   OH223628   2.474   6.338  14.177 -0.2355 -0.2200  0.0819
  738TIP3    H123629   2.404   6.392  14.141 -1.1357 -1.0152  0.5955
  738TIP3    H223630   2.547   6.399  14.190 -0.8223  0.6202 -0.4585
  739TIP3   OH223631   6.293   3.677   5.737 -0.4596 -0.3613  0.2716
  739TIP3    H123632   6.212   3.687   5.787 -0.9220 -0.9263 -0.3488
  739TIP3    H223633   6.357   3.646   5.802 -1.4467 -2.6508  0.2583
  740TIP3   OH223634   1.614   3.186   0.237  0.6066  0.2977 -0.5353
  740TIP3    H123635   1.651   3.159   0.321  1.9268 -1.5727 -1.6400
  740TIP3    H223636   1.522   3.207   0.256  1.1014  0.8224  1.4991
  741TIP3   OH223637   1.242   2.142   5.163 -0.7634  0.2536  0.1879
  741TIP3    H123638   1.179   2.151   5.092 -0.8822  0.7461  0.3512
  741TIP3    H223639   1.327   2.159   5.122 -0.8023  0.2623  0.1107
  742TIP3   OH223640   2.861   1.636  13.941  0.2544 -0.6664 -0.0358
  742TIP3    H123641   2.783   1.661  13.990  1.0825 -2.3978  2.3543
  742TIP3    H223642   2.916   1.715  13.942 -0.6335 -0.0257 -0.0718
  743TIP3   OH223643   4.406   3.915   4.953 -0.1488  0.2769 -0.3962
  743TIP3    H123644   4.403   3.860   4.875 -0.1814 -1.4180  0.7506
  743TIP3    H223645   4.427   4.002   4.920  2.6617 -0.8836 -2.0874
  744TIP3   OH223646   1.485   1.335  11.434 -0.1181  0.0168  0.2806
  744TIP3    H123647   1.513   1.424  11.412  0.1631 -0.1036  0.1507
  744TIP3    H223648   1.394   1.345  11.463 -0.3886  0.2361 -0.5991
  745TIP3   OH223649   2.413   6.724  11.868  0.1922  0.1840 -0.6094
  745TIP3    H123650   2.492   6.674  11.888 -0.3948  0.1191  1.9417
  745TIP3    H223651   2.341   6.664  11.888 -0.4953  1.0036 -0.5356
  746TIP3   OH223652   5.838   0.951   4.310  0.3059  0.5719 -0.8651
  746TIP3    H123653   5.833   1.028   4.253 -1.4653 -0.1717 -1.7804
  746TIP3    H223654   5.843   0.877   4.250  2.9975 -0.0723 -0.0150
  747TIP3   OH223655   2.430   2.708   3.918 -0.5294 -0.1250 -0.2465
  747TIP3    H123656   2.454   2.652   3.992 -2.6265 -1.9611 -0.8648
  747TIP3    H223657   2.349   2.671   3.884 -1.5312  2.7591 -1.3360
  748TIP3   OH223658   3.553   3.716   4.054 -0.3195  0.6025  0.1005
  748TIP3    H123659   3.563   3.800   4.009  0.8398 -0.4025 -1.6460
  748TIP3    H223660   3.624   3.715   4.118 -0.5122  1.0723  0.3235
  749TIP3   OH223661   0.705   0.776   6.668  0.3720  0.5967  0.9910
  749TIP3    H123662   0.736   0.867   6.663  0.0197  0.6661 -1.4308
  749TIP3    H223663   0.760   0.729   6.605 -2.7637  0.3014 -1.8609
  750TIP3   OH223664   2.348   3.518  16.523 -0.2855 -0.1478 -0.2800
  750TIP3    H123665   2.307   3.568  16.594 -0.1005  0.7109 -0.7501
  750TIP3    H223666   2.325   3.568  16.444 -0.1977 -0.8946 -0.7805
  751TIP3   OH223667   0.128   2.885   4.208  0.5122  0.2507 -0.2188
  751TIP3    H123668   0.166   2.969   4.183  1.1055  0.1755  0.3889
  751TIP3    H223669   0.158   2.871   4.298 -0.3638 -0.1673  0.0174
  752TIP3   OH223670   4.914   6.200   4.974 -0.4843  0.0747 -0.2653
  752TIP3    H123671   4.851   6.129   4.990 -0.4345  0.7016  3.7092
  752TIP3    H223672   4.903   6.259   5.048  5.2748 -0.2061  1.3195
  753TIP3   OH223673   1.708   1.283  12.360  0.4781 -0.8040 -1.2029
  753TIP3    H123674   1.788   1.263  12.408  0.4360  1.8375  0.1132
  753TIP3    H223675   1.640   1.289  12.426 -0.0662  0.5321 -1.8391
  754TIP3   OH223676   5.938   1.714   0.607 -0.3662 -0.2126 -0.1575
  754TIP3    H123677   5.865   1.676   0.656 -0.1755 -0.5569 -0.1391
  754TIP3    H223678   6.016   1.685   0.654 -0.2253  0.3986 -0.0054
  755TIP3   OH223679   0.497   5.536   0.279 -0.1851 -0.0618 -0.4064
  755TIP3    H123680   0.530   5.451   0.252  1.9103  0.4592  0.2753
  755TIP3    H223681   0.576   5.589   0.291 -1.3974  1.8069 -0.2422
  756TIP3   OH223682   2.929   4.934   1.759  0.1572  0.1643  0.1769
  756TIP3    H123683   2.842   4.917   1.793  0.1652  1.3957  0.8543
  756TIP3    H223684   2.986   4.936   1.836  0.4570  1.2718 -0.0559
  757TIP3   OH223685   5.459   0.779  12.965  0.1541 -0.2272 -0.3508
  757TIP3    H123686   5.486   0.713  13.028 -0.9926 -1.3839 -1.0291
  757TIP3    H223687   5.540   0.803  12.919  1.2801  1.6488  2.3911
  758TIP3   OH223688   0.986   1.617  11.186 -0.0126  0.9229  0.1850
  758TIP3    H123689   0.942   1.695  11.221 -0.2390  0.9091 -0.0593
  758TIP3    H223690   0.918   1.551  11.181  0.6094  0.0509  2.2960
  759TIP3   OH223691   4.545   1.623   3.229 -0.1198 -0.3341  0.5699
  759TIP3    H123692   4.534   1.603   3.136  1.2329 -1.1090  0.5424
  759TIP3    H223693   4.554   1.537   3.270  1.1669  0.0431  1.1364
  760TIP3   OH223694   6.653   2.974   1.492 -0.0604 -0.1611  0.6780
  760TIP3    H123695   6.704   3.046   1.529 -0.0658 -0.7190  1.8269
  760TIP3    H223696   6.713   2.929   1.433 -0.9253  2.6160 -2.6948
  761TIP3   OH223697   6.718   1.886   5.148 -0.1898 -0.2722  0.1783
  761TIP3    H123698   6.653   1.911   5.082  0.3950  0.3472 -0.1750
  761TIP3    H223699   6.682   1.807   5.188 -0.5508 -0.6820 -0.9041
  762TIP3   OH223700   6.087   0.133  13.322  0.0982 -0.0058  0.8162
  762TIP3    H123701   6.139   0.172  13.392 -1.4347 -1.1895  2.7082
  762TIP3    H223702   6.062   0.047  13.355  0.1678 -1.0625 -1.6434
  763TIP3   OH223703   3.674   2.465   0.666 -0.2093 -0.0939  0.1939
  763TIP3    H123704   3.673   2.558   0.689  0.4446 -0.2055  0.7077
  763TIP3    H223705   3.602   2.427   0.716  1.0002 -0.2762  1.8816
  764TIP3   OH223706   0.988   4.066  16.127 -0.4477 -0.1607 -0.5392
  764TIP3    H123707   0.933   4.140  16.153 -1.7402 -1.8501  1.9036
  764TIP3    H223708   0.926   4.003  16.088 -0.4615 -2.1922  2.4522
  765TIP3   OH223709   1.026   5.485  15.283  0.0630  0.2884 -0.1931
  765TIP3    H123710   1.097   5.444  15.235 -0.8788  0.1911 -1.5720
  765TIP3    H223711   1.053   5.576  15.294 -0.9743  1.1757 -3.7602
  766TIP3   OH223712   4.507   0.935   4.243  0.3892 -0.2913 -0.0052
  766TIP3    H123713   4.476   0.954   4.332  1.7659 -0.7558  0.6077
  766TIP3    H223714   4.448   0.983   4.186  1.2767  2.5398  1.2810
  767TIP3   OH223715   4.918   1.557   5.846 -0.3640 -0.1355 -0.1806
  767TIP3    H123716   4.991   1.615   5.869  0.1567 -0.2047 -1.5794
  767TIP3    H223717   4.847   1.617   5.822 -0.1412 -0.0765 -0.6882
  768TIP3   OH223718   6.070   3.274  12.739 -0.4188 -0.0331 -0.6333
  768TIP3    H123719   6.130   3.334  12.784 -0.4889 -0.0077 -0.5743
  768TIP3    H223720   6.041   3.213  12.807 -1.5355  0.7862 -0.3524
  769TIP3   OH223721   2.140   4.694   0.009 -0.1097  0.4324  0.1065
  769TIP3    H123722   2.101   4.622   0.059  0.3786  1.5302  2.1802
  769TIP3    H223723   2.234   4.685   0.024 -0.1513  2.8573  2.4939
  770TIP3   OH223724   4.571   0.940  15.339 -0.5857  0.9384 -0.0727
  770TIP3    H123725   4.599   0.857  15.378 -1.3674 -0.2436 -1.9057
  770TIP3    H223726   4.533   0.989  15.412  0.2765 -0.1175  1.1315
  771TIP3   OH223727   2.143   3.959  15.907 -0.2274 -0.4785 -0.6913
  771TIP3    H123728   2.089   3.880  15.902  0.2180 -0.7435 -1.5655
  771TIP3    H223729   2.233   3.926  15.902 -0.0312  0.0700 -0.7828
  772TIP3   OH223730   3.408   6.790   2.559  0.0740 -0.3388 -0.0046
  772TIP3    H123731   3.503   6.797   2.552  0.2474 -1.1418  1.1091
  772TIP3    H223732   3.383   6.730   2.489  0.1872  0.9810 -1.2115
  773TIP3   OH223733   2.059   4.805   6.187 -0.1365 -0.3667  0.3113
  773TIP3    H123734   2.034   4.792   6.279  0.3916 -0.3609  0.4609
  773TIP3    H223735   2.133   4.747   6.174  1.1011  1.1138  0.4741
  774TIP3   OH223736   5.321   4.945  13.621  0.4693  0.1755  0.4901
  774TIP3    H123737   5.257   4.876  13.600 -0.2412  1.2172 -0.9653
  774TIP3    H223738   5.404   4.899  13.629 -0.0230 -0.8872 -0.2303
  775TIP3   OH223739   5.904   3.009  13.354 -0.2116 -0.3342 -0.4681
  775TIP3    H123740   5.810   2.994  13.365 -0.0878 -0.3670  0.6571
  775TIP3    H223741   5.929   2.953  13.281 -1.1197 -0.0917 -0.9894
  776TIP3   OH223742   6.676   5.280  13.345 -0.9435 -0.0134 -0.0754
  776TIP3    H123743   6.619   5.317  13.278 -0.0271  1.9396  0.1793
  776TIP3    H223744   6.710   5.199  13.305 -0.5122  1.0320 -1.9352
  777TIP3   OH223745   3.316   2.677  15.670  0.0404 -0.6044 -0.5758
  777TIP3    H123746   3.323   2.582  15.660  0.8315 -0.4146 -2.0396
  777TIP3    H223747   3.349   2.694  15.758 -0.3929 -1.6974 -0.1798
  778TIP3   OH223748   3.891   6.282   5.485  0.1715 -0.0118 -0.1270
  778TIP3    H123749   3.985   6.290   5.501 -0.3162  2.4950  2.2430
  778TIP3    H223750   3.873   6.189   5.495  2.5751 -0.8330 -2.3448
  779TIP3   OH223751   5.843   2.013  11.415 -0.4871  0.7368 -0.2615
  779TIP3    H123752   5.845   1.972  11.328  1.7293 -0.0248  0.0708
  779TIP3    H223753   5.805   1.947  11.472  3.0628 -1.1140  0.2685
  780TIP3   OH223754   2.473   2.827  11.216 -0.0334 -0.8259 -0.3450
  780TIP3    H123755   2.406   2.888  11.246  0.8858  0.4743 -0.8293
  780TIP3    H223756   2.469   2.754  11.278 -2.2683 -1.0939 -0.6998
  781TIP3   OH223757   0.305   3.592   5.294  0.3379  0.3399  0.2365
  781TIP3    H123758   0.298   3.652   5.368 -0.1052  0.6941 -0.0870
  781TIP3    H223759   0.234   3.618   5.235  0.0286 -0.6054  0.1632
  782TIP3   OH223760   5.305   4.330  16.380  0.3327 -0.0390 -0.6269
  782TIP3    H123761   5.309   4.242  16.342  0.9124 -0.3598  0.1465
  782TIP3    H223762   5.359   4.384  16.323 -0.5360 -0.0304 -1.4694
  783TIP3   OH223763   0.170   0.180  14.113  0.2011  0.2152  0.0855
  783TIP3    H123764   0.094   0.203  14.058 -0.2429 -2.8373 -0.7809
  783TIP3    H223765   0.219   0.261  14.122 -3.5244  2.5768  1.3632
  784TIP3   OH223766   0.702   3.329  14.856  0.0859  0.2940  0.0802
  784TIP3    H123767   0.747   3.398  14.808 -1.6109 -0.3115 -2.6255
  784TIP3    H223768   0.764   3.301  14.923  1.8285  2.6030 -0.4766
  785TIP3   OH223769   4.596   2.338   1.367 -0.0605 -0.1540 -0.0785
  785TIP3    H123770   4.525   2.342   1.303 -0.5864  1.3024  0.5611
  785TIP3    H223771   4.572   2.402   1.434  0.3198 -1.8220  1.7554
  786TIP3   OH223772   1.953   3.573  14.026 -0.5088 -0.3625 -0.0492
  786TIP3    H123773   1.930   3.491  13.982  3.0817 -1.5700  0.0563
  786TIP3    H223774   1.947   3.554  14.119 -0.0699 -0.3761 -0.0234
  787TIP3   OH223775   0.925   4.007  14.751 -0.2715 -0.1227  0.3256
  787TIP3    H123776   0.981   3.989  14.676 -0.5702  2.0833 -0.5108
  787TIP3    H223777   0.986   4.025  14.822  0.0254 -0.7489  0.2406
  788TIP3   OH223778   5.763   6.401   3.448  0.1102 -0.3673  0.1713
  788TIP3    H123779   5.751   6.428   3.357  1.1278 -0.8881 -0.1353
  788TIP3    H223780   5.690   6.442   3.495 -0.7714 -0.5787 -0.9618
  789TIP3   OH223781   2.684   1.600  10.963  0.4475 -0.0731 -0.0165
  789TIP3    H123782   2.692   1.505  10.977  0.6062 -0.3223 -1.5875
  789TIP3    H223783   2.757   1.622  10.905 -0.7844  0.5989 -1.3989
  790TIP3   OH223784   3.312   0.264  11.593  0.2054  0.0307 -0.0123
  790TIP3    H123785   3.389   0.208  11.588 -0.1714 -0.5844  0.7696
  790TIP3    H223786   3.339   0.347  11.553  1.0217 -0.4364 -0.4415
  791TIP3   OH223787   5.059   3.610  15.080  0.2309 -0.1932  0.7154
  791TIP3    H123788   5.144   3.596  15.122  0.7514 -1.4409 -0.6647
  791TIP3    H223789   5.006   3.651  15.148  1.3331 -1.1656  2.2598
  792TIP3   OH223790   4.461   3.367   0.284  0.2072 -0.1673  0.3618
  792TIP3    H123791   4.474   3.273   0.291 -0.2374 -0.1835  1.1036
  792TIP3    H223792   4.548   3.405   0.295  0.2694 -0.4567  0.8767
  793TIP3   OH223793   2.513   1.673  16.897  0.2478 -0.3919  0.1031
  793TIP3    H123794   2.597   1.646  16.935  0.3408 -1.0667 -0.5608
  793TIP3    H223795   2.532   1.692  16.806 -0.1341  0.4255  0.1902
  794TIP3   OH223796   0.212   2.493  12.046 -0.9778  0.1544 -0.0605
  794TIP3    H123797   0.149   2.483  12.118  0.8385  0.8563  1.7505
  794TIP3    H223798   0.209   2.587  12.025  0.2831  0.4355  0.9005
  795TIP3   OH223799   1.014   5.657   5.161 -1.0280 -0.1909 -0.0476
  795TIP3    H123800   1.099   5.679   5.121 -1.3705 -0.3668 -0.8849
  795TIP3    H223801   0.951   5.713   5.116 -1.3046  0.3032  0.9190
  796TIP3   OH223802   3.883   0.659   3.430 -0.4080 -0.1151 -0.7013
  796TIP3    H123803   3.903   0.719   3.502  1.3599 -1.1626 -0.2598
  796TIP3    H223804   3.915   0.703   3.352  1.3029 -0.6219 -0.3231
  797TIP3   OH223805   2.598   5.997   5.965 -0.1943 -0.1020 -0.1282
  797TIP3    H123806   2.678   6.028   5.923 -0.6998 -0.7400 -1.6210
  797TIP3    H223807   2.570   6.069   6.021  1.5297  0.0522  0.6177
  798TIP3   OH223808   4.257   6.661   3.357 -0.4317 -0.3252 -0.0219
  798TIP3    H123809   4.321   6.698   3.418  0.4907  0.5418 -1.4614
  798TIP3    H223810   4.302   6.585   3.320  0.0114  0.5918 -1.4293
  799TIP3   OH223811   0.082   1.525   2.137  0.0160 -0.3196  0.4162
  799TIP3    H123812   0.067   1.561   2.050 -1.5810  1.0109  1.1716
  799TIP3    H223813   0.176   1.536   2.152  0.3138 -0.5996 -1.1232
  800TIP3   OH223814   2.436   0.342  14.185  0.4986  0.8726 -0.0886
  800TIP3    H123815   2.415   0.390  14.105 -1.7611 -0.1482 -0.1972
  800TIP3    H223816   2.502   0.395  14.229  0.7484  2.1803 -1.9264
  801TIP3   OH223817   4.566   0.488   3.115  0.1517  0.7688  0.1587
  801TIP3    H123818   4.477   0.480   3.080 -0.3456  0.7692  1.3777
  801TIP3    H223819   4.588   0.399   3.143  0.9001  0.5879 -0.9570
  802TIP3   OH223820   3.816   5.348   4.665 -0.0482  0.2563 -0.8333
  802TIP3    H123821   3.786   5.282   4.603 -0.5197 -0.3781  0.0344
  802TIP3    H223822   3.747   5.351   4.731  0.7989  0.3191  0.0749
  803TIP3   OH223823   3.746   1.433  11.565  0.5214  0.4753  0.1688
  803TIP3    H123824   3.812   1.406  11.500  0.5090  1.0383 -0.0870
  803TIP3    H223825   3.718   1.519  11.535  1.8357  1.5759  1.9057
  804TIP3   OH223826   5.624   0.539  13.767  0.7539 -0.0642 -0.0671
  804TIP3    H123827   5.582   0.538  13.681 -0.8183 -1.6071  0.6429
  804TIP3    H223828   5.579   0.608  13.815  1.5484  0.7165 -0.4411
  805TIP3   OH223829   1.429   5.379   4.097  0.5378 -0.7556  0.0551
  805TIP3    H123830   1.420   5.314   4.166 -1.7441 -0.7040 -0.1069
  805TIP3    H223831   1.401   5.461   4.138 -2.6528 -1.0288 -1.2586
  806TIP3   OH223832   3.865   4.375  16.343 -0.2881 -0.4895 -0.5858
  806TIP3    H123833   3.908   4.448  16.298 -1.1966 -0.0753 -0.8086
  806TIP3    H223834   3.868   4.399  16.435  0.0712 -0.5312 -0.5836
  807TIP3   OH223835   2.711   4.903   3.457  0.2809  0.4135 -0.1300
  807TIP3    H123836   2.779   4.847   3.420  0.6697  1.4677 -1.0826
  807TIP3    H223837   2.758   4.961   3.517  0.0741  0.4727 -0.0242
  808TIP3   OH223838   1.607   0.520   5.558 -0.4355  0.3990 -0.2445
  808TIP3    H123839   1.580   0.560   5.476  1.2734  1.3981 -0.3644
  808TIP3    H223840   1.678   0.461   5.534 -0.4712  0.0800  0.4155
  809TIP3   OH223841   5.739   0.358  11.809  0.1230  0.1096  0.3727
  809TIP3    H123842   5.798   0.378  11.737  1.3657 -2.3635  0.6007
  809TIP3    H223843   5.793   0.366  11.887 -0.4745  0.1119  0.7884
  810TIP3   OH223844   5.022   3.552  13.461  0.2601 -0.0522 -0.3222
  810TIP3    H123845   4.949   3.491  13.470  1.3264 -1.4845 -0.9097
  810TIP3    H223846   5.017   3.607  13.539 -2.2771  0.8853 -1.0551
  811TIP3   OH223847   5.392   2.313  15.690  0.1782 -0.2191  0.0363
  811TIP3    H123848   5.440   2.246  15.641  0.0453 -2.3408  2.6325
  811TIP3    H223849   5.439   2.320  15.773 -1.6055  0.6800  1.0233
  812TIP3   OH223850   6.254   0.823   4.063  0.3343 -0.1906 -0.3125
  812TIP3    H123851   6.219   0.872   3.989 -0.1210  1.7756  1.1172
  812TIP3    H223852   6.335   0.784   4.030  1.1552  2.2144 -1.3470
  813TIP3   OH223853   5.255   1.919  14.775 -0.1625 -0.0770 -0.0528
  813TIP3    H123854   5.208   1.997  14.744  1.1144  0.4458 -0.7540
  813TIP3    H223855   5.264   1.932  14.869  1.3568  1.4108 -0.3521
  814TIP3   OH223856   3.863   2.449   6.578 -0.6080 -0.0517 -0.0326
  814TIP3    H123857   3.789   2.432   6.520  0.0330 -0.1629 -0.8330
  814TIP3    H223858   3.929   2.384   6.553  0.6467  1.4740 -0.9308
  815TIP3   OH223859   3.324   5.677   6.171 -0.0181  0.2999 -0.4645
  815TIP3    H123860   3.284   5.752   6.215  1.3772  0.7801  0.0255
  815TIP3    H223861   3.406   5.662   6.218 -0.2334 -1.5060 -0.5903
  816TIP3   OH223862   0.922   0.000   2.771  0.2636  0.5442 -0.0227
  816TIP3    H123863   0.918   0.038   2.859  1.2642  0.7677 -0.0589
  816TIP3    H223864   0.999  -0.057   2.773  0.0583  0.2382 -0.6374
  817TIP3   OH223865   4.123   5.493  12.306 -0.0572 -0.4748  0.0505
  817TIP3    H123866   4.095   5.406  12.280  1.3170 -0.7971 -0.4375
  817TIP3    H223867   4.161   5.481  12.393 -1.8165  0.0448  0.9306
  818TIP3   OH223868   6.408   3.842   4.520  0.1269 -0.2299  0.2855
  818TIP3    H123869   6.480   3.790   4.485 -2.0628 -2.2496 -1.5237
  818TIP3    H223870   6.346   3.778   4.554 -0.9683  1.4212  1.5582
  819TIP3   OH223871   6.154   4.447  15.712 -0.6021 -0.5506  0.6189
  819TIP3    H123872   6.109   4.376  15.759 -1.0356 -0.0972  0.9000
  819TIP3    H223873   6.108   4.454  15.629 -0.6998 -0.4481  0.6825
  820TIP3   OH223874   3.789   6.591   2.382  0.2097  0.1979 -0.0532
  820TIP3    H123875   3.828   6.596   2.294 -1.1807 -1.0166 -0.7859
  820TIP3    H223876   3.856   6.549   2.435  0.3935 -0.7759 -1.0061
  821TIP3   OH223877   1.985   4.008  16.733  0.1449  0.2683  0.2834
  821TIP3    H123878   1.929   4.085  16.736  0.7075  0.7159 -0.4184
  821TIP3    H223879   2.038   4.014  16.813 -0.6767 -0.0686  0.8639
  822TIP3   OH223880   6.085   3.241   3.189  0.3201 -0.3483  0.5101
  822TIP3    H123881   6.013   3.282   3.236  0.5339  0.2031  0.3637
  822TIP3    H223882   6.158   3.241   3.251  0.1559 -1.0495  0.7132
  823TIP3   OH223883   4.940   1.456  14.124  0.3749 -0.5528 -0.2384
  823TIP3    H123884   4.919   1.366  14.101 -1.1845 -0.6465  1.3934
  823TIP3    H223885   5.030   1.452  14.157 -0.0985 -1.7522  0.9953
  824TIP3   OH223886   1.565   4.570  16.068 -0.2970  0.1498  0.3509
  824TIP3    H123887   1.514   4.565  15.987  0.5186  0.4750 -0.1942
  824TIP3    H223888   1.502   4.596  16.134 -0.6391  1.5876 -0.5062
  825TIP3   OH223889   2.352   5.038  14.608 -0.0997  0.3382  0.4851
  825TIP3    H123890   2.275   5.083  14.643  1.0799  1.0622  2.2881
  825TIP3    H223891   2.340   4.947  14.635 -0.5273  0.3496  0.3507
  826TIP3   OH223892   1.672   5.087   3.209  0.5520  0.6522  0.7486
  826TIP3    H123893   1.706   5.005   3.244  1.1006  1.3249  1.8520
  826TIP3    H223894   1.616   5.061   3.136 -1.8919 -0.9847  3.0029
  827TIP3   OH223895   0.964   2.297  12.699  0.2755 -0.2566  0.4674
  827TIP3    H123896   1.016   2.255  12.631 -0.0390 -0.9422  0.6366
  827TIP3    H223897   0.873   2.285  12.671  0.1417 -0.5379  0.9954
  828TIP3   OH223898   6.375   2.479   5.990 -0.1543 -0.4291 -0.3336
  828TIP3    H123899   6.335   2.470   5.904 -0.7228  1.1299 -0.2652
  828TIP3    H223900   6.401   2.571   5.995 -0.0029 -0.5249  1.1002
  829TIP3   OH223901   3.874   5.337   0.796  0.6029  0.2546 -0.4508
  829TIP3    H123902   3.944   5.377   0.744  2.8011 -0.7824  1.5272
  829TIP3    H223903   3.890   5.243   0.790 -0.2809  0.0203  0.4987
  830TIP3   OH223904   1.013   1.649   5.847 -0.0100  0.2471  0.3627
  830TIP3    H123905   0.932   1.634   5.798 -0.0975 -3.2326  1.3131
  830TIP3    H223906   1.022   1.571   5.902  2.2248  2.1088  2.8504
  831TIP3   OH223907   4.827   5.120  13.361 -0.1037  0.0374  0.0629
  831TIP3    H123908   4.912   5.110  13.317 -0.4232 -3.5061  0.0011
  831TIP3    H223909   4.764   5.131  13.290 -0.2144 -2.3402 -0.2752
  832TIP3   OH223910   0.833   5.775  17.247  0.7733 -0.2523 -0.9664
  832TIP3    H123911   0.840   5.870  17.244  1.7478 -0.2103  1.0083
  832TIP3    H223912   0.740   5.758  17.265  0.9944  0.4907  1.1843
  833TIP3   OH223913   0.926   0.873  12.854  0.0135  0.3787 -0.0964
  833TIP3    H123914   0.903   0.954  12.810 -0.0796 -0.0381 -0.8368
  833TIP3    H223915   0.843   0.838  12.887 -0.0702  0.1596 -0.5295
  834TIP3   OH223916   2.717   4.170  14.025 -0.2334 -0.1624  0.2019
  834TIP3    H123917   2.760   4.153  13.941  0.8147 -1.4770  0.9688
  834TIP3    H223918   2.671   4.089  14.045 -2.7201  1.0300 -0.3335
  835TIP3   OH223919   5.657   3.424   4.863 -0.1973  0.7514  0.0749
  835TIP3    H123920   5.635   3.517   4.863 -1.5456  0.4658 -0.5982
  835TIP3    H223921   5.600   3.386   4.796 -0.6976 -0.7834  1.2918
  836TIP3   OH223922   0.611   5.738   0.704 -0.0091  0.2820 -0.4080
  836TIP3    H123923   0.677   5.689   0.752 -1.1396 -0.4768  0.4219
  836TIP3    H223924   0.551   5.671   0.671  0.0973  0.8822 -1.8886
  837TIP3   OH223925   3.475   4.396  13.747 -0.4845  0.0170  0.4128
  837TIP3    H123926   3.442   4.310  13.772 -1.6286  0.1524 -0.5074
  837TIP3    H223927   3.441   4.456  13.814  0.8585 -0.3151  1.4183
  838TIP3   OH223928   3.634   5.454  12.733 -0.0289  0.0812 -0.0972
  838TIP3    H123929   3.586   5.538  12.730 -0.2748 -0.0727 -1.9643
  838TIP3    H223930   3.709   5.468  12.676  0.1726 -0.8433 -0.0678
  839TIP3   OH223931   6.459   0.034   4.378  0.2955  0.4543  0.2730
  839TIP3    H123932   6.391  -0.017   4.422 -0.4260  0.3586 -0.9038
  839TIP3    H223933   6.478   0.106   4.437 -2.4908  1.7946 -0.3202
  840TIP3   OH223934   2.595   4.375  15.415 -0.6385 -0.2431 -0.3579
  840TIP3    H123935   2.650   4.378  15.493  1.5204 -0.3567 -1.7919
  840TIP3    H223936   2.511   4.341  15.446  0.2524 -0.5845  1.8393
  841TIP3   OH223937   3.372   1.941  11.215 -0.1295 -0.1733  0.4309
  841TIP3    H123938   3.295   1.885  11.205 -0.9099  0.8932  0.3735
  841TIP3    H223939   3.338   2.030  11.215  0.6728  0.2725  3.9389
  842TIP3   OH223940   3.247   6.380  12.963 -0.0572  0.1117  0.6052
  842TIP3    H123941   3.309   6.425  13.021 -0.3173  1.6718 -0.2555
  842TIP3    H223942   3.165   6.429  12.975 -0.7767 -1.0997  0.7541
  843TIP3   OH223943   6.470   1.601   5.016  0.3741 -0.0676  0.0900
  843TIP3    H123944   6.410   1.633   4.949 -0.5467  1.3328  1.5096
  843TIP3    H223945   6.451   1.507   5.021 -0.4967  0.0497 -0.6789
  844TIP3   OH223946   0.375   2.072   0.314  0.1901 -0.3231 -0.2639
  844TIP3    H123947   0.461   2.031   0.323  0.2089 -1.4648 -3.9740
  844TIP3    H223948   0.314   2.011   0.354  0.8696 -0.5288  0.4870
  845TIP3   OH223949   0.350   6.723  13.026 -0.0250 -0.4017 -0.2313
  845TIP3    H123950   0.403   6.799  13.003  0.4527 -0.6076  0.1549
  845TIP3    H223951   0.311   6.746  13.110  0.0923 -0.5650 -0.1311
  846TIP3   OH223952   0.600   0.375   4.852 -0.2466  0.9647  0.0454
  846TIP3    H123953   0.668   0.308   4.839 -0.0601  0.8772  1.3658
  846TIP3    H223954   0.649   0.457   4.861 -0.3302  0.9470  0.6829
  847TIP3   OH223955   4.924   3.315   3.910  0.6207  0.2956  0.2983
  847TIP3    H123956   4.889   3.388   3.961 -0.0642 -0.6954  1.2933
  847TIP3    H223957   4.988   3.274   3.968  1.0842  0.1581 -0.2962
  848TIP3   OH223958   1.681   5.449  13.988  0.1237  0.0753 -0.7261
  848TIP3    H123959   1.713   5.359  13.986  0.0755  0.0126  0.5368
  848TIP3    H223960   1.629   5.457  13.908 -0.3236 -1.1980 -0.5995
  849TIP3   OH223961   3.554   5.175  15.213 -0.0448  0.2967 -0.8434
  849TIP3    H123962   3.534   5.150  15.123 -0.5505 -0.0841 -0.6254
  849TIP3    H223963   3.642   5.213  15.208  1.5934 -3.2032 -0.9224
  850TIP3   OH223964   5.277   1.374   5.464 -0.2071 -0.3753 -0.1672
  850TIP3    H123965   5.309   1.426   5.537  0.0235 -1.1097  0.2644
  850TIP3    H223966   5.354   1.357   5.410 -0.5192  0.8846 -1.0608
  851TIP3   OH223967   1.520   1.318  12.553  0.5482  0.5907  0.1066
  851TIP3    H123968   1.509   1.306  12.647 -1.3613 -1.0526 -0.2452
  851TIP3    H223969   1.430   1.327  12.519  1.0778 -0.2355 -1.6770
  852TIP3   OH223970   6.703   1.894  14.590 -0.0065 -0.7240  0.0461
  852TIP3    H123971   6.699   1.941  14.506 -0.7989  0.3201  0.6368
  852TIP3    H223972   6.626   1.836  14.588 -1.3145  0.8785  0.9011
  853TIP3   OH223973   6.533   3.956   4.237 -0.1711  0.1837 -0.3967
  853TIP3    H123974   6.590   4.032   4.245  1.1086 -0.7994  0.5214
  853TIP3    H223975   6.506   3.937   4.327 -0.1327 -0.6773 -0.5560
  854TIP3   OH223976   2.408   1.821   2.514  0.0588 -0.5194  0.2776
  854TIP3    H123977   2.397   1.729   2.535 -0.2041 -0.7648 -0.8834
  854TIP3    H223978   2.398   1.826   2.419  0.4005  0.6560  0.2834
  855TIP3   OH223979   3.050   2.434  17.055  0.2299 -0.0274  0.2732
  855TIP3    H123980   3.005   2.449  16.972 -0.8227 -0.7848  0.6812
  855TIP3    H223981   3.133   2.393  17.032  0.0601  0.0109 -0.4142
  856TIP3   OH223982   0.293   4.282   3.559 -0.4826  0.3018  0.0417
  856TIP3    H123983   0.303   4.190   3.536 -1.0775  0.0382  0.8106
  856TIP3    H223984   0.278   4.326   3.476  1.3030 -0.0644 -0.5288
  857TIP3   OH223985   2.400   6.753   6.369  0.3620  0.0490  0.0846
  857TIP3    H123986   2.426   6.667   6.402 -0.7364  0.3052  1.7533
  857TIP3    H223987   2.322   6.735   6.315  0.4479 -0.0683 -0.0003
  858TIP3   OH223988   6.172   3.112  11.232 -0.2153  0.1308  0.6810
  858TIP3    H123989   6.081   3.142  11.230  0.3524  1.9755 -1.9589
  858TIP3    H223990   6.168   3.022  11.199 -0.9545  0.8473 -1.3401
  859TIP3   OH223991   6.793   3.074  12.499 -0.8540  0.1902 -0.7065
  859TIP3    H123992   6.815   3.015  12.570  0.8181  0.3769 -1.0364
  859TIP3    H223993   6.716   3.035  12.458 -0.2147 -1.3812 -0.4774
  860TIP3   OH223994   2.878   2.105  12.699 -0.4189  0.3754 -0.3240
  860TIP3    H123995   2.830   2.026  12.724  0.0067  0.3403  0.4092
  860TIP3    H223996   2.946   2.074  12.639 -0.2198  0.1769  0.0031
  861TIP3   OH223997   3.919   1.544   0.692  0.3694  0.4222  0.0736
  861TIP3    H123998   3.843   1.533   0.748 -0.3733 -0.7029 -1.0959
  861TIP3    H223999   3.992   1.559   0.752 -0.2571 -1.5507  1.4195
  862TIP3   OH224000   3.270   0.167  13.010 -0.4272  0.7421 -0.0962
  862TIP3    H124001   3.316   0.094  13.050 -0.6461  0.2715 -0.6830
  862TIP3    H224002   3.192   0.128  12.970  0.8233  0.7971 -2.8004
  863TIP3   OH224003   0.145   0.742  11.681  0.1539 -0.5508 -0.1737
  863TIP3    H124004   0.161   0.762  11.773 -0.7670  2.8835 -0.6021
  863TIP3    H224005   0.049   0.738  11.674  0.1960 -0.3881 -1.0160
  864TIP3   OH224006   2.544   2.185  14.278 -0.0779 -0.3749  0.5341
  864TIP3    H124007   2.604   2.230  14.218  0.7043 -2.0120  0.0114
  864TIP3    H224008   2.598   2.116  14.318 -1.0315 -0.3879  1.8521
  865TIP3   OH224009   3.865   4.013   2.778 -0.1021  1.0207 -0.5491
  865TIP3    H124010   3.887   3.973   2.694  1.4717 -0.9187  0.6993
  865TIP3    H224011   3.778   3.979   2.799 -0.3666  1.2603 -1.2203
  866TIP3   OH224012   6.467   0.018  15.136 -0.6692  0.5407  0.0697
  866TIP3    H124013   6.475  -0.030  15.218  0.6991  0.5575 -0.0232
  866TIP3    H224014   6.441  -0.047  15.072  0.2258  0.1066  0.1351
  867TIP3   OH224015   6.555   2.717  14.384  0.0067 -0.2348  0.2160
  867TIP3    H124016   6.593   2.755  14.463 -0.5012  3.4089 -1.0849
  867TIP3    H224017   6.485   2.778  14.360 -1.6050 -2.6179 -1.6498
  868TIP3   OH224018   2.867   3.099   2.232 -0.4395  0.4095  0.1699
  868TIP3    H124019   2.942   3.094   2.292 -0.2890 -0.4330 -0.0763
  868TIP3    H224020   2.907   3.110   2.146 -0.2491 -4.5438 -0.6492
  869TIP3   OH224021   1.012   6.534  15.710  0.0938  0.2375  0.2303
  869TIP3    H124022   1.035   6.464  15.772 -0.9352 -0.2078  0.1253
  869TIP3    H224023   1.047   6.614  15.750 -1.0644  0.0580  1.6944
  870TIP3   OH224024   1.167   1.776   1.409 -0.4535 -0.1071  0.0759
  870TIP3    H124025   1.235   1.829   1.451 -0.6958  0.2045  0.0860
  870TIP3    H224026   1.213   1.725   1.342  0.2587 -1.9910  1.9033
  871TIP3   OH224027   4.628   3.803  13.690  0.2489  0.4579  0.1390
  871TIP3    H124028   4.649   3.710  13.693  1.3567  0.6944  0.0365
  871TIP3    H224029   4.612   3.827  13.781 -1.8941 -0.2180 -0.0108
  872TIP3   OH224030   4.773   0.038   4.806 -0.6585 -0.3891 -0.3191
  872TIP3    H124031   4.842   0.047   4.872 -0.3004  0.3796 -0.7801
  872TIP3    H224032   4.701   0.091   4.840 -0.5211 -0.0963 -0.4840
  873TIP3   OH224033   3.641   1.366  14.532 -0.3898  0.3324  0.0335
  873TIP3    H124034   3.572   1.389  14.594 -0.6121 -1.0710  0.3300
  873TIP3    H224035   3.660   1.274  14.549  1.2101  0.5459 -0.3857
  874TIP3   OH224036   0.808   6.765  11.169  0.2091  0.4211  0.4166
  874TIP3    H124037   0.766   6.760  11.083  1.8581  2.9480 -0.6673
  874TIP3    H224038   0.895   6.727  11.154  0.1929  0.0521  1.2307
  875TIP3   OH224039   0.413   5.482  15.978 -0.5116 -0.0457 -0.3197
  875TIP3    H124040   0.459   5.565  15.989 -1.3314  0.2475  1.2020
  875TIP3    H224041   0.474   5.427  15.929  0.8987  0.7768  0.4414
  876TIP3   OH224042   4.292   5.042  11.981  0.1453  0.1673 -0.2451
  876TIP3    H124043   4.211   5.063  11.935  0.4164  0.0327 -0.7858
  876TIP3    H224044   4.351   5.115  11.961 -0.5369  1.4075  1.9201
  877TIP3   OH224045   1.441   0.904  15.759 -0.2493  0.0102  0.4269
  877TIP3    H124046   1.406   0.973  15.816 -1.2565 -0.2353  0.1133
  877TIP3    H224047   1.396   0.824  15.787  0.1376 -0.3329  0.0825
  878TIP3   OH224048   2.008   2.862  14.117 -0.3235 -0.1900 -0.2072
  878TIP3    H124049   2.007   2.766  14.121  0.3185 -0.1831  0.3103
  878TIP3    H224050   1.999   2.882  14.024 -2.1911 -0.7045 -0.1800
  879TIP3   OH224051   4.659   1.047  14.551 -0.4900 -0.3848  0.5036
  879TIP3    H124052   4.638   1.139  14.536 -0.4612 -0.2167  1.4479
  879TIP3    H224053   4.745   1.035  14.511 -0.3810  0.0632  0.5974
  880TIP3   OH224054   5.253   4.921   4.392  0.6973  0.5932  0.1724
  880TIP3    H124055   5.159   4.909   4.406  0.8237 -0.5308  0.1950
  880TIP3    H224056   5.262   5.011   4.360 -0.5621  0.2408 -1.3033
  881TIP3   OH224057   5.754   1.685  14.033  0.6014 -0.1565  0.6527
  881TIP3    H124058   5.672   1.637  14.027  0.8028 -0.7054  1.8444
  881TIP3    H224059   5.790   1.684  13.944 -0.5810 -0.0713  0.1666
  882TIP3   OH224060   5.601   4.784  10.881 -0.0331 -0.1790  0.6597
  882TIP3    H124061   5.514   4.756  10.909 -0.3816  0.0049 -0.2256
  882TIP3    H224062   5.593   4.797  10.787  0.9393 -0.0965  0.5843
  883TIP3   OH224063   4.877   5.400   1.157  0.2538 -0.1196 -0.3805
  883TIP3    H124064   4.816   5.420   1.086  0.8195  0.7983 -0.6258
  883TIP3    H224065   4.958   5.374   1.112  0.3083 -0.5048 -0.0632
  884TIP3   OH224066   1.728   4.769  11.542 -0.6092  0.0805 -0.0051
  884TIP3    H124067   1.640   4.733  11.528 -1.3430  1.9748 -0.5975
  884TIP3    H224068   1.787   4.695  11.527 -1.9255 -0.4953 -2.9837
  885TIP3   OH224069   1.588   4.141  11.561 -0.2852 -0.4777  0.1465
  885TIP3    H124070   1.586   4.143  11.466  0.5853  1.3449  0.1222
  885TIP3    H224071   1.555   4.054  11.584 -0.0924 -1.1132 -1.8032
  886TIP3   OH224072   5.918   5.143  12.744  0.2874 -0.3139  0.2667
  886TIP3    H124073   5.878   5.081  12.806  0.3009 -1.9364 -1.2787
  886TIP3    H224074   5.891   5.112  12.658  0.7540  1.5557 -0.6047
  887TIP3   OH224075   4.054   4.061   0.248 -0.2154 -0.4906  0.0561
  887TIP3    H124076   3.983   4.047   0.185 -0.1560  1.5355 -0.5115
  887TIP3    H224077   4.014   4.113   0.318  0.3398 -0.6488  0.4970
  888TIP3   OH224078   4.306   3.112  14.734 -0.1683  0.1948  0.6048
  888TIP3    H124079   4.366   3.172  14.691  1.2359 -1.5821 -0.0717
  888TIP3    H224080   4.256   3.072  14.663  0.5649 -1.0939  0.7659
  889TIP3   OH224081   6.428   0.488  13.971 -0.4269  0.2670  0.5702
  889TIP3    H124082   6.399   0.539  13.895  0.4022  0.7154  0.5508
  889TIP3    H224083   6.410   0.545  14.046 -1.0510 -0.0937  0.7097
  890TIP3   OH224084   3.793   4.806   0.254  0.0520  0.4488  0.3249
  890TIP3    H124085   3.813   4.899   0.245  0.8803  0.1052 -2.2198
  890TIP3    H224086   3.742   4.784   0.176  0.3366 -1.3526  0.5844
  891TIP3   OH224087   0.365   6.127   5.592  0.5509 -0.1839  0.0761
  891TIP3    H124088   0.426   6.195   5.621 -0.2593  0.6350 -0.1064
  891TIP3    H224089   0.317   6.103   5.671  0.3498 -0.0369 -0.0013
  892TIP3   OH224090   2.327   6.150   5.277 -0.1613 -0.4558 -0.5892
  892TIP3    H124091   2.380   6.070   5.282  0.8320  0.2689  2.4061
  892TIP3    H224092   2.388   6.217   5.247 -0.2033 -0.2419 -0.1999
  893TIP3   OH224093   0.823   2.222   4.340  0.5173  0.5779  0.4565
  893TIP3    H124094   0.761   2.153   4.365  1.5691 -0.5080  0.1391
  893TIP3    H224095   0.769   2.287   4.295 -0.7967  0.8609  2.3189
  894TIP3   OH224096   2.153   5.996  13.183 -0.0315  0.2277  0.1484
  894TIP3    H124097   2.218   6.039  13.127 -0.3466 -0.7461 -0.9935
  894TIP3    H224098   2.168   5.903  13.170 -1.6135 -0.0173 -0.0777
  895TIP3   OH224099   0.577   5.074   2.014  0.0771 -0.2750 -0.1115
  895TIP3    H124100   0.621   4.996   2.049  2.0718  0.6345 -0.4462
  895TIP3    H224101   0.627   5.096   1.935 -1.4017  0.4796 -0.8780
  896TIP3   OH224102   6.358   6.294  16.082 -0.1187 -0.5646 -0.3156
  896TIP3    H124103   6.347   6.314  15.989 -3.5411  1.8734  0.4301
  896TIP3    H224104   6.305   6.215  16.096  0.5470 -1.0411 -0.4290
  897TIP3   OH224105   4.603   5.004  15.684  0.0040  0.3237 -0.1087
  897TIP3    H124106   4.633   4.915  15.667  1.2769  0.3617  1.7212
  897TIP3    H224107   4.683   5.057  15.679 -0.9747  1.7501 -3.1281
  898TIP3   OH224108   2.435   1.066  15.758 -0.9159  0.1493  0.5153
  898TIP3    H124109   2.513   1.104  15.717  0.5748 -1.4231  1.7055
  898TIP3    H224110   2.430   0.978  15.722 -1.1594 -0.3268  1.6587
  899TIP3   OH224111   4.533   1.257   2.832  0.3772  0.6603 -1.4084
  899TIP3    H124112   4.558   1.166   2.846  0.8961  0.8388 -1.1694
  899TIP3    H224113   4.570   1.279   2.747 -1.8639 -0.0971 -2.6562
  900TIP3   OH224114   3.358   6.430  16.762 -0.2173 -0.4997  0.1710
  900TIP3    H124115   3.378   6.480  16.842  1.1084 -1.0201  0.1896
  900TIP3    H224116   3.384   6.340  16.783  0.0989 -0.6494 -0.8379
  901TIP3   OH224117   2.881   2.987   0.835  0.1973 -0.3483  0.6952
  901TIP3    H124118   2.924   2.981   0.750  0.8733 -2.1686  1.1138
  901TIP3    H224119   2.832   2.905   0.843 -1.5587  0.7107  1.2008
  902TIP3   OH224120   5.030   0.835  16.642 -0.8459  0.4229 -0.2718
  902TIP3    H124121   4.971   0.799  16.708 -0.9248 -0.0452 -0.5869
  902TIP3    H224122   4.987   0.814  16.558 -1.8575  2.9064 -0.4630
  903TIP3   OH224123   1.410   5.371  11.365  0.1512 -0.3252  0.1692
  903TIP3    H124124   1.462   5.361  11.445 -0.7190  0.3290  0.8469
  903TIP3    H224125   1.350   5.297  11.367 -1.1799  0.7173  1.1853
  904TIP3   OH224126   2.918   3.619   3.030  0.3294 -0.1016  0.1516
  904TIP3    H124127   2.825   3.613   3.008  0.4883 -0.1905 -0.5076
  904TIP3    H224128   2.922   3.594   3.122 -0.5260  1.6102  0.7105
  905TIP3   OH224129   2.685   4.763   5.576 -0.2735 -0.1347  0.4570
  905TIP3    H124130   2.755   4.699   5.586  0.3422  0.6194  1.0793
  905TIP3    H224131   2.644   4.741   5.492  0.0304 -1.2241  0.5702
  906TIP3   OH224132   5.804   1.009   3.192  0.7797 -0.4637  0.2215
  906TIP3    H124133   5.841   0.964   3.116 -0.7742  0.0230 -0.8894
  906TIP3    H224134   5.730   0.954   3.218  0.9807 -0.3483  1.0651
  907TIP3   OH224135   3.974   5.046  15.341  0.0226  0.2691 -0.4882
  907TIP3    H124136   3.950   5.056  15.249 -0.3963  1.0479 -0.2990
  907TIP3    H224137   3.999   4.954  15.349 -2.6083 -0.5569 -0.7783
  908TIP3   OH224138   1.824   2.462  16.544 -0.4278  0.1555 -0.1397
  908TIP3    H124139   1.745   2.512  16.561 -0.1676  0.9639 -1.2077
  908TIP3    H224140   1.832   2.461  16.449  0.3286 -0.7466 -0.0872
  909TIP3   OH224141   0.092   2.137   5.542 -0.3555 -0.1337  0.3266
  909TIP3    H124142   0.034   2.145   5.618  0.1920 -0.6817  0.8149
  909TIP3    H224143   0.052   2.192   5.475 -0.9826  0.1589  0.9318
  910TIP3   OH224144   2.472   1.983  13.081 -0.0681  0.1861  0.0698
  910TIP3    H124145   2.530   2.055  13.106  1.2972 -0.9294  0.2474
  910TIP3    H224146   2.508   1.906  13.126 -1.1019 -0.7339 -0.6181
  911TIP3   OH224147   0.008   4.243  11.020 -0.1202  0.1000  0.1564
  911TIP3    H124148   0.046   4.278  10.939  1.9722 -0.8957  0.6257
  911TIP3    H224149  -0.074   4.202  10.993  0.4664 -0.0964 -1.4299
  912TIP3   OH224150   1.124   1.280  11.252 -0.1182  0.2969  0.1985
  912TIP3    H124151   1.162   1.366  11.275 -1.4902  1.1403 -0.5653
  912TIP3    H224152   1.147   1.268  11.160  0.6437 -0.5048  0.4741
  913TIP3   OH224153   2.030   2.171  16.985 -0.3934 -0.3549 -0.2596
  913TIP3    H124154   1.997   2.082  16.972 -2.6044  0.3234  0.2545
  913TIP3    H224155   2.025   2.211  16.898 -1.2676 -0.1551 -0.1201
  914TIP3   OH224156   1.648   5.296   5.085 -0.4296  0.4432  0.0911
  914TIP3    H124157   1.735   5.319   5.118  0.3478 -1.9881 -0.0402
  914TIP3    H224158   1.658   5.296   4.989 -0.7871  0.8604  0.0509
  915TIP3   OH224159   5.981   1.496  16.978 -0.0622  0.0356 -0.1173
  915TIP3    H124160   5.956   1.453  17.059  1.2482 -1.7765 -0.6298
  915TIP3    H224161   5.925   1.456  16.911  0.5416 -0.2415 -0.4633
  916TIP3   OH224162   4.682   0.280   3.246 -0.6806 -0.2950  0.2205
  916TIP3    H124163   4.616   0.314   3.307 -0.0488  0.1311  0.6677
  916TIP3    H224164   4.765   0.311   3.281 -0.3069 -0.1049 -0.8281
  917TIP3   OH224165   5.673   4.221  12.918 -0.4846 -0.2334 -0.3435
  917TIP3    H124166   5.586   4.191  12.945 -0.1644 -0.7470  0.1376
  917TIP3    H224167   5.658   4.309  12.882 -1.4179 -0.8814 -1.6273
  918TIP3   OH224168   4.577   3.266   1.021  0.2567 -0.1470 -0.3401
  918TIP3    H124169   4.602   3.356   1.043  0.5233 -0.3142  0.0665
  918TIP3    H224170   4.482   3.267   1.024  0.2581  0.1129 -0.2960
  919TIP3   OH224171   2.046   6.757  11.816 -0.4178 -0.6169 -0.2092
  919TIP3    H124172   2.065   6.840  11.858  0.5967 -0.8935 -0.0903
  919TIP3    H224173   2.005   6.781  11.733 -0.9001 -0.0295  0.1927
  920TIP3   OH224174   6.620   0.559  16.092  0.4498 -0.2207  0.2998
  920TIP3    H124175   6.654   0.637  16.136  1.3233  0.2932 -1.1944
  920TIP3    H224176   6.536   0.587  16.055 -0.0554 -0.5108  1.2132
  921TIP3   OH224177   2.886   2.550  16.176  0.2897  0.1634  0.4830
  921TIP3    H124178   2.981   2.556  16.174  0.3000  0.1547  0.8658
  921TIP3    H224179   2.862   2.512  16.092  0.4675  2.2602 -0.5780
  922TIP3   OH224180   0.027   0.751  13.642 -0.3423  0.0088  0.3024
  922TIP3    H124181  -0.059   0.793  13.653 -1.1399 -1.1436 -1.2943
  922TIP3    H224182   0.076   0.811  13.586 -0.6182 -0.0154  0.0337
  923TIP3   OH224183   6.274   0.584  13.748  0.5447  0.3048 -0.1671
  923TIP3    H124184   6.207   0.520  13.724  0.2971  1.4036 -2.7090
  923TIP3    H224185   6.235   0.669  13.727  1.8295  1.1442  0.6647
  924TIP3   OH224186   2.674   5.851   3.354  0.1636 -0.0986  0.4123
  924TIP3    H124187   2.635   5.777   3.400 -0.1287 -0.6519 -0.6992
  924TIP3    H224188   2.621   5.861   3.274  0.8057  0.6792  0.0671
  925TIP3   OH224189   4.764   0.667   3.949  0.0028  0.5978  0.1575
  925TIP3    H124190   4.717   0.628   3.875  1.8486  1.3290 -1.4903
  925TIP3    H224191   4.835   0.605   3.966 -1.5074 -0.5798  2.7224
  926TIP3   OH224192   0.168   4.849  16.340 -0.2305 -0.1831 -0.0742
  926TIP3    H124193   0.258   4.879  16.331 -0.1515 -0.7974 -1.6703
  926TIP3    H224194   0.143   4.873  16.429  1.3528  0.3979  0.2387
  927TIP3   OH224195   4.923   2.070  12.027  0.4505  0.4804  0.1081
  927TIP3    H124196   4.970   2.153  12.022  3.1575 -0.9708 -0.2544
  927TIP3    H224197   4.882   2.062  11.941  0.7402  1.1228 -0.1030
  928TIP3   OH224198   4.833   2.377   1.736 -0.0189 -0.0643  0.1294
  928TIP3    H124199   4.787   2.329   1.668  1.0244  0.4496 -0.9942
  928TIP3    H224200   4.886   2.441   1.688  0.0378  0.9481  1.4787
  929TIP3   OH224201   5.695   5.232  15.966 -0.2839  0.5236  0.8553
  929TIP3    H124202   5.761   5.268  16.025  0.2175 -0.1667  0.7288
  929TIP3    H224203   5.738   5.156  15.926 -0.8291  0.6308  0.0554
  930TIP3   OH224204   5.769   1.657   4.668  0.3893 -0.0560 -0.2405
  930TIP3    H124205   5.719   1.576   4.654 -1.1328  0.6818  0.6732
  930TIP3    H224206   5.850   1.644   4.619  0.2444 -2.1929 -0.0093
  931TIP3   OH224207   4.265   4.715   5.472 -0.1947  0.5826 -0.5461
  931TIP3    H124208   4.172   4.700   5.457 -0.2584 -1.0792  1.1802
  931TIP3    H224209   4.306   4.629   5.461  1.2025  1.3255 -1.5144
  932TIP3   OH224210   3.421   4.936  16.582 -0.2076  0.8011 -0.6411
  932TIP3    H124211   3.492   4.873  16.589  1.5871  2.6132 -1.5575
  932TIP3    H224212   3.373   4.928  16.665  1.8422  0.4269  0.5568
  933TIP3   OH224213   6.017   5.923  10.563 -0.3637 -0.2706  0.0492
  933TIP3    H124214   5.990   6.014  10.579  1.2183  0.1017  0.9282
  933TIP3    H224215   6.073   5.902  10.638  1.5978 -0.9726 -1.5062
  934TIP3   OH224216   0.882   0.695   1.319  0.4019  0.1369 -0.0273
  934TIP3    H124217   0.835   0.717   1.399 -1.9190 -1.1172 -0.9369
  934TIP3    H224218   0.952   0.760   1.313 -0.9872  1.9020  1.6464
  935TIP3   OH224219   3.422   6.050  17.023 -0.2791  0.2830  0.6061
  935TIP3    H124220   3.383   5.973  17.066  0.2232 -0.2564  0.1184
  935TIP3    H224221   3.422   6.118  17.091 -3.8158  0.9670  0.1367
  936TIP3   OH224222   5.319   0.725  15.990  0.1261 -0.3592 -0.7714
  936TIP3    H124223   5.248   0.670  15.955 -1.4570  1.2188 -0.1923
  936TIP3    H224224   5.357   0.673  16.061 -2.3513 -0.1721  0.7943
  937TIP3   OH224225   2.987   6.197   3.459  0.3551 -0.2193  0.3267
  937TIP3    H124226   3.006   6.103   3.457  0.0024 -0.2842 -0.5168
  937TIP3    H224227   2.896   6.203   3.430 -0.3588  0.2222  2.4753
  938TIP3   OH224228   2.584   1.820  14.005 -0.0084 -0.0810 -0.3256
  938TIP3    H124229   2.649   1.891  14.000 -0.2113  0.1193 -0.1215
  938TIP3    H224230   2.503   1.860  13.974 -0.1624 -0.1807 -0.0489
  939TIP3   OH224231   1.245   0.982   5.926 -0.2687  0.1331 -0.1660
  939TIP3    H124232   1.202   0.908   5.968 -0.0717 -0.0887 -0.3479
  939TIP3    H224233   1.203   0.990   5.840  1.9444 -1.9361 -1.5757
  940TIP3   OH224234   5.527   0.546   6.275  0.4819  0.6946 -0.6681
  940TIP3    H124235   5.463   0.512   6.337 -1.0295  3.3334 -0.6716
  940TIP3    H224236   5.596   0.585   6.329  0.6020  0.4930 -0.6728
  941TIP3   OH224237   2.334   0.908  13.201  0.3683 -0.5608  0.0677
  941TIP3    H124238   2.370   0.889  13.115 -0.0990  0.4181 -0.3571
  941TIP3    H224239   2.255   0.960  13.184 -1.0644 -2.3300  0.9771
  942TIP3   OH224240   3.069   3.127  16.984 -0.2783  0.2441  0.2992
  942TIP3    H124241   3.144   3.177  16.952 -0.5032  0.8617  0.7350
  942TIP3    H224242   3.005   3.132  16.914  0.0675 -0.2475 -0.0581
  943TIP3   OH224243   0.835   1.811  16.675  0.1294  0.5643  0.8418
  943TIP3    H124244   0.819   1.722  16.644  1.1583  0.2293  1.2574
  943TIP3    H224245   0.748   1.852  16.672 -0.3192 -0.3699  0.4186
  944TIP3   OH224246   4.070   3.503  17.074 -0.7008  0.2899  0.1660
  944TIP3    H124247   4.121   3.480  17.152 -1.5158 -0.1155  0.5892
  944TIP3    H224248   4.103   3.444  17.006 -1.3650 -0.7698  0.7288
  945TIP3   OH224249   2.620   0.118  16.894 -0.0910 -0.4817  0.6268
  945TIP3    H124250   2.565   0.072  16.830  0.6868 -0.6311  0.0447
  945TIP3    H224251   2.692   0.057  16.911  0.3135  0.0309  0.7674
  946TIP3   OH224252   3.329   0.490   5.186  0.5860 -0.1521  0.2266
  946TIP3    H124253   3.414   0.529   5.205 -0.6001  2.9949 -0.4590
  946TIP3    H224254   3.283   0.490   5.270  0.6896 -0.4406  0.2872
  947TIP3   OH224255   3.918   0.814  12.614 -0.3170 -0.4959  0.3613
  947TIP3    H124256   3.865   0.734  12.622 -1.0222 -0.1906 -0.9215
  947TIP3    H224257   3.879   0.874  12.678 -3.1243  0.5141 -2.0604
  948TIP3   OH224258   1.962   2.338  13.280  0.2040 -0.2784  0.6076
  948TIP3    H124259   1.988   2.246  13.281 -1.9118 -0.9488 -0.0704
  948TIP3    H224260   1.896   2.343  13.211  0.1374  1.7212  0.7609
  949TIP3   OH224261   1.967   2.889  10.964 -0.2770 -0.2518 -0.1227
  949TIP3    H124262   1.904   2.880  11.036 -0.9082  0.1377 -0.6135
  949TIP3    H224263   1.953   2.978  10.931 -0.1388 -0.4944 -0.8580
  950TIP3   OH224264   6.565   6.239  11.943  0.0275 -0.6099 -0.0110
  950TIP3    H124265   6.600   6.246  11.854 -0.5376 -0.3676 -0.2131
  950TIP3    H224266   6.524   6.152  11.945  0.4740 -0.8190  0.1699
  951TIP3   OH224267   0.636   0.410  12.604 -0.4640 -0.2848  0.1436
  951TIP3    H124268   0.638   0.424  12.699  0.5380 -0.9138  0.2272
  951TIP3    H224269   0.556   0.455  12.575  0.7154  2.4774  0.8778
  952TIP3   OH224270   2.857   1.447  14.206  0.2371  0.6129 -0.0829
  952TIP3    H124271   2.774   1.486  14.178  0.2157 -0.7228 -2.0341
  952TIP3    H224272   2.833   1.364  14.247  0.5968  0.1644 -0.7594
  953TIP3   OH224273   1.981   5.121   0.729 -0.1348 -0.3093 -0.6454
  953TIP3    H124274   1.972   5.106   0.635 -1.4316  0.0416 -0.5849
  953TIP3    H224275   2.003   5.035   0.765  2.2207 -0.1254 -1.4525
  954TIP3   OH224276   0.988   5.787   2.074  0.5191  1.1326 -0.3194
  954TIP3    H124277   1.035   5.783   2.158 -0.7168 -2.1729  0.3602
  954TIP3    H224278   0.923   5.857   2.087  0.5127  0.8465  1.4156
  955TIP3   OH224279   6.014   6.161   0.288 -0.4370 -0.2202  0.3340
  955TIP3    H124280   5.930   6.127   0.256 -0.5553 -0.1977  0.6209
  955TIP3    H224281   6.027   6.242   0.239 -1.8874  1.2086  2.1828
  956TIP3   OH224282   5.582   3.767  17.202  0.1800  0.4677 -0.0445
  956TIP3    H124283   5.653   3.715  17.165  1.0073  1.6120 -0.0812
  956TIP3    H224284   5.512   3.762  17.136  1.0350  1.1432 -1.0167
  957TIP3   OH224285   2.899   3.838  13.183 -0.7677  0.0459  0.2315
  957TIP3    H124286   2.910   3.745  13.163 -2.4448 -0.2528  0.5971
  957TIP3    H224287   2.835   3.841  13.254 -0.9228  1.4965  0.0686
  958TIP3   OH224288   5.796   0.343  16.829 -0.1692 -0.0934 -0.0573
  958TIP3    H124289   5.787   0.347  16.924  1.7165 -2.7437  0.3535
  958TIP3    H224290   5.851   0.418  16.806 -0.6421  0.5663  0.9246
  959TIP3   OH224291   1.246   4.400  17.247  0.6847 -0.1349 -0.2119
  959TIP3    H124292   1.261   4.471  17.310  0.2764 -0.2149 -0.0216
  959TIP3    H224293   1.292   4.428  17.168 -2.8008  2.3192 -1.5944
  960TIP3   OH224294   4.237   5.600   2.711 -0.2847  0.1879  0.1604
  960TIP3    H124295   4.227   5.511   2.743 -0.6393  0.6202  1.2915
  960TIP3    H224296   4.160   5.646   2.744 -0.9163  0.5738 -1.6800
  961TIP3   OH224297   3.815   2.953  12.023  0.0904 -0.4735  0.2533
  961TIP3    H124298   3.898   2.974  11.981  0.0197  2.5757  1.4361
  961TIP3    H224299   3.834   2.876  12.077  1.4903 -1.2030 -1.1797
  962TIP3   OH224300   4.777   2.475   5.264  0.0844 -0.4913  0.0237
  962TIP3    H124301   4.872   2.473   5.252  0.2656  0.6069  1.0829
  962TIP3    H224302   4.761   2.425   5.344  0.1049  1.6168  1.4326
  963TIP3   OH224303   4.293   3.528   0.408 -0.7149 -0.2648  0.2433
  963TIP3    H124304   4.365   3.497   0.354 -0.2423 -0.7707  1.1595
  963TIP3    H224305   4.237   3.576   0.347 -0.9588 -2.0635 -1.0163
  964TIP3   OH224306   0.346   3.423  12.555 -0.3592  0.7718 -0.2289
  964TIP3    H124307   0.415   3.382  12.503 -0.6603  1.6441 -1.3565
  964TIP3    H224308   0.385   3.505  12.587 -0.2097  0.2896  0.8530
  965TIP3   OH224309   5.664   0.411   1.900  0.1742 -0.1737  0.1695
  965TIP3    H124310   5.748   0.418   1.855  0.1840 -0.4479  0.1443
  965TIP3    H224311   5.684   0.425   1.992  0.0402  1.2274  0.0165
  966TIP3   OH224312   3.268   1.747   4.345  0.4498  0.1489  0.6328
  966TIP3    H124313   3.248   1.653   4.350 -0.1747  0.1708 -0.8379
  966TIP3    H224314   3.363   1.752   4.348  0.4832 -0.5253  0.8335
  967TIP3   OH224315   2.455   5.972   1.329  0.0521  0.1176  0.2129
  967TIP3    H124316   2.377   6.025   1.311 -0.3078 -0.4544  0.0830
  967TIP3    H224317   2.512   5.987   1.254 -0.6169 -0.7262 -0.4766
  968TIP3   OH224318   3.117   2.669  17.240  0.3100  0.0668  0.3301
  968TIP3    H124319   3.083   2.740  17.185 -0.3400  0.6761  1.4681
  968TIP3    H224320   3.121   2.593  17.182  0.1606  0.8111 -0.6873
  969TIP3   OH224321   5.795   3.095   1.438 -0.4306 -0.0841  0.0748
  969TIP3    H124322   5.811   3.012   1.393  1.1630  0.5719 -0.6410
  969TIP3    H224323   5.799   3.072   1.531 -1.0385 -0.9801 -0.1055
  970TIP3   OH224324   5.312   5.367   1.750  0.1867  0.0546 -0.3724
  970TIP3    H124325   5.288   5.326   1.667 -0.0618  0.6781 -0.6206
  970TIP3    H224326   5.298   5.461   1.735  0.7348  0.2327  0.1763
  971TIP3   OH224327   2.357   1.615  11.443 -0.0019  0.4424 -0.5149
  971TIP3    H124328   2.286   1.651  11.389 -0.1551  1.7376  0.4927
  971TIP3    H224329   2.419   1.687  11.451 -0.1070  0.3910  1.2157
  972TIP3   OH224330   4.817   3.312   1.368  0.0519  0.2635  0.3715
  972TIP3    H124331   4.740   3.362   1.340  0.0023 -0.4847 -0.9322
  972TIP3    H224332   4.874   3.311   1.291  0.4799 -0.8435  0.6819
  973TIP3   OH224333   6.234   4.811  14.589  0.1039 -0.4719 -0.3937
  973TIP3    H124334   6.165   4.876  14.573  0.6647  0.2536  0.1156
  973TIP3    H224335   6.250   4.772  14.503  0.6906  0.9943 -0.9760
  974TIP3   OH224336   2.107   6.281  12.481  0.3132 -0.3686 -0.1703
  974TIP3    H124337   2.064   6.325  12.408 -0.5054  0.1766  0.6039
  974TIP3    H224338   2.200   6.285  12.461  0.1159  0.0232 -1.0424
  975TIP3   OH224339   4.984   4.476  13.153  0.1844 -0.1328 -0.3382
  975TIP3    H124340   4.950   4.452  13.067 -0.8830 -0.5492  0.1862
  975TIP3    H224341   4.930   4.428  13.215  0.1237  1.1061  0.6220
  976TIP3   OH224342   4.387   6.449   1.611  0.1152  0.1262 -0.2450
  976TIP3    H124343   4.292   6.441   1.601  0.1669  0.1054 -0.7280
  976TIP3    H224344   4.423   6.378   1.558  0.4352  0.7435 -0.8581
  977TIP3   OH224345   5.820   0.989   5.642 -0.3471  0.0838 -0.3217
  977TIP3    H124346   5.873   1.015   5.717 -0.1381  3.1423 -1.4235
  977TIP3    H224347   5.737   0.962   5.681  0.4096 -0.3000  1.1159
  978TIP3   OH224348   6.090   4.602   2.185 -0.2201 -0.5005 -0.0852
  978TIP3    H124349   6.156   4.662   2.219 -0.7633 -0.4546  0.9263
  978TIP3    H224350   6.137   4.520   2.169 -0.1419 -0.8526  1.7845
  979TIP3   OH224351   0.321   6.236  14.117 -0.0442  0.2495  0.1456
  979TIP3    H124352   0.314   6.290  14.196 -2.6860 -1.2997  1.1153
  979TIP3    H224353   0.274   6.285  14.050 -0.6325  0.1269  0.4588
  980TIP3   OH224354   0.696   1.710  14.503  0.9502 -0.4827  0.1497
  980TIP3    H124355   0.697   1.786  14.561  1.6196 -1.7280  1.8312
  980TIP3    H224356   0.739   1.741  14.423  0.8598  1.0043  0.6491
  981TIP3   OH224357   5.446   5.698  11.430 -0.0054 -0.0096 -0.3651
  981TIP3    H124358   5.413   5.675  11.517  0.8834  0.2877  0.0612
  981TIP3    H224359   5.379   5.666  11.370 -0.4612 -0.5409  0.4071
  982TIP3   OH224360   5.559   5.926  12.709  0.1407 -0.8560 -0.4229
  982TIP3    H124361   5.483   5.905  12.655 -0.0057  0.3510 -0.7115
  982TIP3    H224362   5.527   5.921  12.799 -0.7566  1.2811 -0.5777
  983TIP3   OH224363   2.790   5.378   3.590  0.4121 -0.2494 -0.3383
  983TIP3    H124364   2.820   5.468   3.574  0.5748 -0.7096 -3.1847
  983TIP3    H224365   2.694   5.386   3.592  0.2069 -0.2552 -3.6665
  984TIP3   OH224366   2.869   4.371  13.533  0.2721  0.4831 -0.2878
  984TIP3    H124367   2.779   4.362  13.500  1.1394 -3.0941 -2.0977
  984TIP3    H224368   2.919   4.397  13.456  1.0772  0.8547  0.3511
  985TIP3   OH224369   0.095   5.624  16.019 -0.5766 -0.4344 -0.4284
  985TIP3    H124370   0.044   5.545  16.038  1.3925 -1.7797 -0.4383
  985TIP3    H224371   0.084   5.637  15.925 -1.1558 -0.5042 -0.3740
  986TIP3   OH224372   6.616   6.362   4.867  0.4288  0.2542  0.3348
  986TIP3    H124373   6.651   6.273   4.875 -0.6622 -0.1704  0.6246
  986TIP3    H224374   6.534   6.360   4.916 -0.3114  1.0324 -0.8182
  987TIP3   OH224375   2.121   2.199   5.121 -0.5229 -0.3012  0.4295
  987TIP3    H124376   2.195   2.145   5.148  0.9470  1.0456 -0.7333
  987TIP3    H224377   2.139   2.221   5.030 -2.6691 -0.3712 -0.0777
  988TIP3   OH224378   3.130   5.539  15.088  0.1317  0.3681 -0.0775
  988TIP3    H124379   3.046   5.501  15.112 -0.0265  1.6713  1.5850
  988TIP3    H224380   3.111   5.595  15.013  0.0853 -1.4840 -1.5264
  989TIP3   OH224381   4.427   3.071   6.313  0.2652 -0.5247  0.3208
  989TIP3    H124382   4.511   3.053   6.354  0.0082  0.3617  1.2724
  989TIP3    H224383   4.372   2.997   6.339  0.3224 -0.3495  0.9526
  990TIP3   OH224384   4.353   5.635  10.515  0.0413 -0.4033 -0.0724
  990TIP3    H124385   4.270   5.641  10.469 -0.8796  0.8099  1.6397
  990TIP3    H224386   4.404   5.709  10.482 -0.2388 -0.1092  0.1556
  991TIP3   OH224387   1.062   3.956   4.215  0.4460 -0.4783  0.5834
  991TIP3    H124388   1.026   3.868   4.210  0.2975 -0.3774 -0.5445
  991TIP3    H224389   1.148   3.949   4.172  0.8270 -0.2539  1.2876
  992TIP3   OH224390   4.097   0.651  11.909 -0.0452  0.4489 -0.3098
  992TIP3    H124391   4.063   0.646  11.820  0.5719 -0.9582 -0.4859
  992TIP3    H224392   4.025   0.687  11.960 -0.3560  1.4083 -1.3898
  993TIP3   OH224393   1.552   6.639   3.163  0.1660  0.5553 -0.1735
  993TIP3    H124394   1.544   6.709   3.228 -1.9947  1.6790 -1.5410
  993TIP3    H224395   1.645   6.638   3.141  0.5808  1.6248  1.3256
  994TIP3   OH224396   0.951   3.280  15.326  0.4251  0.1020  0.0710
  994TIP3    H124397   0.934   3.365  15.366  0.8423  0.1358  0.1785
  994TIP3    H224398   0.925   3.291  15.235 -0.7299 -0.0359  0.3634
  995TIP3   OH224399   3.059   3.590   4.095  0.8114 -0.0911 -0.0020
  995TIP3    H124400   3.030   3.648   4.166 -2.6047 -0.1699 -1.1268
  995TIP3    H224401   3.136   3.546   4.130  0.0270  0.8019  3.1737
  996TIP3   OH224402   5.538   2.767  14.635 -0.3491  0.3007 -0.1043
  996TIP3    H124403   5.465   2.810  14.589  0.4008  1.4626 -0.2482
  996TIP3    H224404   5.554   2.687  14.584 -0.4665  0.8453 -1.0341
  997TIP3   OH224405   1.739   3.135   5.454 -1.1935  0.4088  0.0621
  997TIP3    H124406   1.788   3.073   5.400 -2.2307 -2.7591  2.4163
  997TIP3    H224407   1.728   3.212   5.399  3.0329 -0.1322 -1.9488
  998TIP3   OH224408   2.309   1.255  15.097 -0.2163  0.1899  0.7390
  998TIP3    H124409   2.353   1.175  15.068  0.7775  0.6062  1.0544
  998TIP3    H224410   2.251   1.278  15.024 -3.2053 -2.6862  1.9479
  999TIP3   OH224411   6.298   2.460  16.982  1.0086 -0.3605  0.1258
  999TIP3    H124412   6.224   2.458  17.042  1.4896 -0.2184  0.7355
  999TIP3    H224413   6.264   2.503  16.903  0.5118 -0.0902  0.4852
 1000TIP3   OH224414   6.726   4.762  16.508  0.1664  0.1521  0.8670
 1000TIP3    H124415   6.716   4.728  16.419  0.3732  0.6661  0.6460
 1000TIP3    H224416   6.710   4.856  16.500 -1.7368 -0.0663  1.7137
 1001TIP3   OH224417   1.751   6.279  11.529  0.5268 -0.3375  0.0250
 1001TIP3    H124418   1.669   6.322  11.552  0.6259  0.4296 -0.9617
 1001TIP3    H224419   1.725   6.206  11.473  0.4229 -0.9853  0.9130
 1002TIP3   OH224420   6.523   5.361  15.806 -0.5163 -0.0970  0.4223
 1002TIP3    H124421   6.568   5.276  15.813  1.9883  1.2256  2.5695
 1002TIP3    H224422   6.542   5.391  15.717 -0.9877 -1.5184 -0.1899
 1003TIP3   OH224423   1.129   0.209   0.224 -0.0338 -0.0662  0.3218
 1003TIP3    H124424   1.034   0.217   0.216 -0.0188  0.4683  0.6035
 1003TIP3    H224425   1.164   0.286   0.179  0.3039 -0.6960 -0.5131
 1004TIP3   OH224426   3.770   0.572   4.152 -0.3863  0.6511  0.9378
 1004TIP3    H124427   3.772   0.494   4.097  0.3973  1.3964 -0.1338
 1004TIP3    H224428   3.677   0.596   4.155 -0.3104  1.5278 -1.4892
 1005TIP3   OH224429   0.227   2.454   2.280  0.4380 -0.0568 -0.1403
 1005TIP3    H124430   0.284   2.397   2.331  1.4681  1.0171 -0.0517
 1005TIP3    H224431   0.231   2.420   2.191  1.8899  0.5011 -0.3024
 1006TIP3   OH224432   4.122   3.095   5.834  0.0926  0.0803  0.1443
 1006TIP3    H124433   4.141   3.013   5.787  3.2651  0.1738  1.0410
 1006TIP3    H224434   4.074   3.067   5.912 -0.8744 -0.6338 -0.6821
 1007TIP3   OH224435   5.403   1.807  15.056  0.3001 -0.4149  0.3655
 1007TIP3    H124436   5.318   1.775  15.027  0.7621 -0.5658 -0.8912
 1007TIP3    H224437   5.390   1.901  15.068  0.1086 -0.3382 -0.4092
 1008TIP3   OH224438   2.001   6.666   2.680 -0.0531  0.8099  0.4922
 1008TIP3    H124439   1.939   6.676   2.608 -0.3766  1.1441  0.8101
 1008TIP3    H224440   2.076   6.621   2.642  0.0019  1.4501 -0.1797
 1009TIP3   OH224441   0.970   3.485   4.477 -0.2822 -0.2120 -0.2875
 1009TIP3    H124442   0.990   3.407   4.529  1.3291  0.8653  0.8098
 1009TIP3    H224443   0.897   3.526   4.522 -0.3878 -0.4931 -0.2026
 1010TIP3   OH224444   3.496   0.676   2.477  0.1286 -0.5221 -0.5401
 1010TIP3    H124445   3.568   0.660   2.416 -1.2580  0.2034 -2.4873
 1010TIP3    H224446   3.422   0.697   2.420 -0.9352  1.4923  1.4418
 1011TIP3   OH224447   3.825   2.158   2.875 -0.2291  0.1535  0.2415
 1011TIP3    H124448   3.889   2.152   2.804 -1.5868 -1.3505 -0.9269
 1011TIP3    H224449   3.876   2.189   2.950  2.4982 -3.1987  0.0415
 1012TIP3   OH224450   1.559   6.554   4.566 -0.0084  0.0325 -0.0117
 1012TIP3    H124451   1.609   6.505   4.631 -0.7242 -1.2359 -0.3836
 1012TIP3    H224452   1.505   6.614   4.617  2.2541  1.8651  0.3859
 1013TIP3   OH224453   0.846   0.084  13.875  0.1265  0.1586  0.0497
 1013TIP3    H124454   0.928   0.096  13.922  0.8866  1.4482 -1.4889
 1013TIP3    H224455   0.783   0.138  13.923  0.5007  0.2225  0.4765
 1014TIP3   OH224456   3.220   6.235  14.235  0.4627  0.0277 -0.0692
 1014TIP3    H124457   3.184   6.321  14.257 -0.6480 -0.5455  0.4517
 1014TIP3    H224458   3.204   6.226  14.141 -0.0664  0.1041  0.0075
 1015TIP3   OH224459   4.812   5.456  16.756  0.0879 -0.6614  0.0468
 1015TIP3    H124460   4.870   5.510  16.702  1.9897 -3.0651 -0.5031
 1015TIP3    H224461   4.861   5.442  16.838  0.1188 -2.2845 -0.2086
 1016TIP3   OH224462   6.306   5.093   3.091 -0.0933  0.2761  0.2244
 1016TIP3    H124463   6.260   5.101   3.007  2.8913  0.0547 -1.6029
 1016TIP3    H224464   6.318   4.999   3.103 -1.9059  0.1831  1.8538
 1017TIP3   OH224465   6.237   2.496   6.344  0.1674 -0.2810  0.5392
 1017TIP3    H124466   6.178   2.429   6.309 -0.2470  0.6430 -0.6250
 1017TIP3    H224467   6.324   2.457   6.338 -0.2604 -1.5892  2.0935
 1018TIP3   OH224468   4.555   5.431   4.978  0.5047  0.0119 -0.2448
 1018TIP3    H124469   4.555   5.340   5.007  0.8670  0.0730 -0.0474
 1018TIP3    H224470   4.514   5.429   4.892 -1.4497 -0.0480  0.6352
 1019TIP3   OH224471   5.260   2.753  16.972  0.5631  0.0913  0.1340
 1019TIP3    H124472   5.280   2.801  17.053  0.5657  0.4535 -0.0789
 1019TIP3    H224473   5.179   2.706  16.992 -0.4555  1.6130 -0.2365
 1020TIP3   OH224474   4.148   5.351  16.590 -0.1748  0.2915 -0.0419
 1020TIP3    H124475   4.194   5.431  16.617  1.9333 -0.9326  0.1566
 1020TIP3    H224476   4.179   5.284  16.649 -0.9096 -0.9690 -1.0342
 1021TIP3   OH224477   5.458   4.095   5.398 -0.4075 -0.0259 -0.9431
 1021TIP3    H124478   5.553   4.088   5.404 -0.5425 -0.5596  1.5613
 1021TIP3    H224479   5.435   4.161   5.464 -1.8976 -1.2318 -0.2068
 1022TIP3   OH224480   5.694   0.117  15.182  0.2311 -0.1014  0.3073
 1022TIP3    H124481   5.783   0.101  15.151 -0.1063  0.3979 -0.9726
 1022TIP3    H224482   5.644   0.042  15.151 -0.3947  1.0461 -1.6810
 1023TIP3   OH224483   3.321   0.013  13.968  0.5827 -0.0605 -0.7388
 1023TIP3    H124484   3.390  -0.016  13.908 -0.5448  0.0745 -2.1627
 1023TIP3    H224485   3.336   0.106  13.979  2.4490 -0.5345  1.4870
 1024TIP3   OH224486   2.858   2.104   0.587  0.5014 -0.0658 -0.0665
 1024TIP3    H124487   2.837   2.196   0.574  0.8308  0.1262  0.6925
 1024TIP3    H224488   2.786   2.070   0.639 -0.6020 -0.7269 -1.9363
 1025TIP3   OH224489   6.091   2.385  12.961  0.5920 -0.0461  0.1844
 1025TIP3    H124490   6.107   2.346  12.875  2.8157  0.2646  0.3999
 1025TIP3    H224491   6.169   2.361  13.012 -0.3964  0.3158  1.9179
 1026TIP3   OH224492   1.291   0.230   2.383  0.5873  0.5579  0.3314
 1026TIP3    H124493   1.312   0.195   2.297 -0.1627  1.7981 -0.3939
 1026TIP3    H224494   1.197   0.248   2.379  0.6394  1.0938  1.2403
 1027TIP3   OH224495   3.883   4.710  17.034  0.7324  0.4993  0.4482
 1027TIP3    H124496   3.904   4.647  17.103  0.6350  1.7504  1.6680
 1027TIP3    H224497   3.788   4.709  17.028  0.6066  1.8623  1.8057
 1028TIP3   OH224498   5.684   1.263  14.642  0.3997  0.1596  0.3739
 1028TIP3    H124499   5.658   1.280  14.732 -2.7235  0.0345 -0.3933
 1028TIP3    H224500   5.640   1.180  14.620 -0.7773  1.2974 -1.8886
 1029TIP3   OH224501   4.363   5.660   4.841 -0.4416 -0.4430 -0.2205
 1029TIP3    H124502   4.412   5.704   4.772 -1.1156  1.0819  0.2332
 1029TIP3    H224503   4.390   5.704   4.922 -0.7482 -1.2176  0.3215
 1030TIP3   OH224504   3.539   0.191   5.203 -0.1271  0.2609  0.1033
 1030TIP3    H124505   3.489   0.252   5.258 -0.3349  1.3160 -1.1822
 1030TIP3    H224506   3.479   0.118   5.187 -0.7055  0.7756 -0.1371
 1031TIP3   OH224507   4.845   2.173  16.757  0.1845 -0.3874  0.1276
 1031TIP3    H124508   4.855   2.105  16.691 -0.3654 -1.1924  0.8660
 1031TIP3    H224509   4.835   2.254  16.706 -3.1491 -1.3062 -0.9065
 1032TIP3   OH224510   3.601   4.551  11.094  0.0654  0.5316 -0.6471
 1032TIP3    H124511   3.620   4.464  11.130 -1.7525  0.3688  0.0067
 1032TIP3    H224512   3.684   4.580  11.057  1.1083 -0.8107  0.5407
 1033TIP3   OH224513   2.722   4.397  12.715 -0.3146  0.1415 -0.0002
 1033TIP3    H124514   2.747   4.307  12.735 -1.8001 -0.0369  1.2758
 1033TIP3    H224515   2.780   4.451  12.768 -0.7557 -0.1606  0.8122
 1034TIP3   OH224516   6.671   2.694   1.841  0.3021  0.0300 -0.3638
 1034TIP3    H124517   6.618   2.683   1.920  0.4344  0.1923 -0.2509
 1034TIP3    H224518   6.614   2.667   1.770  0.1857 -0.1335 -0.2108
 1035TIP3   OH224519   0.177   1.435  10.908 -0.5715  0.0005 -0.2189
 1035TIP3    H124520   0.210   1.493  10.840 -1.9455  0.0665 -0.8620
 1035TIP3    H224521   0.103   1.482  10.946  0.1792 -0.0367  1.3469
 1036TIP3   OH224522   5.324   4.289   5.605 -0.0025  0.2747  0.2987
 1036TIP3    H124523   5.270   4.214   5.579  1.0801 -0.5054  0.1994
 1036TIP3    H224524   5.328   4.284   5.700 -0.3371  0.4990  0.3243
 1037TIP3   OH224525   0.696   4.256   1.445  0.2029  0.1437  0.6479
 1037TIP3    H124526   0.742   4.220   1.520 -0.7163  1.6395  1.9851
 1037TIP3    H224527   0.620   4.300   1.482  0.0478  1.4433 -1.0928
 1038TIP3   OH224528   0.033   0.895   2.014 -0.2674 -0.4352  0.1478
 1038TIP3    H124529   0.021   0.824   2.077 -0.9590 -1.0401 -0.6414
 1038TIP3    H224530  -0.015   0.867   1.936 -1.4178  1.3359  0.1463
 1039TIP3   OH224531   3.084   3.623  13.742  0.0139 -0.1772 -0.2502
 1039TIP3    H124532   3.032   3.576  13.807  1.3522 -0.8589  0.3508
 1039TIP3    H224533   3.049   3.594  13.658 -0.0582 -1.2225  0.1333
 1040TIP3   OH224534   2.642   2.022  16.449  0.2797  0.1135 -0.9646
 1040TIP3    H124535   2.653   1.936  16.408  1.1296 -1.7261  2.7208
 1040TIP3    H224536   2.728   2.063  16.441  0.9052 -0.8918  0.1679
 1041TIP3   OH224537   1.597   6.786  11.113 -0.5688  0.0745 -0.2568
 1041TIP3    H124538   1.585   6.849  11.042  1.6152  0.9585  0.0861
 1041TIP3    H224539   1.659   6.722  11.078 -0.3820 -0.1457  0.4569
 1042TIP3   OH224540   2.854   5.355  16.986  0.2496 -0.1239 -0.0220
 1042TIP3    H124541   2.773   5.312  16.959 -0.1442  0.7592 -0.2514
 1042TIP3    H224542   2.914   5.341  16.912  0.1473 -0.3156 -0.0686
 1043TIP3   OH224543   2.031   6.746   3.375  0.2299  0.4697 -0.2119
 1043TIP3    H124544   1.996   6.660   3.394  0.4755  0.3471 -0.3069
 1043TIP3    H224545   1.955   6.805   3.379  0.0246  0.2164 -0.3691
 1044TIP3   OH224546   3.211   3.945  15.971  0.0023  0.1620  0.2056
 1044TIP3    H124547   3.234   4.037  15.985 -1.7224  0.6722 -0.1083
 1044TIP3    H224548   3.159   3.946  15.891 -0.6672 -0.9828  0.6108
 1045TIP3   OH224549   4.283   5.322   4.788 -0.2220 -0.2669  0.7198
 1045TIP3    H124550   4.362   5.371   4.766 -0.8824  0.1286 -0.9106
 1045TIP3    H224551   4.224   5.338   4.715 -0.8660 -2.6278  0.6472
 1046TIP3   OH224552   0.868   3.856  15.006 -0.2096 -0.0605  0.6771
 1046TIP3    H124553   0.951   3.896  14.978 -1.3481  1.3830 -0.8218
 1046TIP3    H224554   0.838   3.808  14.929 -1.5675  0.8281  0.6229
 1047TIP3   OH224555   4.712   0.465  12.773 -0.0134 -0.8524 -0.0483
 1047TIP3    H124556   4.698   0.557  12.798 -0.8453 -1.2370  0.9853
 1047TIP3    H224557   4.768   0.430  12.842 -0.9998 -1.5125  0.4508
 1048TIP3   OH224558   5.657   4.986  14.759  0.2813  0.2297 -0.0182
 1048TIP3    H124559   5.690   5.068  14.796 -0.0781  0.5301 -0.3550
 1048TIP3    H224560   5.690   4.986  14.669 -0.5005  0.4568 -0.3100
 1049TIP3   OH224561   5.871   4.704   1.376 -0.8541  0.4366 -0.3511
 1049TIP3    H124562   5.863   4.752   1.458 -1.7899  0.0481 -0.2041
 1049TIP3    H224563   5.943   4.643   1.391 -0.5833  0.8236 -0.0546
 1050TIP3   OH224564   6.477   2.475  13.341  0.3748 -0.7154 -0.0821
 1050TIP3    H124565   6.476   2.556  13.393 -2.4341 -1.3855  1.0773
 1050TIP3    H224566   6.529   2.414  13.393 -0.8978 -0.8353  1.0878
 1051TIP3   OH224567   6.386   2.852  17.029 -0.4445 -0.4910  0.0373
 1051TIP3    H124568   6.319   2.906  17.070 -2.8990 -2.0232 -1.6048
 1051TIP3    H224569   6.425   2.802  17.101  1.0880  2.4638  1.4111
 1052TIP3   OH224570   5.092   2.276  12.437 -0.0750 -0.2286  0.2096
 1052TIP3    H124571   5.040   2.201  12.411 -0.6962 -0.0337  0.8325
 1052TIP3    H224572   5.029   2.347  12.449  0.2220 -0.1574  1.6300
 1053TIP3   OH224573   4.210   3.728   4.567  0.1562  0.1629 -0.1859
 1053TIP3    H124574   4.155   3.780   4.509  0.0948 -0.3026 -0.5553
 1053TIP3    H224575   4.299   3.746   4.539  0.1580  0.3899 -0.0377
 1054TIP3   OH224576   5.243   6.463   4.273  0.1127 -0.1809  0.1506
 1054TIP3    H124577   5.304   6.399   4.235 -0.5830 -0.7289 -0.0798
 1054TIP3    H224578   5.290   6.546   4.268 -0.8758  0.4029 -4.5422
 1055TIP3   OH224579   1.519   3.948   5.358  0.3862  0.2339  0.0734
 1055TIP3    H124580   1.467   4.027   5.346  0.2776  0.0912 -0.4374
 1055TIP3    H224581   1.502   3.896   5.279  0.0176 -0.5462  0.6483
 1056TIP3   OH224582   2.738   4.488  12.462  0.2995  0.4312  0.4308
 1056TIP3    H124583   2.712   4.421  12.526  1.1247 -0.3366 -0.0186
 1056TIP3    H224584   2.825   4.461  12.432 -0.4963  0.1606 -1.8186
 1057TIP3   OH224585   5.883   0.539  13.198  0.5719  0.8308  0.0750
 1057TIP3    H124586   5.946   0.582  13.140  1.2446  1.3405  1.1477
 1057TIP3    H224587   5.879   0.449  13.167  1.5828  0.8731 -0.2144
 1058TIP3   OH224588   5.109   4.231   5.201 -0.0427  0.0156  0.4717
 1058TIP3    H124589   5.177   4.189   5.254 -0.1311  0.7464  1.1837
 1058TIP3    H224590   5.134   4.323   5.199 -0.0189 -0.0044 -0.8208
 1059TIP3   OH224591   1.974   5.282   1.835 -0.1954 -0.2588 -0.4763
 1059TIP3    H124592   1.913   5.321   1.771  0.1448  0.2049 -0.5209
 1059TIP3    H224593   1.955   5.188   1.831 -1.5492 -0.0463  0.1656
 1060TIP3   OH224594   2.751   6.369  15.302  0.6669  0.2021  0.1510
 1060TIP3    H124595   2.665   6.346  15.336  0.2989  1.5524  0.1571
 1060TIP3    H224596   2.790   6.424  15.370  1.3946 -0.0821 -0.0232
 1061TIP3   OH224597   3.229   0.489   5.951 -0.0681  0.2728  0.2024
 1061TIP3    H124598   3.165   0.446   6.008 -1.4596  1.5851 -0.3095
 1061TIP3    H224599   3.314   0.461   5.985 -0.8731 -0.1283  1.9899
 1062TIP3   OH224600   0.078   5.497  13.010 -0.1238 -0.2580 -0.3667
 1062TIP3    H124601   0.001   5.551  13.029 -0.0129  0.4225 -1.7567
 1062TIP3    H224602   0.152   5.553  13.033 -0.0241 -0.2993 -0.5868
 1063TIP3   OH224603   5.915   1.668  13.507 -0.4026  0.2536 -0.1216
 1063TIP3    H124604   5.964   1.586  13.503  0.5519  0.6920  1.7540
 1063TIP3    H224605   5.980   1.735  13.529 -1.6825  0.9687  1.7201
 1064TIP3   OH224606   2.630   6.659   1.485  0.0589  0.4623 -0.3442
 1064TIP3    H124607   2.713   6.664   1.531 -0.3487 -0.1125  0.4902
 1064TIP3    H224608   2.565   6.641   1.554 -0.5623 -0.4752 -1.1307
 1065TIP3   OH224609   2.157   3.147   3.606 -0.1092  0.0503  0.1250
 1065TIP3    H124610   2.112   3.160   3.689 -1.8233  0.0824 -0.7583
 1065TIP3    H224611   2.113   3.206   3.545  2.7831  1.9703 -0.3050
 1066TIP3   OH224612   4.861   1.790   1.505  0.0178 -0.4649 -0.4729
 1066TIP3    H124613   4.849   1.739   1.585  0.0023  0.9300  0.4502
 1066TIP3    H224614   4.956   1.803   1.499 -0.1182  1.2800  0.5603
 1067TIP3   OH224615   4.037   0.451  16.186 -0.2303  0.1695 -0.0747
 1067TIP3    H124616   3.990   0.394  16.247 -1.7345  1.2131 -0.2135
 1067TIP3    H224617   3.970   0.510  16.152  0.9107  0.7242 -1.4505
 1068TIP3   OH224618   0.205   3.808   2.178  0.3894 -0.3448 -0.5461
 1068TIP3    H124619   0.182   3.733   2.124  0.3824 -0.2350 -0.6953
 1068TIP3    H224620   0.129   3.822   2.235  1.4862 -2.2910  1.5695
 1069TIP3   OH224621   0.460   3.286   0.338  0.1484 -0.0408  0.1315
 1069TIP3    H124622   0.371   3.253   0.325  0.5418 -0.5192 -1.5848
 1069TIP3    H224623   0.448   3.377   0.365 -0.8575 -0.2053  0.2937
 1070TIP3   OH224624   6.600   0.140  13.014  0.0252  0.3812 -0.1014
 1070TIP3    H124625   6.593   0.193  12.935 -0.9747 -0.7083 -0.7752
 1070TIP3    H224626   6.626   0.202  13.082  1.8415  1.1611 -1.4435
 1071TIP3   OH224627   0.958   1.070  12.306  0.5828  0.0099  0.1772
 1071TIP3    H124628   0.933   1.012  12.234  0.3945  0.1400  0.1382
 1071TIP3    H224629   0.905   1.040  12.380 -2.0838  2.2820 -0.6806
 1072TIP3   OH224630   3.360   0.840   3.981  0.3224 -0.0477  0.2052
 1072TIP3    H124631   3.287   0.791   3.942 -1.9831  1.9476  1.7167
 1072TIP3    H224632   3.386   0.903   3.914  0.2211 -0.3187 -0.0918
 1073TIP3   OH224633   0.131   4.273  11.872  0.3799  0.3058 -0.5963
 1073TIP3    H124634   0.111   4.180  11.880  0.6621  0.0980 -2.1309
 1073TIP3    H224635   0.222   4.275  11.841 -0.0644  1.0435 -1.9189
 1074TIP3   OH224636   1.161   1.164   3.787  0.0120 -0.8898  0.2483
 1074TIP3    H124637   1.087   1.175   3.728  0.9202  0.4640 -0.6816
 1074TIP3    H224638   1.238   1.173   3.732  0.8828 -0.8760  1.4226
 1075TIP3   OH224639   5.760   0.705  15.396  0.5179  0.2020  0.2674
 1075TIP3    H124640   5.816   0.676  15.325  0.0762 -0.8670  0.3477
 1075TIP3    H224641   5.807   0.679  15.476  1.1024  1.5587  0.4012
 1076TIP3   OH224642   0.294   0.125   3.227  0.1699 -0.0844  0.1803
 1076TIP3    H124643   0.336   0.199   3.184  0.9634 -0.8337 -0.3591
 1076TIP3    H224644   0.332   0.123   3.314 -0.6755  0.8040  0.5917
 1077TIP3   OH224645   0.199   2.871   4.951 -0.2732  0.3887  0.3138
 1077TIP3    H124646   0.187   2.819   5.031 -0.8647  0.1337  0.0653
 1077TIP3    H224647   0.128   2.935   4.954 -0.3972  0.2698 -0.0897
 1078TIP3   OH224648   6.791   3.700  10.625  0.0723 -0.1527 -0.3397
 1078TIP3    H124649   6.696   3.706  10.620 -0.0285 -1.1371  0.0779
 1078TIP3    H224650   6.808   3.608  10.646  1.0788  0.2148  0.5380
 1079TIP3   OH224651   6.022   0.304   2.209  0.0826  0.0677 -0.0031
 1079TIP3    H124652   5.946   0.350   2.176 -0.1627  0.3849  0.9718
 1079TIP3    H224653   6.018   0.217   2.168  0.4584  0.8218 -1.7118
 1080TIP3   OH224654   2.885   3.178  16.793 -0.2590 -0.0272 -0.1621
 1080TIP3    H124655   2.858   3.269  16.804  0.0944  0.1095 -0.4025
 1080TIP3    H224656   2.861   3.156  16.703 -0.8563 -0.3505  0.0720
 1081TIP3   OH224657   4.538   3.310  16.906 -0.1931 -0.2108 -0.7035
 1081TIP3    H124658   4.567   3.255  16.979  1.0993  0.5074 -0.6497
 1081TIP3    H224659   4.504   3.390  16.948  1.4587  0.6262 -0.8749
 1082TIP3   OH224660   6.394   0.346  13.113 -0.2480 -0.3956 -1.0364
 1082TIP3    H124661   6.393   0.431  13.068 -0.3704  1.0210  1.4305
 1082TIP3    H224662   6.314   0.303  13.085 -1.2334  1.2121 -0.8221
 1083TIP3   OH224663   5.311   6.679  15.955  0.4900  0.8397  0.8430
 1083TIP3    H124664   5.351   6.601  15.994  0.5359  0.5188  0.1663
 1083TIP3    H224665   5.339   6.751  16.012  1.7431  0.5739  0.5985
 1084TIP3   OH224666   2.204   5.302  17.247 -0.3574 -0.0298 -0.4402
 1084TIP3    H124667   2.270   5.290  17.315 -0.9814 -1.0771 -0.0007
 1084TIP3    H224668   2.136   5.355  17.288 -0.2578  0.2256 -0.5955
 1085TIP3   OH224669   5.744   5.968  11.646 -0.7858 -0.0502 -0.3581
 1085TIP3    H124670   5.775   5.941  11.559 -0.1467  1.1646 -0.5329
 1085TIP3    H224671   5.789   6.051  11.663 -0.8423 -0.3035  1.1776
 1086TIP3   OH224672   4.900   0.416   4.021  0.1367  0.1910  0.2630
 1086TIP3    H124673   4.980   0.373   3.993 -0.5329 -0.8172 -0.1661
 1086TIP3    H224674   4.833   0.348   4.015 -1.2172  1.5646 -1.6649
 1087TIP3   OH224675   2.173   5.211  13.958 -0.1951 -0.1272 -0.0159
 1087TIP3    H124676   2.242   5.274  13.981 -0.5820  0.9607 -1.6464
 1087TIP3    H224677   2.216   5.126  13.963  1.0639  0.4689 -0.2299
 1088TIP3   OH224678   3.308   0.537   2.050  0.5085  0.4888  0.4625
 1088TIP3    H124679   3.394   0.539   2.008  0.2196  2.8833 -0.1566
 1088TIP3    H224680   3.250   0.580   1.987 -1.5678 -2.4491  0.1455
 1089TIP3   OH224681   1.166   3.879  11.033 -0.3234  0.5376  0.1516
 1089TIP3    H124682   1.230   3.873  10.961 -0.2531 -0.2513  0.2679
 1089TIP3    H224683   1.180   3.799  11.084 -0.5585  0.9627  0.8957
 1090TIP3   OH224684   0.557   2.220   4.676 -0.2064 -0.0708 -0.3374
 1090TIP3    H124685   0.592   2.280   4.742 -0.3880 -0.5085  0.1720
 1090TIP3    H224686   0.480   2.182   4.718 -1.4726  1.0769 -1.5430
 1091TIP3   OH224687   1.999   0.617  16.881  0.2179 -0.9734  0.3472
 1091TIP3    H124688   1.931   0.550  16.891  0.8870 -1.8205 -0.6035
 1091TIP3    H224689   2.070   0.587  16.938  0.9325 -1.6497 -0.8709
 1092TIP3   OH224690   5.959   3.143   5.531 -0.2903  0.4163 -0.1603
 1092TIP3    H124691   5.937   3.129   5.439 -0.6129  0.8236 -0.1463
 1092TIP3    H224692   6.009   3.065   5.555  0.7721  0.8005 -0.9872
 1093TIP3   OH224693   0.763   0.681  12.195  0.6832  0.0144 -0.1966
 1093TIP3    H124694   0.847   0.722  12.177 -0.9832  3.2749 -1.3524
 1093TIP3    H224695   0.765   0.600  12.144  3.1887 -0.1946  0.1019
 1094TIP3   OH224696   1.285   6.313   5.268 -0.0677  0.5117 -0.0645
 1094TIP3    H124697   1.294   6.404   5.298  0.5748  0.2819  0.4723
 1094TIP3    H224698   1.360   6.268   5.307  0.9986  0.2485 -2.2285
 1095TIP3   OH224699   3.923   1.399  16.471 -0.4793  0.3388  0.2863
 1095TIP3    H124700   3.936   1.485  16.511 -1.4689 -0.3559  2.1782
 1095TIP3    H224701   3.835   1.403  16.433 -0.2168  0.3943 -0.3458
 1096TIP3   OH224702   1.062   2.046   0.030  0.1759 -0.6793 -0.3533
 1096TIP3    H124703   1.117   2.005  -0.037  0.8068  0.7282 -0.7406
 1096TIP3    H224704   1.124   2.073   0.098  0.0614  1.0764 -0.8708
 1097TIP3   OH224705   4.011   1.385  13.907  0.2221 -0.1789  0.5958
 1097TIP3    H124706   3.973   1.300  13.928 -0.3189  0.1963  1.1573
 1097TIP3    H224707   3.948   1.449  13.939  0.7855  0.4438  0.4972
 1098TIP3   OH224708   2.000   1.802  16.043 -0.2370 -0.0053 -0.1823
 1098TIP3    H124709   1.948   1.845  16.111  1.2512 -0.8907  1.6027
 1098TIP3    H224710   1.974   1.710  16.048 -0.8070  0.0523 -1.5284
 1099TIP3   OH224711   2.564   0.336   0.856 -0.5901 -0.2743 -0.2556
 1099TIP3    H124712   2.611   0.351   0.938  0.1826  0.5993 -0.8363
 1099TIP3    H224713   2.479   0.301   0.883  0.1784 -1.3643  0.8436
 1100TIP3   OH224714   3.865   6.491   5.643 -0.4682 -0.4228 -0.0321
 1100TIP3    H124715   3.893   6.431   5.574 -0.8390 -0.6098 -0.0216
 1100TIP3    H224716   3.771   6.505   5.627 -0.5212 -0.3395  0.3345
 1101TIP3   OH224717   4.848   6.686  14.196  0.1238  0.4942  0.0398
 1101TIP3    H124718   4.906   6.665  14.269 -1.3557 -0.4978  1.0047
 1101TIP3    H224719   4.808   6.769  14.221 -0.1128  0.3334  0.2095
 1102TIP3   OH224720   5.676   5.720   2.568  0.3545  0.1216  0.4375
 1102TIP3    H124721   5.757   5.754   2.529 -0.1318 -0.6076 -1.3216
 1102TIP3    H224722   5.701   5.636   2.605  0.4961  0.0941  0.2809
 1103TIP3   OH224723   3.090   6.379   2.963 -0.3714 -0.0202  0.4163
 1103TIP3    H124724   3.115   6.371   3.055 -2.4255 -0.8724  0.9513
 1103TIP3    H224725   3.075   6.473   2.951  0.2774  0.1462  0.8304
 1104TIP3   OH224726   3.622   2.131  12.467  0.2837  0.3534 -0.1009
 1104TIP3    H124727   3.657   2.213  12.502 -1.4169  0.5589  1.3070
 1104TIP3    H224728   3.620   2.072  12.543 -0.1244 -0.4011 -0.6881
 1105TIP3   OH224729   0.204   3.472  13.478 -0.2130 -0.5283  0.4196
 1105TIP3    H124730   0.198   3.402  13.413 -3.0819 -0.8801  0.9215
 1105TIP3    H224731   0.147   3.541  13.444  1.0471  0.7901  0.8817
 1106TIP3   OH224732   5.009   2.101  15.093  0.0573 -0.0158 -0.6388
 1106TIP3    H124733   4.927   2.051  15.088  0.2427 -0.5902  1.3094
 1106TIP3    H224734   4.982   2.188  15.124  0.3316 -0.8819  2.3123
 1107TIP3   OH224735   1.570   6.288  12.849 -0.3579  0.6610  0.2241
 1107TIP3    H124736   1.518   6.357  12.809  0.3393  0.7236 -0.6183
 1107TIP3    H224737   1.566   6.215  12.787  1.1793  0.9506 -0.2612
 1108TIP3   OH224738   4.625   3.297   4.624  1.0491 -0.1644  0.0146
 1108TIP3    H124739   4.542   3.255   4.646  0.5445 -0.3995 -2.1463
 1108TIP3    H224740   4.607   3.391   4.635  1.2982 -0.2999  1.9679
 1109TIP3   OH224741   6.782   1.197   2.950 -0.1254  0.1895 -0.3089
 1109TIP3    H124742   6.783   1.271   2.889  1.8573  0.9030  0.4962
 1109TIP3    H224743   6.776   1.238   3.037 -2.6918 -0.7951  0.0782
 1110TIP3   OH224744   5.722   2.073   0.761  0.8702  0.0549 -0.1223
 1110TIP3    H124745   5.781   2.088   0.834  1.4073  1.3887 -0.7978
 1110TIP3    H224746   5.737   2.147   0.702 -0.8169 -0.0592 -0.7543
 1111TIP3   OH224747   2.611   6.797  16.298 -0.0475  0.4597 -0.3897
 1111TIP3    H124748   2.523   6.832  16.287  0.2757  0.7107 -2.5881
 1111TIP3    H224749   2.606   6.707  16.267  0.4532  0.4290 -0.3982
 1112TIP3   OH224750   3.997   1.118  10.555 -0.3627  0.2365 -0.2204
 1112TIP3    H124751   3.962   1.161  10.477  2.5679  2.4831 -0.4469
 1112TIP3    H224752   4.040   1.039  10.523 -2.5523 -1.0432 -0.2581
 1113TIP3   OH224753   2.361   5.414  13.973  0.3581 -0.2063 -0.6471
 1113TIP3    H124754   2.453   5.415  13.998  0.2543 -0.9873 -0.1960
 1113TIP3    H224755   2.361   5.401  13.878  0.7352  1.8093 -0.9799
 1114TIP3   OH224756   5.910   5.709   0.034  0.4317 -0.3759  0.2721
 1114TIP3    H124757   5.966   5.778   0.069  0.6915  0.2504 -1.3065
 1114TIP3    H224758   5.968   5.655  -0.019 -0.1867 -0.5072 -0.2896
 1115TIP3   OH224759   3.041   0.319  11.765  0.1404 -0.0719  0.5153
 1115TIP3    H124760   2.960   0.306  11.716 -0.0079 -0.9834  0.9796
 1115TIP3    H224761   3.042   0.248  11.829 -0.2036  1.6949  2.5885
 1116TIP3   OH224762   5.258   6.098  15.982 -0.4344 -0.0539 -0.3778
 1116TIP3    H124763   5.321   6.044  15.935  1.9185  2.5553 -0.5069
 1116TIP3    H224764   5.294   6.107  16.070 -2.0042 -0.5527  0.3538
 1117TIP3   OH224765   4.106   0.236  13.191 -0.2995 -0.8615  0.3606
 1117TIP3    H124766   4.190   0.190  13.195  0.0917 -0.2382 -0.3499
 1117TIP3    H224767   4.085   0.255  13.282 -0.2074 -1.9564  0.6298
 1118TIP3   OH224768   2.311   3.042   2.318 -0.2691 -0.0825  0.1330
 1118TIP3    H124769   2.387   3.035   2.376 -0.7027  1.2096  0.8972
 1118TIP3    H224770   2.239   3.065   2.377 -1.0122 -0.1383 -0.7464
 1119TIP3   OH224771   1.724   2.979   1.372 -0.2719  0.1833  0.3141
 1119TIP3    H124772   1.748   2.891   1.400 -0.9585  0.2006  0.9663
 1119TIP3    H224773   1.645   2.966   1.318  0.2392  0.2942 -0.4779
 1120TIP3   OH224774   4.009   2.824  14.191 -0.5459  0.3386  0.2970
 1120TIP3    H124775   3.969   2.910  14.178 -0.3597  0.5621  1.1835
 1120TIP3    H224776   4.073   2.816  14.121 -0.5701  0.9170  0.2100
 1121TIP3   OH224777   1.583   0.548   0.972 -0.1398 -0.5448  0.8459
 1121TIP3    H124778   1.614   0.540   1.062 -0.0693  1.3056  1.0306
 1121TIP3    H224779   1.491   0.573   0.980  0.2726  1.2773  0.4968
 1122TIP3   OH224780   3.818   6.226   2.405  0.2601  0.4212  0.7014
 1122TIP3    H124781   3.740   6.243   2.458 -0.5116  1.7100 -0.7688
 1122TIP3    H224782   3.867   6.308   2.407  0.6207  0.2291  0.0712
 1123TIP3   OH224783   5.599   5.159   6.077  0.0113  0.0834 -0.4215
 1123TIP3    H124784   5.594   5.254   6.062  1.4342  0.3784  0.6738
 1123TIP3    H224785   5.669   5.150   6.142  0.7142 -1.8325 -1.4029
 1124TIP3   OH224786   1.517   1.228   4.174  0.5967 -0.5363 -0.3282
 1124TIP3    H124787   1.598   1.251   4.129 -0.1931  0.4583 -1.3023
 1124TIP3    H224788   1.542   1.220   4.266  2.0230 -1.4505 -0.7486
 1125TIP3   OH224789   5.668   3.479   0.461  0.2896 -0.4353  0.3812
 1125TIP3    H124790   5.586   3.494   0.508 -0.3262  1.4038 -1.1153
 1125TIP3    H224791   5.693   3.390   0.482  0.2446  0.3364  4.3913
 1126TIP3   OH224792   1.647   0.655  15.594 -0.2258  0.3607 -0.2788
 1126TIP3    H124793   1.690   0.711  15.529  0.9854  0.5434  0.6296
 1126TIP3    H224794   1.554   0.671  15.582  0.0493  1.8015 -0.7410
 1127TIP3   OH224795   4.127   6.345   6.510 -0.3398  0.3067  0.0183
 1127TIP3    H124796   4.115   6.417   6.571 -0.9875 -1.3311  1.9535
 1127TIP3    H224797   4.039   6.322   6.482 -0.0478  1.0609 -1.6396
 1128TIP3   OH224798   3.360   2.615  15.384  0.3778  0.5385 -0.1167
 1128TIP3    H124799   3.440   2.563  15.395 -0.6179 -1.1477 -0.4642
 1128TIP3    H224800   3.347   2.657  15.469  3.1127  3.1945 -0.8310
 1129TIP3   OH224801   5.910   4.060   3.939  0.1402  0.3319 -0.7857
 1129TIP3    H124802   5.839   4.043   3.878 -0.8779  0.7510  0.2388
 1129TIP3    H224803   5.974   4.110   3.889 -0.5440  0.4361 -1.5722
 1130TIP3   OH224804   1.230   1.746  12.705  0.0357  0.2294  0.4502
 1130TIP3    H124805   1.209   1.819  12.647 -0.3354 -0.7463 -0.6901
 1130TIP3    H224806   1.225   1.783  12.793 -0.3032  1.5290 -0.0907
 1131TIP3   OH224807   2.204   3.875  13.429 -0.0701 -0.0376  0.1763
 1131TIP3    H124808   2.248   3.926  13.497 -0.2905  2.0681 -1.1847
 1131TIP3    H224809   2.169   3.799  13.475  0.1964  1.0695  2.3256
 1132TIP3   OH224810   3.332   6.802   5.094  0.2787  0.5027  0.2982
 1132TIP3    H124811   3.239   6.808   5.072  0.4949  3.4655 -0.1644
 1132TIP3    H224812   3.377   6.805   5.010  0.8240  1.0634  0.5989
 1133TIP3   OH224813   4.178   0.975  14.921  0.1056 -0.5373  0.3104
 1133TIP3    H124814   4.224   0.910  14.868  1.9450  1.6345 -0.9045
 1133TIP3    H224815   4.208   0.958  15.010  1.6149 -0.5591 -0.1712
 1134TIP3   OH224816   2.965   3.341  12.944 -0.6886  0.1146 -0.6840
 1134TIP3    H124817   3.011   3.341  12.860 -0.3325  0.9582 -0.5017
 1134TIP3    H224818   2.907   3.417  12.938 -1.9419 -0.8149 -0.8350
 1135TIP3   OH224819   1.896   4.428  13.902 -0.3829 -0.2639  0.4426
 1135TIP3    H124820   1.925   4.464  13.986 -0.5759 -0.8525  0.7672
 1135TIP3    H224821   1.801   4.442  13.902 -0.3017  0.3292  0.0284
 1136TIP3   OH224822   5.952   6.542  13.718 -0.5581 -0.3586  0.1060
 1136TIP3    H124823   5.910   6.623  13.745  2.0152  0.8013  0.8693
 1136TIP3    H224824   6.032   6.569  13.673  0.2202 -2.4566  0.0938
 1137TIP3   OH224825   5.369   4.936  12.221 -0.7576 -1.1430  0.4644
 1137TIP3    H124826   5.427   4.877  12.173  1.1638  0.7304  0.2864
 1137TIP3    H224827   5.423   4.967  12.295 -2.6620 -1.7461  2.2004
 1138TIP3   OH224828   6.292   6.280  11.575 -0.0531 -0.0745  0.1901
 1138TIP3    H124829   6.339   6.240  11.502 -1.9489 -0.4617 -0.8837
 1138TIP3    H224830   6.242   6.351  11.535  0.6602  1.2490  1.5333
 1139TIP3   OH224831   0.585   0.093   5.237 -0.6313 -0.4011  0.7367
 1139TIP3    H124832   0.679   0.091   5.254 -0.5540  1.2298  0.7122
 1139TIP3    H224833   0.559   0.001   5.231  1.6327 -1.0022 -2.9193
 1140TIP3   OH224834   2.778   2.442   3.122  0.2110 -0.4889 -0.3035
 1140TIP3    H124835   2.790   2.496   3.044  0.0986 -0.6161 -0.4096
 1140TIP3    H224836   2.859   2.454   3.173  0.8473 -1.4271 -1.0631
 1141TIP3   OH224837   2.140   1.036  16.685 -0.6003 -0.0674 -0.1306
 1141TIP3    H124838   2.143   0.942  16.701  0.2946 -0.0997 -0.4177
 1141TIP3    H224839   2.211   1.052  16.622 -0.6875  0.8028 -0.0246
 1142TIP3   OH224840   2.061   5.861   4.492 -0.1856  0.1938 -0.6055
 1142TIP3    H124841   1.974   5.900   4.491 -0.0502  0.6584  1.5608
 1142TIP3    H224842   2.081   5.845   4.399 -2.3091  0.6056 -1.1912
 1143TIP3   OH224843   3.894   0.160  16.967  0.4851 -0.0411  0.6715
 1143TIP3    H124844   3.813   0.109  16.974  0.9088 -0.7991  0.1710
 1143TIP3    H224845   3.902   0.179  16.873  2.1795 -2.1510  0.3115
 1144TIP3   OH224846   5.338   1.422   2.653  0.9904 -0.0258 -0.3134
 1144TIP3    H124847   5.321   1.516   2.646  0.8154 -0.0673 -0.4643
 1144TIP3    H224848   5.348   1.406   2.747  1.4052  0.2100 -0.3161
 1145TIP3   OH224849   2.141   0.034   6.434  0.2074  0.1598 -1.1238
 1145TIP3    H124850   2.067   0.081   6.474  0.8342 -1.3709  2.2290
 1145TIP3    H224851   2.111  -0.056   6.427  1.6867 -0.5081  0.4040
 1146TIP3   OH224852   4.515   5.409  11.259  0.3929  0.5372 -0.2884
 1146TIP3    H124853   4.554   5.367  11.336 -1.5693  0.9692  1.0184
 1146TIP3    H224854   4.483   5.337  11.206  1.3069  0.2522 -0.4704
 1147TIP3   OH224855   1.481   3.869   1.675 -0.4916 -0.0910  0.4940
 1147TIP3    H124856   1.462   3.775   1.672  0.4383 -0.3851  2.3272
 1147TIP3    H224857   1.424   3.903   1.744  0.8686  0.2216  1.4966
 1148TIP3   OH224858   2.172   0.741   5.013 -0.1564  0.3808  0.8144
 1148TIP3    H124859   2.124   0.659   5.026 -1.2240  0.7742 -0.4681
 1148TIP3    H224860   2.240   0.718   4.949 -0.4935  0.5051  0.4095
 1149TIP3   OH224861   6.568   4.040  11.828 -0.0726 -0.2414  0.2340
 1149TIP3    H124862   6.488   4.049  11.880 -0.9164 -0.5061 -0.9840
 1149TIP3    H224863   6.608   3.960  11.860 -0.0363  0.1370  1.1747
 1150TIP3   OH224864   3.118   2.845   0.231  0.2515 -0.2170  0.5117
 1150TIP3    H124865   3.028   2.837   0.263 -0.0256 -0.0679 -0.2145
 1150TIP3    H224866   3.126   2.776   0.165 -0.0394  1.1207 -0.9991
 1151TIP3   OH224867   0.730   3.112  11.210  0.7433  0.1342 -0.5914
 1151TIP3    H124868   0.694   3.081  11.127  1.7202 -1.9085 -0.2984
 1151TIP3    H224869   0.814   3.153  11.186  0.0890  1.4255 -0.8065
 1152TIP3   OH224870   3.981   2.282   4.388 -0.4115 -0.0416 -0.6181
 1152TIP3    H124871   4.061   2.333   4.374 -0.1661  0.0697  0.9657
 1152TIP3    H224872   3.931   2.334   4.451 -1.2357 -0.6367 -0.7701
 1153TIP3   OH224873   0.992   6.772   2.015  0.3247  0.7669  0.0517
 1153TIP3    H124874   1.035   6.815   2.089  2.0265 -1.0446  0.1928
 1153TIP3    H224875   0.925   6.718   2.055  1.0650 -0.0034  0.2802
 1154TIP3   OH224876   3.988   5.017   3.625  0.0012  0.2231 -0.0150
 1154TIP3    H124877   3.972   5.107   3.597 -1.1697  0.1841  0.4585
 1154TIP3    H224878   4.076   4.997   3.594  0.1008  1.3771 -0.5169
 1155TIP3   OH224879   5.167   2.130   4.620 -0.5523 -0.2324  0.1643
 1155TIP3    H124880   5.234   2.067   4.593 -0.6026 -0.7834  1.2553
 1155TIP3    H224881   5.170   2.198   4.553  2.0977  0.4769  0.8495
 1156TIP3   OH224882   4.836   2.263  14.571  0.1733 -0.2166 -0.3843
 1156TIP3    H124883   4.925   2.290  14.593 -0.6582  2.0113  0.5414
 1156TIP3    H224884   4.817   2.191  14.631  0.2037  1.5594  1.8989
 1157TIP3   OH224885   2.848   4.132   4.095 -0.6743 -0.1414  0.1898
 1157TIP3    H124886   2.852   4.185   4.175  1.1302  0.0904 -0.0048
 1157TIP3    H224887   2.755   4.114   4.083 -1.4509  3.0922  0.1940
 1158TIP3   OH224888   3.682   5.196  12.348 -0.1322  0.0589  0.5723
 1158TIP3    H124889   3.718   5.275  12.388  0.6240  0.1976 -0.3320
 1158TIP3    H224890   3.618   5.164  12.411  0.1185  0.9535  1.3074
 1159TIP3   OH224891   4.324   4.505   4.559  0.4979 -0.0341  0.0392
 1159TIP3    H124892   4.249   4.565   4.556  0.3335 -0.2623 -1.0990
 1159TIP3    H224893   4.324   4.471   4.648 -0.8860 -0.1888  0.0030
 1160TIP3   OH224894   2.264   6.204  15.054  0.0945  0.0914  0.5021
 1160TIP3    H124895   2.272   6.237  14.964 -1.1985  0.5452  0.5248
 1160TIP3    H224896   2.335   6.140  15.063  1.6642  1.6772 -0.0886
 1161TIP3   OH224897   5.633   2.972  13.103 -0.1023  0.6363 -0.6120
 1161TIP3    H124898   5.590   3.055  13.126 -1.7333  0.3857 -2.5130
 1161TIP3    H224899   5.694   2.995  13.033  1.7153  0.6906  0.9235
 1162TIP3   OH224900   2.282   0.680   5.431 -0.0868 -0.5531  0.1190
 1162TIP3    H124901   2.210   0.711   5.377  0.2749  1.5336  0.7444
 1162TIP3    H224902   2.355   0.739   5.411  1.4901 -2.5781 -0.4704
 1163TIP3   OH224903   4.346   1.294   4.555 -0.4118  0.5815  0.2778
 1163TIP3    H124904   4.386   1.312   4.640  0.3928  0.6778 -0.1105
 1163TIP3    H224905   4.391   1.353   4.494  0.2640 -0.7226 -0.5159
 1164TIP3   OH224906   0.069   1.580   0.137  0.2972  0.0916 -0.2469
 1164TIP3    H124907  -0.008   1.616   0.094 -0.5312 -2.4068 -0.9807
 1164TIP3    H224908   0.137   1.646   0.123 -0.9439  1.0531 -2.0797
 1165TIP3   OH224909   2.605   0.096   1.758 -0.4954 -0.5140 -0.4643
 1165TIP3    H124910   2.510   0.100   1.752 -0.4491 -0.9197 -1.8476
 1165TIP3    H224911   2.631   0.181   1.792 -1.2912  0.0006 -1.1019
 1166TIP3   OH224912   0.547   6.769  12.188  0.2611  0.3679  0.4490
 1166TIP3    H124913   0.618   6.722  12.144 -0.9131 -0.7107 -0.3501
 1166TIP3    H224914   0.548   6.856  12.149 -2.0889 -1.1306 -3.5110
 1167TIP3   OH224915   4.223   6.551  11.605  0.3863 -0.3916 -0.3385
 1167TIP3    H124916   4.247   6.582  11.518  0.2914  0.4543 -0.0744
 1167TIP3    H224917   4.135   6.515  11.595  1.9364 -4.3765 -1.5193
 1168TIP3   OH224918   5.448   3.867   5.602 -0.2340  0.3455  0.2428
 1168TIP3    H124919   5.414   3.886   5.690  0.9874  1.7402  0.4407
 1168TIP3    H224920   5.442   3.950   5.555  2.0916  0.4515  0.0324
 1169TIP3   OH224921   5.562   0.733   4.559 -0.9497 -0.1805 -0.0948
 1169TIP3    H124922   5.648   0.705   4.526  0.6932 -0.1648  3.6581
 1169TIP3    H224923   5.550   0.821   4.522  1.6980  0.6523  0.7623
 1170TIP3   OH224924   0.710   1.906   1.176 -0.2585 -0.6165  0.2819
 1170TIP3    H124925   0.789   1.906   1.120 -1.0568  1.1371 -0.9527
 1170TIP3    H224926   0.672   1.992   1.162 -1.7227 -0.9607  1.8777
 1171TIP3   OH224927   6.222   3.175  10.642 -0.2608 -0.4593  0.2925
 1171TIP3    H124928   6.152   3.211  10.697  1.1489  0.5231  1.5339
 1171TIP3    H224929   6.214   3.080  10.651 -1.3024 -0.3650  0.5360
 1172TIP3   OH224930   0.434   4.997   0.276 -0.0228  0.8883  0.3622
 1172TIP3    H124931   0.400   5.025   0.191  2.6778  0.2096 -1.0891
 1172TIP3    H224932   0.412   5.069   0.336 -0.8823  1.9983 -1.2016
 1173TIP3   OH224933   1.662   2.712   1.004  0.1528  0.4984  0.1159
 1173TIP3    H124934   1.735   2.763   1.038  0.2155  0.4191  0.1004
 1173TIP3    H224935   1.690   2.684   0.917 -0.0220  0.7327 -0.0168
 1174TIP3   OH224936   0.769   2.460   3.181 -0.1111 -0.3977  0.6155
 1174TIP3    H124937   0.785   2.514   3.104 -1.4862  0.5269  0.9429
 1174TIP3    H224938   0.810   2.508   3.253 -1.4696  0.3608  0.9328
 1175TIP3   OH224939   6.633   2.898   2.866  0.5391  0.2236 -0.0941
 1175TIP3    H124940   6.727   2.917   2.864  0.1574  2.4567  0.0238
 1175TIP3    H224941   6.610   2.903   2.959 -0.1134  2.3857 -0.3139
 1176TIP3   OH224942   6.366   3.010   2.824  0.8710  1.0505 -0.4073
 1176TIP3    H124943   6.363   3.024   2.919  1.6057  1.8042 -0.4785
 1176TIP3    H224944   6.430   2.941   2.812  0.6219  0.8052 -0.3491
 1177TIP3   OH224945   5.745   5.296   5.732  0.5450  0.3350  0.8843
 1177TIP3    H124946   5.672   5.351   5.760 -1.0489 -0.8309 -0.7270
 1177TIP3    H224947   5.780   5.341   5.655  0.5210  0.1155  0.7444
 1178TIP3   OH224948   3.674   6.230  12.680  0.0499  0.1309 -0.1600
 1178TIP3    H124949   3.746   6.236  12.616 -0.4245  0.2734 -0.6882
 1178TIP3    H224950   3.717   6.207  12.762  0.4507 -2.4374 -1.0005
 1179TIP3   OH224951   2.390   2.742   1.721 -0.0107  0.6043 -0.0128
 1179TIP3    H124952   2.355   2.693   1.647  0.9623  0.8330 -0.6508
 1179TIP3    H224953   2.323   2.808   1.741 -0.5692  0.1135 -0.2507
 1180TIP3   OH224954   4.996   5.750  13.783  0.7228 -0.1635  0.0648
 1180TIP3    H124955   5.087   5.727  13.765  0.4382 -0.1089 -1.5348
 1180TIP3    H224956   4.948   5.669  13.771  0.2567  0.3252 -1.5363
 1181TIP3   OH224957   3.353   0.714  14.315  0.1836  0.1488  0.2458
 1181TIP3    H124958   3.281   0.774  14.299  1.0207  1.1897  0.3082
 1181TIP3    H224959   3.432   0.768  14.309  0.9720 -0.9882  0.0536
 1182TIP3   OH224960   2.702   3.720  14.955  0.1963  0.4118  0.5286
 1182TIP3    H124961   2.726   3.781  14.885 -1.9343  1.5193  0.6860
 1182TIP3    H224962   2.623   3.758  14.994  0.4276 -0.9987  2.5155
 1183TIP3   OH224963   4.511   1.082   1.723 -0.9219  0.0779  0.7865
 1183TIP3    H124964   4.457   1.121   1.655  0.7894 -1.1662 -1.4289
 1183TIP3    H224965   4.464   1.002   1.747 -0.1790 -1.0220 -1.1545
 1184TIP3   OH224966   0.789   1.066   6.608 -0.0714  0.1854  0.4683
 1184TIP3    H124967   0.838   1.117   6.673  0.4722 -0.6400  0.7179
 1184TIP3    H224968   0.771   1.129   6.538 -0.5571  1.0650  1.3378
 1185TIP3   OH224969   4.340   0.597  17.081 -0.0135 -0.7055 -0.7540
 1185TIP3    H124970   4.251   0.601  17.046  0.5386  0.2603 -2.1097
 1185TIP3    H224971   4.362   0.504  17.079 -1.0310 -0.9775 -0.2468
 1186TIP3   OH224972   0.297   2.169  17.175 -0.1316  0.4671 -0.1097
 1186TIP3    H124973   0.289   2.184  17.081 -1.3812  1.5176  0.1424
 1186TIP3    H224974   0.207   2.161  17.206  0.3087 -1.5078  0.7709
 1187TIP3   OH224975   2.569   2.379   4.482 -0.0143  0.4254 -0.5952
 1187TIP3    H124976   2.624   2.309   4.448  0.3141  0.0133  0.7274
 1187TIP3    H224977   2.513   2.404   4.408  0.2343 -0.8467 -1.2386
 1188TIP3   OH224978   4.082   4.139   6.430 -0.1131 -0.1209 -0.0092
 1188TIP3    H124979   4.121   4.122   6.344 -0.0088  0.5366 -0.0984
 1188TIP3    H224980   4.005   4.083   6.433 -0.2969  0.0860 -0.6674
 1189TIP3   OH224981   3.655   4.071   0.862 -0.4953  0.1405  0.1309
 1189TIP3    H124982   3.609   4.119   0.932  0.3114  0.5547  0.3880
 1189TIP3    H224983   3.620   3.982   0.867 -1.5681  0.5340  0.0549
 1190TIP3   OH224984   6.244   5.008   0.454 -0.1287 -0.3749 -0.4602
 1190TIP3    H124985   6.162   5.005   0.505 -1.3771 -0.3108 -2.3632
 1190TIP3    H224986   6.221   5.054   0.374  1.8124 -0.3261 -1.0386
 1191TIP3   OH224987   1.908   4.165   2.214  0.3908  0.1503 -0.0483
 1191TIP3    H124988   1.891   4.238   2.154 -1.3171 -0.6872 -0.6299
 1191TIP3    H224989   1.909   4.205   2.301 -1.3062  0.7879 -0.2837
 1192TIP3   OH224990   1.608   4.474  13.885  0.2615  0.6672  0.2604
 1192TIP3    H124991   1.584   4.383  13.865 -0.7060  0.9893 -0.0838
 1192TIP3    H224992   1.566   4.526  13.816  3.6642  1.1415 -1.7110
 1193TIP3   OH224993   3.311   1.636  11.401  0.4359 -0.4802  0.1802
 1193TIP3    H124994   3.339   1.715  11.446  0.1747 -1.1911  1.6327
 1193TIP3    H224995   3.260   1.668  11.326  0.3282  0.7198  0.7411
 1194TIP3   OH224996   2.226   1.943  11.426  0.1611 -0.4849 -0.1961
 1194TIP3    H124997   2.272   1.928  11.343  0.6247  2.1011 -0.4750
 1194TIP3    H224998   2.145   1.987  11.400  0.8103  1.3396  0.7471
 1195TIP3   OH224999   2.715   2.543   5.827  1.2728 -0.5242 -0.2179
 1195TIP3    H125000   2.682   2.564   5.914 -0.8255  0.4485 -1.1610
 1195TIP3    H225001   2.764   2.620   5.800 -0.5467  0.4489 -0.9621
 1196TIP3   OH225002   1.954   5.172  11.347  0.5014 -0.2222 -0.1591
 1196TIP3    H125003   1.880   5.174  11.407 -0.2245 -2.2065 -0.9011
 1196TIP3    H225004   2.027   5.138  11.399  0.4597  0.1602  0.1509
 1197TIP3   OH225005   6.225   1.211  13.023  0.4794  0.0417 -0.9250
 1197TIP3    H125006   6.290   1.171  13.081 -1.7020 -1.5485  0.6047
 1197TIP3    H225007   6.221   1.303  13.051 -1.7744 -1.0110  2.9591
 1198TIP3   OH225008   3.057   0.132   4.489 -0.5116 -0.3904 -0.3521
 1198TIP3    H125009   3.131   0.090   4.446  0.6471 -1.1852  2.2436
 1198TIP3    H225010   3.059   0.099   4.579 -3.2301  0.5988  0.1716
 1199TIP3   OH225011   3.287   3.445   4.615 -0.1302 -0.2044 -0.0119
 1199TIP3    H125012   3.233   3.423   4.540 -0.8566  1.8751 -0.1482
 1199TIP3    H225013   3.377   3.440   4.582 -0.4132  0.0620 -0.8465
 1200TIP3   OH225014   5.108   2.530  10.677  0.4304  0.3632 -0.0359
 1200TIP3    H125015   5.019   2.562  10.662  0.0466 -0.6878 -0.0575
 1200TIP3    H225016   5.098   2.438  10.700  1.6334 -0.2851 -1.8631
 1201TIP3   OH225017   1.455   2.023  16.872  0.7624 -0.2389 -0.4328
 1201TIP3    H125018   1.527   2.061  16.922 -0.5547  0.0521  1.3671
 1201TIP3    H225019   1.492   2.004  16.786  2.6833  0.8464  0.1028
 1202TIP3   OH225020   1.640   0.783  15.070 -0.0621 -0.0572 -0.1555
 1202TIP3    H125021   1.663   0.864  15.115  1.6914  0.1240 -1.2781
 1202TIP3    H225022   1.716   0.764  15.015 -0.2278 -2.7174  0.4237
 1203TIP3   OH225023   3.617   3.982   2.150  0.0872  0.3157 -0.2298
 1203TIP3    H125024   3.635   3.982   2.244  1.0107  0.2987 -0.4023
 1203TIP3    H225025   3.527   4.013   2.143 -0.4023 -0.7995  0.7331
 1204TIP3   OH225026   4.804   6.214   0.694 -0.3917 -0.6000 -0.3754
 1204TIP3    H125027   4.812   6.123   0.665 -0.7913 -1.1326  1.1325
 1204TIP3    H225028   4.710   6.233   0.687 -0.0813  0.4145 -2.6743
 1205TIP3   OH225029   4.136   5.779   6.270  0.0507  0.1189  0.3133
 1205TIP3    H125030   4.090   5.863   6.264 -0.0260  0.0141 -0.8475
 1205TIP3    H225031   4.228   5.802   6.264  0.1090  0.2203  1.3688
 1206TIP3   OH225032   5.582   0.678   2.498  0.1155  0.4263 -0.0091
 1206TIP3    H125033   5.567   0.744   2.566 -0.1446  0.9886 -0.5915
 1206TIP3    H225034   5.511   0.692   2.435  1.2106  0.9614 -1.1694
 1207TIP3   OH225035   2.615   3.585   1.848 -0.2772  0.2893  0.3294
 1207TIP3    H125036   2.706   3.603   1.872 -0.2545 -0.9127  1.2083
 1207TIP3    H225037   2.580   3.534   1.921 -0.9707 -1.2773 -1.0226
 1208TIP3   OH225038   4.242   6.808  14.725 -0.7370  0.1683  0.1364
 1208TIP3    H125039   4.260   6.715  14.708 -0.9786  0.2212 -0.4435
 1208TIP3    H225040   4.325   6.852  14.712 -0.4799 -0.0396  1.0124
 1209TIP3   OH225041   3.543   2.532  13.372 -0.3854  0.2276  0.3514
 1209TIP3    H125042   3.498   2.558  13.452 -0.8533  0.5365 -0.0068
 1209TIP3    H225043   3.513   2.443  13.355 -0.2866  0.1623  0.5138
 1210TIP3   OH225044   2.913   5.417  10.830 -0.8297 -0.1796 -0.1627
 1210TIP3    H125045   2.826   5.433  10.867 -1.3425 -2.3794 -0.2498
 1210TIP3    H225046   2.921   5.321  10.831  0.9739 -0.0844 -1.5869
 1211TIP3   OH225047   6.113   1.954  14.484  0.3359 -0.1428 -0.0738
 1211TIP3    H125048   6.117   1.888  14.554 -0.9191  0.5024  0.6365
 1211TIP3    H225049   6.119   2.038  14.530 -0.5638  0.2950 -0.7309
 1212TIP3   OH225050   2.670   2.799  12.460  0.8110 -0.0676  0.0459
 1212TIP3    H125051   2.675   2.894  12.458 -1.4357  0.1104  0.8542
 1212TIP3    H225052   2.580   2.778  12.437  1.0066 -1.9533  0.7789
 1213TIP3   OH225053   1.082   1.857   5.464 -0.7961 -0.1389  0.6677
 1213TIP3    H125054   1.105   1.825   5.551 -1.3747 -0.8012  0.5848
 1213TIP3    H225055   1.007   1.804   5.438  0.2198 -0.9034 -0.8111
 1214TIP3   OH225056   0.945   2.201  10.340  0.6309 -0.5182  0.3389
 1214TIP3    H125057   0.923   2.153  10.260 -0.4715  0.8416 -0.2108
 1214TIP3    H225058   0.865   2.249  10.363  1.6456  0.9947  0.8900
 1215TIP3   OH225059   4.483   3.712  15.774  0.4373  0.1114  0.1269
 1215TIP3    H125060   4.480   3.632  15.826 -0.4072 -1.3010 -1.9505
 1215TIP3    H225061   4.487   3.682  15.683 -0.7787  2.4209 -0.7870
 1216TIP3   OH225062   5.535   6.032  13.026  0.3775  0.0321  0.1604
 1216TIP3    H125063   5.592   6.100  12.990 -0.2169  0.4593  0.0237
 1216TIP3    H225064   5.448   6.072  13.030 -0.3792 -1.2583 -1.6456
 1217TIP3   OH225065   0.838   1.753   6.740  0.7230 -0.2187 -0.2547
 1217TIP3    H125066   0.868   1.662   6.747  1.4955 -0.0662 -1.3625
 1217TIP3    H225067   0.883   1.798   6.812  1.4473 -0.4354 -0.5607
 1218TIP3   OH225068   0.701   2.362  16.443  0.4467 -0.6140  0.0224
 1218TIP3    H125069   0.688   2.438  16.386  1.6798 -0.0326  0.4835
 1218TIP3    H225070   0.670   2.390  16.529 -2.1782 -1.7568 -0.4388
 1219TIP3   OH225071   2.336   0.883   6.220  0.2084  0.5926 -0.8457
 1219TIP3    H125072   2.376   0.883   6.306 -0.4961  1.8173 -0.5052
 1219TIP3    H225073   2.241   0.885   6.237  0.0728  1.5151 -1.6311
 1220TIP3   OH225074   6.072   5.727  16.470 -0.2911 -0.0322  0.3138
 1220TIP3    H125075   5.992   5.756  16.427 -0.8871 -1.7240  0.2125
 1220TIP3    H225076   6.081   5.785  16.546 -0.7308  1.1816 -0.5172
 1221TIP3   OH225077   1.053   5.961  16.372  0.5335  0.2575 -0.7057
 1221TIP3    H125078   1.034   5.950  16.279  0.5667 -0.4734 -0.6328
 1221TIP3    H225079   1.135   5.915  16.385 -0.2054 -0.9082 -0.0336
 1222TIP3   OH225080   4.926   2.836  11.530 -0.2006  0.2803 -0.3250
 1222TIP3    H125081   5.001   2.826  11.471 -2.2881  1.6525 -3.4765
 1222TIP3    H225082   4.914   2.931  11.538 -1.0226  0.0942  0.9606
 1223TIP3   OH225083   0.804   1.212  11.264  0.0893 -0.0203 -0.3706
 1223TIP3    H125084   0.887   1.244  11.230 -0.4118  0.6596 -1.0108
 1223TIP3    H225085   0.761   1.173  11.188  0.5794 -2.0589  0.3409
 1224TIP3   OH225086   0.727   4.597   0.304 -0.2205  0.1403 -0.4609
 1224TIP3    H125087   0.681   4.527   0.256 -0.3892  0.1322 -0.2889
 1224TIP3    H225088   0.818   4.568   0.308 -0.3580 -0.2474 -0.0645
 1225TIP3   OH225089   5.199   5.931   1.409  0.5384 -0.0648  0.5976
 1225TIP3    H125090   5.156   5.847   1.401 -0.9183  0.7650 -0.7709
 1225TIP3    H225091   5.278   5.924   1.355 -1.2577  0.4435 -2.2682
 1226TIP3   OH225092   3.067   5.991   4.875  0.2995 -0.0690  0.3574
 1226TIP3    H125093   3.118   6.069   4.898  0.8533 -0.2154 -0.3178
 1226TIP3    H225094   3.127   5.938   4.823 -1.0733  0.5939 -2.0595
 1227TIP3   OH225095   4.481   1.628   4.832  0.2951 -0.5018 -0.0454
 1227TIP3    H125096   4.519   1.660   4.750 -0.7098 -0.3906 -0.4831
 1227TIP3    H225097   4.525   1.678   4.900 -2.5640  3.4853 -0.7533
 1228TIP3   OH225098   4.473   1.141   0.461 -0.2668 -0.4012 -0.8381
 1228TIP3    H125099   4.556   1.148   0.413 -0.1222  0.3692 -0.4836
 1228TIP3    H225100   4.478   1.209   0.528 -1.7091  0.5129 -1.6021
 1229TIP3   OH225101   0.055   2.199   0.535 -0.0742 -0.1236 -0.1342
 1229TIP3    H125102   0.141   2.241   0.534  0.0206 -0.2710  0.7023
 1229TIP3    H225103   0.022   2.213   0.624 -1.0138  0.1156 -0.5073
 1230TIP3   OH225104   4.034   4.782   1.749  0.1423 -0.9896  0.0174
 1230TIP3    H125105   3.954   4.748   1.709  0.4037  0.7562 -2.1874
 1230TIP3    H225106   4.097   4.786   1.677  0.7747  1.9929  0.6134
 1231TIP3   OH225107   1.816   2.996  17.153  0.0266 -0.3226 -0.4915
 1231TIP3    H125108   1.733   2.952  17.141  0.5382 -1.1565 -1.0814
 1231TIP3    H225109   1.793   3.084  17.183 -1.0731 -0.3092 -1.3454
 1232TIP3   OH225110   4.698   5.159  14.013  0.6002  0.3029 -0.1098
 1232TIP3    H125111   4.717   5.077  13.967 -0.8606 -1.1053  1.6521
 1232TIP3    H225112   4.667   5.218  13.944  0.1848 -1.1377 -1.2201
 1233TIP3   OH225113   5.100   3.848   1.342 -0.0022  0.3511 -0.3392
 1233TIP3    H125114   5.101   3.753   1.341 -0.9843  0.2595 -3.6216
 1233TIP3    H225115   5.178   3.874   1.293 -0.8616  1.1137 -1.3678
 1234TIP3   OH225116   4.732   5.508  13.099  0.2678  0.2723 -0.2659
 1234TIP3    H125117   4.820   5.488  13.068 -0.0725  1.4501 -2.0960
 1234TIP3    H225118   4.745   5.572  13.169  0.8048  2.6223 -2.3974
 1235TIP3   OH225119   2.313   1.457  12.597  0.2762 -0.4653  0.0468
 1235TIP3    H125120   2.285   1.373  12.634 -0.2720 -1.1256 -1.7396
 1235TIP3    H225121   2.356   1.433  12.514  1.0135  0.9540 -0.0035
 1236TIP3   OH225122   1.860   3.352  11.298  0.3726 -0.1412  0.4619
 1236TIP3    H125123   1.796   3.404  11.347 -1.6298  0.3082 -2.3647
 1236TIP3    H225124   1.809   3.280  11.262  2.1172 -1.3880  0.3814
 1237TIP3   OH225125   5.023   0.814  15.333 -0.4003 -0.2876 -0.1132
 1237TIP3    H125126   5.050   0.736  15.285  0.9740 -0.5428  1.0236
 1237TIP3    H225127   5.105   0.855  15.360 -1.1212  0.9630  0.2540
 1238TIP3   OH225128   6.150   2.143  16.839 -0.4728 -0.0948  0.1799
 1238TIP3    H125129   6.120   2.212  16.779  0.4678  1.5715  1.5321
 1238TIP3    H225130   6.101   2.159  16.920  0.3573 -0.4854  0.7707
 1239TIP3   OH225131   1.417   2.183  14.925 -0.3474  0.4951 -0.0503
 1239TIP3    H125132   1.478   2.233  14.979  0.8200 -0.7480 -0.1627
 1239TIP3    H225133   1.471   2.149  14.853 -0.1948 -3.7332  1.7947
 1240TIP3   OH225134   1.897   2.498   1.594  0.0110  0.1575  0.3727
 1240TIP3    H125135   1.878   2.434   1.663 -2.1391  0.5667  0.2332
 1240TIP3    H225136   1.955   2.452   1.534 -0.9473 -1.4766  0.6272
 1241TIP3   OH225137   0.940   1.387   3.209  0.3028 -0.0725 -0.5473
 1241TIP3    H125138   1.032   1.392   3.185 -0.1672 -0.1035 -2.5681
 1241TIP3    H225139   0.897   1.354   3.130 -1.3954 -0.4094  0.4695
 1242TIP3   OH225140   5.739   4.071   5.416  0.2339 -0.3600  0.0670
 1242TIP3    H125141   5.749   4.139   5.350 -2.9288 -1.0672 -1.3242
 1242TIP3    H225142   5.817   4.017   5.408  0.7045  0.5554 -1.9210
 1243TIP3   OH225143   5.573   2.492   0.742  0.1631 -0.0594 -0.0758
 1243TIP3    H125144   5.536   2.492   0.830 -2.3928 -1.8977 -1.0279
 1243TIP3    H225145   5.570   2.400   0.715 -3.1199  0.7906 -3.5079
 1244TIP3   OH225146   2.155   5.998   3.151  0.0546  0.6334 -0.3011
 1244TIP3    H125147   2.126   6.083   3.118  2.5821  0.9823 -1.9490
 1244TIP3    H225148   2.170   6.013   3.245  0.3679  2.0191 -0.5435
 1245TIP3   OH225149   5.022   3.230  16.441 -0.1704 -0.1832  0.0734
 1245TIP3    H125150   5.021   3.230  16.536  1.3050  0.6851  0.1261
 1245TIP3    H225151   4.984   3.314  16.415  1.0303  0.3499 -0.0243
 1246TIP3   OH225152   5.360   0.210   0.991  0.1807  0.0352 -0.6114
 1246TIP3    H125153   5.333   0.240   0.904 -1.0139  0.5193 -0.1001
 1246TIP3    H225154   5.287   0.234   1.048  0.1932 -1.7824  0.2360
 1247TIP3   OH225155   6.420   6.476   4.045  0.4796  0.6909 -0.2978
 1247TIP3    H125156   6.421   6.390   4.088 -1.9125 -0.1834 -1.7681
 1247TIP3    H225157   6.486   6.527   4.092  0.7209 -1.3704  1.8180
 1248TIP3   OH225158   5.337   0.325  13.028 -0.3114 -0.2591 -0.6749
 1248TIP3    H125159   5.274   0.395  13.043  0.5279  0.4389 -0.3767
 1248TIP3    H225160   5.383   0.316  13.111 -1.3475 -2.1318 -0.2437
 1249TIP3   OH225161   4.074   1.595   1.898  0.2317  0.7629  0.0029
 1249TIP3    H125162   4.074   1.689   1.881  1.4847  0.7116 -0.4044
 1249TIP3    H225163   3.982   1.570   1.898 -0.1025  1.9459 -0.1282
 1250TIP3   OH225164   4.232   3.001  12.759 -0.4980  0.8571 -0.2078
 1250TIP3    H125165   4.256   2.909  12.766  1.1537  1.2478 -0.3037
 1250TIP3    H225166   4.236   3.034  12.849 -1.1919  0.8267 -0.1579
 1251TIP3   OH225167   5.255   1.565  17.226  0.3745 -0.1249  0.0326
 1251TIP3    H125168   5.252   1.645  17.174  0.9661  0.7035  1.1995
 1251TIP3    H225169   5.224   1.592  17.313  1.5896 -0.8914  0.7389
 1252TIP3   OH225170   1.863   6.105  14.519  0.3499  0.6286 -0.4652
 1252TIP3    H125171   1.844   6.012  14.532  0.1829  0.5063 -1.4768
 1252TIP3    H225172   1.836   6.147  14.600  3.0797 -0.5443  1.1919
 1253TIP3   OH225173   0.619   5.352   1.758 -0.1857  0.2486  0.0980
 1253TIP3    H125174   0.685   5.417   1.783  0.0987  0.1489 -0.3927
 1253TIP3    H225175   0.585   5.384   1.674  0.2353 -0.4456 -0.3438
 1254TIP3   OH225176   3.151   4.009  12.635 -0.5911  0.1039 -0.5363
 1254TIP3    H125177   3.150   4.098  12.600  1.0755  0.6700  0.7496
 1254TIP3    H225178   3.233   3.971  12.601 -0.2275 -0.1980  0.6441
 1255TIP3   OH225179   1.138   4.898  11.526  0.2414  0.2791 -0.2428
 1255TIP3    H125180   1.093   4.929  11.447 -0.1134  0.5190  0.0478
 1255TIP3    H225181   1.187   4.822  11.497 -1.0716 -0.5492 -0.3828
 1256TIP3   OH225182   2.497   0.556  15.618 -0.1978  0.0352  0.0784
 1256TIP3    H125183   2.505   0.546  15.713 -0.7753  0.8028  0.2276
 1256TIP3    H225184   2.509   0.468  15.583 -0.3937 -0.3325  0.8988
 1257TIP3   OH225185   3.607   4.580   4.148  0.3938 -0.1295  0.0374
 1257TIP3    H125186   3.635   4.508   4.205  3.3749  1.3376  0.5992
 1257TIP3    H225187   3.635   4.553   4.060 -0.1600 -0.4339 -0.0505
 1258TIP3   OH225188   1.456   0.142  11.540  0.4925 -0.0007 -0.3323
 1258TIP3    H125189   1.374   0.178  11.575  0.3790 -0.5824  0.0128
 1258TIP3    H225190   1.513   0.219  11.531 -0.3419  0.5184 -1.3225
 1259TIP3   OH225191   1.689   3.969   3.808  0.2779 -0.4310  0.6635
 1259TIP3    H125192   1.652   3.893   3.852 -1.1573 -0.2494 -0.1774
 1259TIP3    H225193   1.671   4.042   3.867 -0.5891 -0.3716  0.3375
 1260TIP3   OH225194   3.057   0.730  15.838 -0.3985 -0.3004  0.4412
 1260TIP3    H125195   3.070   0.823  15.856  0.4833 -0.0780 -1.1551
 1260TIP3    H225196   2.966   0.723  15.810 -0.4621  0.0743  0.5437
 1261TIP3   OH225197   2.769   1.340  14.598  0.0410  0.4808 -0.0532
 1261TIP3    H125198   2.798   1.252  14.622  2.6304  0.6288 -2.1560
 1261TIP3    H225199   2.705   1.326  14.529  0.3476  0.2282 -0.2895
 1262TIP3   OH225200   0.627   0.412   5.719  0.0618  0.5936  0.2802
 1262TIP3    H125201   0.704   0.469   5.719  0.3905  0.1546 -0.3835
 1262TIP3    H225202   0.639   0.354   5.644 -1.1739  0.8719 -0.1701
 1263TIP3   OH225203   1.188   4.169  15.780  0.3485  0.7339 -0.5558
 1263TIP3    H125204   1.264   4.218  15.812 -0.5358  1.2477  0.8239
 1263TIP3    H225205   1.120   4.235  15.770 -0.0142  0.2255 -1.5038
 1264TIP3   OH225206   5.262   0.573   0.716 -0.4930  0.0864  0.2815
 1264TIP3    H125207   5.312   0.632   0.658 -2.7831  0.1792 -1.7643
 1264TIP3    H225208   5.312   0.491   0.715  1.3262  1.1398  1.0010
 1265TIP3   OH225209   3.330   4.407  12.230  0.5818  0.1109  0.0939
 1265TIP3    H125210   3.362   4.410  12.140 -1.1689 -2.4038 -0.7143
 1265TIP3    H225211   3.242   4.368  12.223  0.7898 -1.1162  2.9602
 1266TIP3   OH225212   5.512   6.101  13.571 -0.2421 -0.2896  0.2954
 1266TIP3    H125213   5.597   6.095  13.528 -0.9292 -1.1531 -1.0291
 1266TIP3    H225214   5.532   6.121  13.663  1.3313  0.2886 -0.1532
 1267TIP3   OH225215   3.248   6.786  15.181 -0.2259  0.0937  0.6675
 1267TIP3    H125216   3.321   6.763  15.237  0.2927  1.1729  0.4624
 1267TIP3    H225217   3.248   6.882  15.179 -1.1374  0.0963  0.0118
 1268TIP3   OH225218   3.203   0.024   2.275  0.1852  0.2974 -0.1208
 1268TIP3    H125219   3.141   0.070   2.331  1.3249  1.9960 -0.1733
 1268TIP3    H225220   3.233  -0.050   2.328  1.6059  2.1126  1.8093
 1269TIP3   OH225221   5.432   5.640  11.064  0.9138 -0.1132  0.8940
 1269TIP3    H125222   5.508   5.619  11.118  0.4203 -1.2787  1.1510
 1269TIP3    H225223   5.457   5.721  11.019  2.1345 -0.2437  1.2912
 1270TIP3   OH225224   6.354   3.897  13.674  0.7802  0.7274  0.9240
 1270TIP3    H125225   6.393   3.914  13.759 -0.4736  0.0082  1.6794
 1270TIP3    H225226   6.428   3.891  13.614  2.0368 -2.1002  2.5366
 1271TIP3   OH225227   5.048   4.788   0.946 -0.4788 -0.2191 -0.5777
 1271TIP3    H125228   4.993   4.851   0.900 -0.9947  0.8088  1.3470
 1271TIP3    H225229   5.000   4.705   0.939 -0.6090 -0.0764 -1.7084
 1272TIP3   OH225230   3.037   3.978  11.726  0.1753  0.2539  0.3353
 1272TIP3    H125231   3.024   3.967  11.820 -1.4589  1.1378  0.2577
 1272TIP3    H225232   3.032   4.073  11.712  1.0340  0.1777 -0.5606
 1273TIP3   OH225233   0.496   2.255  16.013  0.0624  0.1630  0.0553
 1273TIP3    H125234   0.468   2.339  15.977  0.7386 -0.1661 -1.2822
 1273TIP3    H225235   0.460   2.190  15.953  1.3447 -0.3948 -0.1406
 1274TIP3   OH225236   5.451   4.033  13.744 -0.0181 -0.0767  0.0380
 1274TIP3    H125237   5.537   4.034  13.786  0.7627  1.1779 -1.5002
 1274TIP3    H225238   5.397   3.979  13.802  1.3333  0.5153  1.9593
 1275TIP3   OH225239   1.027   3.475   3.477 -0.1485 -0.5447  0.7710
 1275TIP3    H125240   1.089   3.529   3.428 -0.4203 -2.0168 -1.3324
 1275TIP3    H225241   0.953   3.533   3.494 -1.1382 -0.4824 -2.8324
 1276TIP3   OH225242   3.978   1.259   4.280  0.4387 -0.6033  0.6506
 1276TIP3    H125243   3.930   1.320   4.336  1.7749 -0.2317  1.4558
 1276TIP3    H225244   3.942   1.272   4.192  1.4375  2.2080  0.5616
 1277TIP3   OH225245   3.226   6.194   4.959 -0.3311  0.2870 -0.2511
 1277TIP3    H125246   3.287   6.252   5.005 -1.1259  1.0619 -0.1370
 1277TIP3    H225247   3.148   6.248   4.945 -0.8111 -0.5316 -0.8221
 1278TIP3   OH225248   5.671   4.720  16.589 -0.6739  0.2079  0.4891
 1278TIP3    H125249   5.686   4.644  16.532 -1.6894 -0.1933  0.7335
 1278TIP3    H225250   5.709   4.793  16.541 -2.3612  0.0682 -1.2328
 1279TIP3   OH225251   4.953   4.065  15.617  0.4258  0.3101  0.5145
 1279TIP3    H125252   5.033   4.030  15.579 -0.4641  0.8032 -2.0080
 1279TIP3    H225253   4.890   3.993  15.613  0.3084  0.3661  1.1311
 1280TIP3   OH225254   0.015   3.545   5.640  0.0626  0.2453  0.6102
 1280TIP3    H125255   0.037   3.621   5.693  0.4379  0.7884 -0.3025
 1280TIP3    H225256   0.051   3.471   5.689  2.9858  0.9753 -0.2169
 1281TIP3   OH225257   4.508   6.707  16.300 -0.7150 -0.1774 -0.2465
 1281TIP3    H125258   4.556   6.787  16.280 -1.1604  0.0781 -0.3102
 1281TIP3    H225259   4.503   6.705  16.395  0.4714 -0.8373 -0.1789
 1282TIP3   OH225260   0.380   1.224  12.200  0.5803 -0.3191  0.3848
 1282TIP3    H125261   0.377   1.316  12.227  2.1650 -0.3076  0.6522
 1282TIP3    H225262   0.299   1.210  12.152  0.9640  1.6376 -0.9713
 1283TIP3   OH225263   0.861   3.264   1.343 -0.8256  0.1363  0.6193
 1283TIP3    H125264   0.925   3.307   1.400  1.6710 -1.0896 -1.0827
 1283TIP3    H225265   0.793   3.330   1.329  0.8647  2.0983  1.2043
 1284TIP3   OH225266   6.317   2.027   4.139  0.4321 -0.2469 -0.3883
 1284TIP3    H125267   6.275   2.057   4.220 -0.0085 -0.8727 -0.3820
 1284TIP3    H225268   6.391   2.086   4.128  1.2329 -0.9114  1.1312
 1285TIP3   OH225269   4.858   0.415  12.165 -0.1193  0.2808 -0.5487
 1285TIP3    H125270   4.763   0.410  12.168 -0.1487  0.9106 -0.3011
 1285TIP3    H225271   4.884   0.343  12.107 -0.6887 -0.4222  0.0556
 1286TIP3   OH225272   2.129   0.786  15.747  0.1014 -0.1845  0.2811
 1286TIP3    H125273   2.093   0.783  15.836  0.0673 -0.0273  0.2724
 1286TIP3    H225274   2.131   0.879  15.725 -4.4052 -0.2722 -1.7198
 1287TIP3   OH225275   5.645   1.497  17.053 -0.5838  0.4873 -0.4168
 1287TIP3    H125276   5.567   1.453  17.088 -0.2175 -0.0499 -0.2625
 1287TIP3    H225277   5.702   1.426  17.024  1.4126  0.5891  2.7047
 1288TIP3   OH225278   4.156   0.799   1.440  0.5656  0.6883 -0.1895
 1288TIP3    H125279   4.115   0.885   1.433 -1.7041 -0.3889 -1.2452
 1288TIP3    H225280   4.249   0.815   1.426  0.2885  3.0338  0.3438
 1289TIP3   OH225281   3.238   0.185  16.782  0.2112 -0.4099  0.3796
 1289TIP3    H125282   3.321   0.199  16.827  2.0415  1.2526 -3.0833
 1289TIP3    H225283   3.205   0.273  16.765 -1.3552 -1.0181  0.1223
 1290TIP3   OH225284   3.245   2.087   5.330  0.1368  0.1099  0.2579
 1290TIP3    H125285   3.237   2.021   5.399  0.2336  1.7931  1.9816
 1290TIP3    H225286   3.155   2.106   5.304  0.1503 -1.5064 -1.1340
 1291TIP3   OH225287   5.448   4.479  16.189 -0.1332  1.0395 -0.1857
 1291TIP3    H125288   5.416   4.505  16.102 -2.2082 -0.5147  0.0525
 1291TIP3    H225289   5.537   4.447  16.172 -1.4316 -1.8813 -2.3408
 1292TIP3   OH225290   1.028   6.175   0.946  0.4167 -0.2956 -0.3915
 1292TIP3    H125291   1.063   6.162   0.858 -0.1963 -0.3326 -0.6401
 1292TIP3    H225292   1.101   6.211   0.997  0.9257 -0.7825 -0.7748
 1293TIP3   OH225293   4.969   6.718   5.642  0.0904  0.1342  0.0316
 1293TIP3    H125294   5.033   6.707   5.711  1.6090 -1.1937 -1.5203
 1293TIP3    H225295   4.909   6.644   5.652 -1.9094  1.8481  2.0437
 1294TIP3   OH225296   5.495   2.655   3.536  0.0960 -0.3337  0.0918
 1294TIP3    H125297   5.567   2.592   3.531 -0.3831 -0.9946  1.2414
 1294TIP3    H225298   5.532   2.736   3.500  1.4444 -0.6407  0.7285
 1295TIP3   OH225299   3.943   5.585   4.138  0.4040 -0.1038  0.3522
 1295TIP3    H125300   3.897   5.503   4.158 -0.1871  0.2913  0.6444
 1295TIP3    H225301   4.022   5.557   4.092 -1.0271 -0.7146 -1.9057
 1296TIP3   OH225302   0.017   6.437   1.887 -0.5768 -0.2877  0.4257
 1296TIP3    H125303   0.041   6.353   1.927  1.2527 -0.1213 -0.2188
 1296TIP3    H225304   0.090   6.457   1.828 -0.5790  2.1492  1.1498
 1297TIP3   OH225305   6.580   4.689  13.801  0.0184  0.2795  0.1310
 1297TIP3    H125306   6.616   4.756  13.860 -0.9834  0.2375  0.8067
 1297TIP3    H225307   6.528   4.632  13.857 -0.4017 -0.1660 -0.6852
 1298TIP3   OH225308   6.218   6.292  11.237  0.8344 -0.1231 -1.0608
 1298TIP3    H125309   6.298   6.253  11.270  0.9785  0.6517 -0.4798
 1298TIP3    H225310   6.239   6.318  11.147  1.5482  0.9483 -0.5985
 1299TIP3   OH225311   5.146   1.497  14.640  0.6016  0.2578  0.0441
 1299TIP3    H125312   5.135   1.430  14.572  0.7528  0.1947  0.0819
 1299TIP3    H225313   5.166   1.448  14.719  1.1966  0.3705 -0.0305
 1300TIP3   OH225314   3.460   1.825   1.064  0.8114 -0.1559  0.2753
 1300TIP3    H125315   3.532   1.808   1.003  1.3657  1.0591  0.5706
 1300TIP3    H225316   3.472   1.761   1.134  3.3019  1.7647  1.7685
 1301TIP3   OH225317   2.265   1.523  14.687  0.1910  0.4672 -0.4000
 1301TIP3    H125318   2.357   1.497  14.692  0.8259  2.4388 -0.7266
 1301TIP3    H225319   2.248   1.534  14.593 -0.7739 -1.0943 -0.4355
 1302TIP3   OH225320   0.277   3.957   1.809  0.1150  0.0367  0.5220
 1302TIP3    H125321   0.263   4.038   1.760 -0.7473 -0.4011  0.0313
 1302TIP3    H225322   0.284   3.986   1.900 -0.2214  0.6650  0.3547
 1303TIP3   OH225323   5.907   2.833  11.710  0.7273 -0.3674 -0.5589
 1303TIP3    H125324   5.909   2.874  11.796 -0.5260 -0.6418 -0.3812
 1303TIP3    H225325   5.867   2.898  11.652 -0.1041 -0.8393 -0.5377
 1304TIP3   OH225326   5.099   6.207  10.580  0.4344  0.2799  0.0006
 1304TIP3    H125327   5.071   6.130  10.629 -0.9044  0.4348 -0.4773
 1304TIP3    H225328   5.177   6.238  10.626 -0.2836 -0.0826  1.5211
 1305TIP3   OH225329   6.127   5.724   1.410 -0.0866  0.9244 -0.8549
 1305TIP3    H125330   6.183   5.755   1.338  0.4326 -1.1842 -1.4116
 1305TIP3    H225331   6.175   5.652   1.449 -1.6709  0.1445 -0.2627
 1306TIP3   OH225332   2.226   0.822  12.318 -0.8099  0.0672  0.5460
 1306TIP3    H125333   2.263   0.739  12.289  1.5442  1.3031 -0.2934
 1306TIP3    H225334   2.140   0.827  12.276 -0.7111 -1.6320  0.0938
 1307TIP3   OH225335   3.965   0.853   5.702 -0.2191 -0.5785 -0.1149
 1307TIP3    H125336   3.907   0.860   5.778  1.5933  2.5393  1.1516
 1307TIP3    H225337   4.046   0.815   5.736 -0.2473 -1.6212 -1.1277
 1308TIP3   OH225338   6.109   1.232   3.861  0.6257 -0.1167 -0.1282
 1308TIP3    H125339   6.193   1.266   3.894 -0.0123  1.0324  0.3632
 1308TIP3    H225340   6.134   1.171   3.792  1.9111 -0.6332  0.7424
 1309TIP3   OH225341   0.316   2.159  16.904  0.2026 -0.1047  0.1571
 1309TIP3    H125342   0.343   2.177  16.814  1.6951 -2.4754  0.0300
 1309TIP3    H225343   0.229   2.119  16.896  0.2157 -0.0573 -0.2231
 1310TIP3   OH225344   6.315   1.464  13.402  0.3195  0.6636  0.0576
 1310TIP3    H125345   6.377   1.486  13.332  0.4746 -0.4102 -0.1607
 1310TIP3    H225346   6.367   1.466  13.482  0.9176 -1.2464 -0.2382
 1311TIP3   OH225347   2.108   0.410   6.087  0.0283 -0.0020  0.1166
 1311TIP3    H125348   2.031   0.356   6.104  0.0797 -0.4673 -1.0718
 1311TIP3    H225349   2.099   0.483   6.149  0.7116 -2.0468  2.8193
 1312TIP3   OH225350   2.342   1.153  14.422 -0.8180 -0.0271 -0.2192
 1312TIP3    H125351   2.305   1.134  14.508 -0.5050  2.0800  0.4370
 1312TIP3    H225352   2.270   1.191  14.372 -0.5066  0.5888 -0.2093
 1313TIP3   OH225353   5.647   2.620   2.416 -0.6107  0.1675  0.2423
 1313TIP3    H125354   5.736   2.608   2.380 -0.3915  1.4850  0.3163
 1313TIP3    H225355   5.609   2.532   2.414  0.2637 -0.2144 -0.9386
 1314TIP3   OH225356   0.962   5.784   2.880 -0.1296  0.1529  0.4300
 1314TIP3    H125357   0.886   5.827   2.919  0.3333  0.4052  1.0530
 1314TIP3    H225358   0.981   5.711   2.938  1.2538  1.1879  1.3347
 1315TIP3   OH225359   2.506   4.768   4.458  0.3247 -0.0039 -0.3603
 1315TIP3    H125360   2.425   4.816   4.474  0.1211  0.0705 -1.4824
 1315TIP3    H225361   2.572   4.811   4.512 -0.0666  0.9264 -0.6079
 1316TIP3   OH225362   4.373   5.324   4.057 -0.4618 -0.0304 -0.2105
 1316TIP3    H125363   4.439   5.376   4.012 -2.2961  0.7693 -2.1088
 1316TIP3    H225364   4.421   5.245   4.085  1.2273  0.3644 -1.7566
 1317TIP3   OH225365   2.818   3.715   3.470  0.2881 -0.3587 -0.1660
 1317TIP3    H125366   2.724   3.715   3.487 -0.1932 -3.0355 -2.1790
 1317TIP3    H225367   2.853   3.779   3.532 -2.5734 -0.7172  2.0550
 1318TIP3   OH225368   1.779   0.028  13.224 -0.5699 -0.6012 -0.4176
 1318TIP3    H125369   1.798   0.122  13.221  0.7374 -0.7696  1.1365
 1318TIP3    H225370   1.686   0.022  13.202 -1.3713  1.3206  1.9655
 1319TIP3   OH225371   3.859   0.246   0.205 -0.2861  0.8382 -0.4438
 1319TIP3    H125372   3.842   0.339   0.223 -1.4651  0.9577 -1.9534
 1319TIP3    H225373   3.925   0.247   0.136 -1.8142  0.6441 -1.9551
 1320TIP3   OH225374   2.205   2.487   3.075  0.5137 -1.0462 -0.0726
 1320TIP3    H125375   2.224   2.562   3.019 -1.3020 -1.9287 -2.0110
 1320TIP3    H225376   2.287   2.436   3.076  1.3988  0.3330  0.3375
 1321TIP3   OH225377   2.424   6.448  11.847  0.2138  0.0180 -0.0345
 1321TIP3    H125378   2.334   6.456  11.880  0.5690 -2.4650  1.8074
 1321TIP3    H225379   2.415   6.455  11.752 -1.7538  0.9679  0.1621
 1322TIP3   OH225380   5.649   5.980   1.988  0.1044  1.1892  0.5255
 1322TIP3    H125381   5.588   5.934   1.930  1.8277  0.8174 -1.0947
 1322TIP3    H225382   5.597   6.050   2.027 -1.7099 -0.0241  0.3799
 1323TIP3   OH225383   2.707   4.568  13.824  0.2885  0.1122  0.1795
 1323TIP3    H125384   2.704   4.511  13.747  2.1141  0.6333 -0.3298
 1323TIP3    H225385   2.725   4.655  13.788  0.4136  0.4937  1.1390
 1324TIP3   OH225386   0.339   5.481   6.430 -0.0192  0.3592 -0.1236
 1324TIP3    H125387   0.363   5.574   6.440 -0.4998  0.3746  1.0071
 1324TIP3    H225388   0.421   5.434   6.447  0.3073  0.5733 -1.0302
 1325TIP3   OH225389   6.393   4.625  16.698 -0.0564  0.3196  0.3564
 1325TIP3    H125390   6.324   4.571  16.659  1.6590 -0.5773 -1.6551
 1325TIP3    H225391   6.358   4.714  16.697 -0.6728  0.1200 -2.0311
 1326TIP3   OH225392   6.364   1.510   2.369 -0.6056  0.1422 -0.5330
 1326TIP3    H125393   6.460   1.514   2.374 -0.4134 -1.3746 -1.9183
 1326TIP3    H225394   6.334   1.574   2.433  1.3309  0.1036  0.5030
 1327TIP3   OH225395   1.932   6.713   0.136  0.1725  0.3284 -0.3015
 1327TIP3    H125396   1.911   6.650   0.066 -1.0104 -0.5947  0.8347
 1327TIP3    H225397   1.925   6.798   0.094  0.5069 -0.2289 -1.5603
 1328TIP3   OH225398   0.128   3.014  13.597 -0.1580  0.0444 -0.1143
 1328TIP3    H125399   0.060   3.079  13.582 -0.1928 -0.2539 -1.3713
 1328TIP3    H225400   0.157   3.029  13.687 -0.6420  1.3452 -0.1596
 1329TIP3   OH225401   4.977   0.917   2.002  0.5235 -0.4305  0.0680
 1329TIP3    H125402   4.894   0.943   1.963  0.7948 -0.7974 -0.7662
 1329TIP3    H225403   4.954   0.847   2.064  0.0166  0.5578  1.0349
 1330TIP3   OH225404   6.525   5.892   5.075 -0.2935  0.0324  0.1908
 1330TIP3    H125405   6.563   5.818   5.122  0.7995  1.2965  1.4249
 1330TIP3    H225406   6.449   5.917   5.128  0.0640  0.5399  0.4725
 1331TIP3   OH225407   3.761   6.694   3.365  0.4649 -0.1695 -0.1247
 1331TIP3    H125408   3.698   6.658   3.427  0.3807  1.6800  0.9119
 1331TIP3    H225409   3.833   6.631   3.366 -0.6318 -1.4757 -0.1082
 1332TIP3   OH225410   6.497   0.128   6.501  0.7000 -0.2684 -0.2221
 1332TIP3    H125411   6.486   0.219   6.529 -0.4055 -0.6121  0.5241
 1332TIP3    H225412   6.562   0.132   6.430  1.5781  0.9477  0.6101
 1333TIP3   OH225413   4.169   4.328   2.227 -0.2059 -0.9113  0.3430
 1333TIP3    H125414   4.089   4.276   2.219 -2.1351  1.7761  0.7970
 1333TIP3    H225415   4.159   4.397   2.161  1.3722 -0.0640  0.9467
 1334TIP3   OH225416   0.890   6.289   4.194 -0.2449 -0.4167  0.0986
 1334TIP3    H125417   0.929   6.377   4.193 -1.2465  0.1248 -3.0071
 1334TIP3    H225418   0.961   6.231   4.166 -0.0935 -0.3259  0.2896
 1335TIP3   OH225419   2.100   1.722   1.905  0.4057 -0.7319 -0.4323
 1335TIP3    H125420   2.067   1.659   1.840  0.7225 -1.4655  0.1065
 1335TIP3    H225421   2.080   1.681   1.989  5.5412 -2.9382  0.0814
 1336TIP3   OH225422   2.135   6.805  14.700  0.2836  0.0976  0.1644
 1336TIP3    H125423   2.123   6.860  14.778  2.5556 -0.2220  0.8011
 1336TIP3    H225424   2.201   6.850  14.648 -0.0965 -0.4826 -0.8529
 1337TIP3   OH225425   1.109   4.049  14.973  0.4100 -0.0034  0.1360
 1337TIP3    H125426   1.091   4.133  15.015  0.2456 -0.5026  1.0932
 1337TIP3    H225427   1.192   4.021  15.010 -0.7016 -1.4024  1.7288
 1338TIP3   OH225428   3.266   2.808  12.846 -0.1813 -0.2968 -0.4948
 1338TIP3    H125429   3.193   2.747  12.855  0.5811 -1.2103 -0.3834
 1338TIP3    H225430   3.320   2.771  12.776 -0.5320  1.1141 -1.5476
 1339TIP3   OH225431   4.653   3.624   0.600  0.3168 -0.0078 -0.6464
 1339TIP3    H125432   4.654   3.529   0.597 -0.5279 -0.0063 -1.3894
 1339TIP3    H225433   4.560   3.647   0.602  0.5147  0.7753  0.8973
 1340TIP3   OH225434   2.422   2.587  12.589 -0.1539 -0.3866 -0.4296
 1340TIP3    H125435   2.446   2.669  12.632  1.8367 -0.2833 -1.5606
 1340TIP3    H225436   2.505   2.554  12.554 -1.1311 -2.1871 -1.1876
 1341TIP3   OH225437   6.523   6.666  17.146 -0.0397  0.1711 -0.3251
 1341TIP3    H125438   6.530   6.592  17.207 -0.5994  0.8829  0.6280
 1341TIP3    H225439   6.609   6.669  17.103  1.8513  1.8810  3.1102
 1342TIP3   OH225440   0.028   3.279   4.498 -0.5068  0.1390 -0.2349
 1342TIP3    H125441   0.075   3.217   4.442 -1.5945 -0.4606 -0.5180
 1342TIP3    H225442   0.025   3.360   4.447  1.5898  0.7109  0.4492
 1343TIP3   OH225443   5.099   5.016  13.855 -0.5939  0.7839 -0.0400
 1343TIP3    H125444   5.058   5.092  13.895  0.0266  1.8207 -1.2904
 1343TIP3    H225445   5.045   4.997  13.778  0.0216  0.8190 -0.4922
 1344TIP3   OH225446   6.775   1.621   3.542 -0.0629 -0.4580 -0.3609
 1344TIP3    H125447   6.705   1.570   3.583 -0.1352  0.5062  0.7724
 1344TIP3    H225448   6.732   1.700   3.510  0.6088  0.5936  1.1857
 1345TIP3   OH225449   3.796   3.432  16.391 -0.1915  0.0642 -0.2003
 1345TIP3    H125450   3.826   3.506  16.338 -0.5828  0.6048  0.3266
 1345TIP3    H225451   3.874   3.376  16.399  0.9777  1.8253  1.7923
 1346TIP3   OH225452   2.234   1.848  14.544  0.4759 -0.2491  0.2735
 1346TIP3    H125453   2.190   1.766  14.566  0.3737 -0.4621 -0.7102
 1346TIP3    H225454   2.186   1.882  14.468  2.9283 -1.2663 -1.8494
 1347TIP3   OH225455   3.326   3.714  16.753  0.3326 -0.5002 -0.3246
 1347TIP3    H125456   3.358   3.723  16.842  0.5318 -1.9483 -0.2211
 1347TIP3    H225457   3.404   3.698  16.700  0.2720  0.8460 -0.8546
 1348TIP3   OH225458   6.786   5.317   1.617  0.6261  0.0969  0.2589
 1348TIP3    H125459   6.766   5.339   1.708  0.6603 -1.2217  0.5971
 1348TIP3    H225460   6.700   5.302   1.577  0.6599 -0.2647  0.3213
 1349TIP3   OH225461   3.568   0.928   5.747  0.0393  0.6121  0.4640
 1349TIP3    H125462   3.647   0.892   5.787  0.1547  0.4284  0.0814
 1349TIP3    H225463   3.513   0.955   5.821  0.0772 -0.0760  0.7552
 1350TIP3   OH225464   2.370   1.708   0.111 -0.3088 -0.1440  0.4551
 1350TIP3    H125465   2.302   1.758   0.155 -0.8312  0.2100 -0.7128
 1350TIP3    H225466   2.323   1.635   0.070  0.0834 -0.1473  0.0120
 1351TIP3   OH225467   6.251   6.623  11.728 -0.2122 -0.5788  0.0923
 1351TIP3    H125468   6.309   6.548  11.716 -0.6611 -0.8082 -0.7354
 1351TIP3    H225469   6.307   6.699  11.714 -0.3595 -0.8119 -2.1026
 1352TIP3   OH225470   2.513   4.663   2.338  0.2958 -0.1752 -0.2044
 1352TIP3    H125471   2.581   4.681   2.402 -0.7632 -1.5328  1.4185
 1352TIP3    H225472   2.560   4.639   2.258  1.9633 -3.9107  1.6252
 1353TIP3   OH225473   1.432   4.629  16.383 -0.0715 -0.0376 -0.6090
 1353TIP3    H125474   1.431   4.724  16.368  2.4667  0.2514  0.5083
 1353TIP3    H225475   1.395   4.618  16.470  0.5121  0.0458 -0.3466
 1354TIP3   OH225476   2.096   6.496   0.555 -0.1535  0.8434  0.4245
 1354TIP3    H125477   2.101   6.401   0.553 -0.5318  0.8233  0.4000
 1354TIP3    H225478   2.147   6.522   0.631  0.2235  0.6409  0.2427
 1355TIP3   OH225479   4.521   1.477  11.543  0.0466 -0.5409 -0.1149
 1355TIP3    H125480   4.500   1.534  11.469  2.4274  1.0272  0.3175
 1355TIP3    H225481   4.454   1.409  11.540 -3.4895  2.6161 -0.1852
 1356TIP3   OH225482   5.609   1.109   1.106 -0.0347  0.1697  0.7698
 1356TIP3    H125483   5.607   1.037   1.169  0.6429  1.1198  1.9096
 1356TIP3    H225484   5.700   1.136   1.103  0.2688 -0.8806 -1.8618
 1357TIP3   OH225485   1.583   2.942  10.828  0.0522 -0.1220  0.2888
 1357TIP3    H125486   1.648   2.917  10.764 -1.2010  0.5534 -1.3223
 1357TIP3    H225487   1.501   2.904  10.796 -0.3591 -1.1954  2.3978
 1358TIP3   OH225488   1.587   0.080   4.050  0.1436 -0.2638  0.0105
 1358TIP3    H125489   1.532   0.058   4.125 -1.3511 -0.2709 -1.0623
 1358TIP3    H225490   1.652   0.010   4.046  0.1041 -0.3886  1.1330
 1359TIP3   OH225491   4.353   1.059   4.031  0.8099 -0.0992  1.2178
 1359TIP3    H125492   4.326   1.146   4.001 -0.0870 -0.7767 -0.0531
 1359TIP3    H225493   4.416   1.030   3.964  0.8027 -0.5801  1.4163
 1360TIP3   OH225494   6.068   3.545  15.482 -0.2932  0.1339  0.3008
 1360TIP3    H125495   6.114   3.475  15.436  1.5788 -0.1597  2.4720
 1360TIP3    H225496   6.015   3.587  15.414  1.6201 -0.8070 -1.9170
 1361TIP3   OH225497   3.998   1.166   1.668 -0.2603  0.3918 -0.1225
 1361TIP3    H125498   4.007   1.236   1.603 -2.3911  0.3222 -0.5948
 1361TIP3    H225499   3.903   1.158   1.680  0.0237 -0.9656  1.5259
 1362TIP3   OH225500   2.234   3.032  14.138  0.1803 -0.3512 -0.4004
 1362TIP3    H125501   2.208   3.116  14.099  3.0743 -0.1131 -2.0947
 1362TIP3    H225502   2.152   2.986  14.151 -1.5605  2.7054  0.6424
 1363TIP3   OH225503   0.080   6.126   1.325  0.5220  0.1597 -0.1250
 1363TIP3    H125504   0.161   6.081   1.301  0.7264 -0.5350  1.6927
 1363TIP3    H225505   0.015   6.091   1.265  1.2111 -0.6514 -0.4237
 1364TIP3   OH225506   1.812   4.186   0.651 -0.0990  0.1481 -0.1884
 1364TIP3    H125507   1.775   4.105   0.685 -0.5335  0.8718  1.1217
 1364TIP3    H225508   1.742   4.251   0.662  1.4460  1.5484  2.3157
 1365TIP3   OH225509   4.948   2.383   5.993 -0.4659 -0.3230 -0.2050
 1365TIP3    H125510   5.017   2.338   5.944 -0.4681 -1.0176  0.4280
 1365TIP3    H225511   4.867   2.354   5.952 -0.5581 -2.0714  1.1178
 1366TIP3   OH225512   4.222   1.223  15.118  0.3781 -0.0657  0.1292
 1366TIP3    H125513   4.251   1.136  15.146  1.9823  0.8338  1.4524
 1366TIP3    H225514   4.300   1.263  15.080  0.2929  1.5593  1.5380
 1367TIP3   OH225515   4.716   0.323  13.322 -0.2229  0.9068  0.2475
 1367TIP3    H125516   4.688   0.236  13.295 -1.2215  1.0099  0.8868
 1367TIP3    H225517   4.741   0.313  13.414 -1.2721  1.4767  0.6132
 1368TIP3   OH225518   2.841   4.658  12.175 -0.0717  0.6950  0.6736
 1368TIP3    H125519   2.891   4.595  12.124 -1.7992  2.5930 -3.8600
 1368TIP3    H225520   2.754   4.619  12.183 -0.1524  0.9601  1.1218
 1369TIP3   OH225521   5.771   5.066   5.851  0.1030 -0.4488  0.0067
 1369TIP3    H125522   5.706   5.077   5.921 -1.0381 -1.7557 -0.7995
 1369TIP3    H225523   5.758   5.143   5.795 -0.5782 -0.5515  0.0057
 1370TIP3   OH225524   6.667   6.697   3.398 -0.1503  0.0301 -0.0652
 1370TIP3    H125525   6.650   6.723   3.308 -0.4787 -0.6982 -0.2154
 1370TIP3    H225526   6.724   6.766   3.432 -1.1387  1.0465 -0.3961
 1371TIP3   OH225527   5.185   4.270  13.939  0.6418  0.6070  0.3139
 1371TIP3    H125528   5.257   4.229  13.988  1.3529 -0.3819 -1.4452
 1371TIP3    H225529   5.182   4.221  13.856 -3.9960 -1.4539  1.3652
 1372TIP3   OH225530   1.067   3.240   0.640  0.3303  0.1233 -0.5754
 1372TIP3    H125531   1.049   3.333   0.656  1.4917 -0.0667  2.8281
 1372TIP3    H225532   1.156   3.227   0.673 -0.4579 -2.5115  0.8636
 1373TIP3   OH225533   0.261   1.052   5.832  0.1256 -0.2221 -0.6324
 1373TIP3    H125534   0.280   1.138   5.795 -0.4097 -0.0815 -0.5901
 1373TIP3    H225535   0.271   1.063   5.926  1.6130 -0.6125 -0.7280
 1374TIP3   OH225536   5.152   3.046   4.971  0.1103 -0.0701 -0.0516
 1374TIP3    H125537   5.175   3.062   4.880 -0.6614  2.8937  0.1674
 1374TIP3    H225538   5.213   3.099   5.022 -1.5515  1.0089  0.9313
 1375TIP3   OH225539   2.912   3.883  12.491 -0.1003  0.0120  0.0411
 1375TIP3    H125540   2.837   3.824  12.479 -0.7647  0.5632  1.2721
 1375TIP3    H225541   2.968   3.837  12.554 -0.1286  0.2478  0.2400
 1376TIP3   OH225542   0.329   0.296  16.892 -0.5844 -0.6004  0.0727
 1376TIP3    H125543   0.387   0.352  16.841 -2.4236  0.4720 -0.9680
 1376TIP3    H225544   0.362   0.207  16.878  1.8117  0.0688  0.9567
 1377TIP3   OH225545   5.495   0.732  11.664  0.3333  0.1503 -0.0929
 1377TIP3    H125546   5.486   0.686  11.581  0.2741 -0.9409  0.4903
 1377TIP3    H225547   5.520   0.663  11.727  1.7779  1.1910  0.5128
 1378TIP3   OH225548   5.270   4.130   2.136  0.3507 -0.0537  0.5083
 1378TIP3    H125549   5.328   4.152   2.063  0.9632 -1.7595  0.4575
 1378TIP3    H225550   5.232   4.215   2.161  1.1655  0.7755 -0.8793
 1379TIP3   OH225551   0.367   3.682  14.585 -0.3893  0.4224  0.0626
 1379TIP3    H125552   0.415   3.752  14.540  1.5650 -0.1454  1.1734
 1379TIP3    H225553   0.324   3.634  14.514  0.7798  0.8805 -0.9880
 1380TIP3   OH225554   2.456   3.856  11.985  0.2613 -0.2913  0.3806
 1380TIP3    H125555   2.440   3.877  11.893  2.2509  0.4066  0.1354
 1380TIP3    H225556   2.369   3.847  12.024 -0.6152 -0.7164 -1.5859
 1381TIP3   OH225557   2.968   4.336  15.838 -0.0064  0.6044  0.1166
 1381TIP3    H125558   2.976   4.318  15.931 -0.1936 -0.4349 -0.0592
 1381TIP3    H225559   3.034   4.279  15.797  0.8205  1.8223 -0.3192
 1382TIP3   OH225560   2.321   1.340   1.517 -0.3823 -0.3719 -0.1624
 1382TIP3    H125561   2.315   1.250   1.547  0.7694 -0.6611 -0.7208
 1382TIP3    H225562   2.394   1.339   1.454  0.0157  1.0557  0.2454
 1383TIP3   OH225563   3.209   0.578  12.351 -0.0710  0.0875 -0.1641
 1383TIP3    H125564   3.143   0.560  12.419 -0.4514 -1.8916 -0.9802
 1383TIP3    H225565   3.169   0.546  12.270  0.0599  3.0762 -1.5348
 1384TIP3   OH225566   0.066   1.186   0.159 -0.6158  0.5294 -0.0732
 1384TIP3    H125567  -0.013   1.158   0.113 -1.7697 -0.5308  2.4005
 1384TIP3    H225568   0.136   1.133   0.119 -0.9946  1.7179 -2.5166
 1385TIP3   OH225569   5.313   4.335  15.112  0.0301 -0.6563 -0.2802
 1385TIP3    H125570   5.242   4.399  15.110 -0.4868 -1.1176  1.3229
 1385TIP3    H225571   5.272   4.256  15.147  0.8441 -1.6293 -1.4416
 1386TIP3   OH225572   4.322   6.237  17.115 -0.5120  0.0884 -0.6443
 1386TIP3    H125573   4.332   6.265  17.024  0.2436 -0.3605 -0.7069
 1386TIP3    H225574   4.233   6.203  17.120 -0.6249  0.3029 -1.1664
 1387TIP3   OH225575   1.909   6.684   5.284  0.3189  0.4070  0.2004
 1387TIP3    H125576   1.838   6.628   5.252  1.4746  0.4921 -2.8323
 1387TIP3    H225577   1.966   6.624   5.333 -0.4295 -0.2314  0.3155
 1388TIP3   OH225578   2.356   1.925  15.612 -0.1350 -0.4155 -0.4018
 1388TIP3    H125579   2.410   1.961  15.682 -2.0774  1.5277  0.1966
 1388TIP3    H225580   2.419   1.896  15.545  1.6430  1.1207  0.5262
 1389TIP3   OH225581   4.803   0.864   4.999 -0.0020  0.3149 -0.5338
 1389TIP3    H125582   4.721   0.857   4.951 -1.3795 -1.6333  1.8503
 1389TIP3    H225583   4.838   0.950   4.975 -3.3597  1.7692 -0.7161
 1390TIP3   OH225584   4.032   0.325  11.204  0.0629  0.3795  0.0148
 1390TIP3    H125585   3.969   0.253  11.199 -2.1147  2.2279 -1.0129
 1390TIP3    H225586   3.993   0.395  11.151  2.1505  2.2553  0.7986
 1391TIP3   OH225587   1.901   2.151   6.304 -0.0577  0.5057  0.0874
 1391TIP3    H125588   1.948   2.224   6.263 -1.1879  0.2856 -1.7326
 1391TIP3    H225589   1.853   2.190   6.377  0.7950  1.2269  0.2784
 1392TIP3   OH225590   1.825   5.425   3.408  0.3903 -0.0491 -0.3461
 1392TIP3    H125591   1.902   5.443   3.461 -0.5957 -0.5709  1.3268
 1392TIP3    H225592   1.751   5.432   3.468 -0.6202 -2.6153 -1.1350
 1393TIP3   OH225593   0.680   1.690   3.959 -0.0453  0.2679  0.0692
 1393TIP3    H125594   0.656   1.680   4.051 -0.8249 -0.0019 -0.1619
 1393TIP3    H225595   0.626   1.627   3.912  0.7173  0.0397 -0.5287
 1394TIP3   OH225596   0.380   3.007  11.124 -0.2116  0.0405  0.0610
 1394TIP3    H125597   0.459   3.003  11.070 -0.1610 -0.5138  0.1672
 1394TIP3    H225598   0.405   3.059  11.200 -0.7222  2.1839 -1.1408
 1395TIP3   OH225599   1.532   1.367   5.754  0.6266  0.2303  0.4119
 1395TIP3    H125600   1.585   1.446   5.741  2.2196 -0.6768  1.1031
 1395TIP3    H225601   1.545   1.316   5.673  1.1247 -0.1458  0.7186
 1396TIP3   OH225602   2.401   0.604  15.355 -0.3685  0.5248  0.2248
 1396TIP3    H125603   2.333   0.538  15.370  0.4808 -0.6001 -0.7615
 1396TIP3    H225604   2.464   0.591  15.426  0.3921 -0.5412 -0.6116
 1397TIP3   OH225605   1.028   4.016  12.023  0.4678 -0.4415  0.2858
 1397TIP3    H125606   1.005   4.040  12.113 -0.1427  0.4450 -0.0975
 1397TIP3    H225607   0.988   4.084  11.969  0.9694 -0.8776 -0.6505
 1398TIP3   OH225608   6.720   0.835   4.695  0.1934 -0.4960  0.0553
 1398TIP3    H125609   6.730   0.821   4.789  0.0158  0.3376  0.2050
 1398TIP3    H225610   6.781   0.907   4.675  0.8561 -1.2261 -0.6282
 1399TIP3   OH225611   4.287   4.859   5.705 -0.1791  0.5456 -0.2683
 1399TIP3    H125612   4.218   4.829   5.764 -0.6302 -1.0342 -1.5303
 1399TIP3    H225613   4.289   4.794   5.635  2.1050  0.9413 -0.6558
 1400TIP3   OH225614   4.031   6.589   4.566  0.7112 -0.0999 -0.5237
 1400TIP3    H125615   4.059   6.628   4.483  1.6043  1.5831  0.4988
 1400TIP3    H225616   3.980   6.658   4.609  0.3542 -0.8962  0.3722
 1401TIP3   OH225617   2.592   0.549  14.316  0.6360 -0.3649  0.2236
 1401TIP3    H125618   2.497   0.555  14.314  0.6911  1.5029  1.1754
 1401TIP3    H225619   2.622   0.640  14.323  2.4843 -0.9402  0.4160
 1402TIP3   OH225620   5.735   1.497  14.245 -0.2548  0.1283  0.6674
 1402TIP3    H125621   5.783   1.473  14.324  0.5491 -1.9088 -0.3838
 1402TIP3    H225622   5.782   1.574  14.211 -0.2489  0.6531  1.8003
 1403TIP3   OH225623   4.781   6.161  11.428  0.5333  0.1494 -0.1085
 1403TIP3    H125624   4.778   6.255  11.410 -1.9850  0.4710  1.4973
 1403TIP3    H225625   4.871   6.135  11.407  1.1190  2.7621 -1.1895
 1404TIP3   OH225626   4.856   2.823   2.249 -0.2749 -0.1088 -0.7290
 1404TIP3    H125627   4.936   2.829   2.301 -0.4130  1.0397 -0.6261
 1404TIP3    H225628   4.833   2.730   2.253  0.9431 -0.4302 -0.6143
 1405TIP3   OH225629   0.672   3.425   1.818  0.2522  0.4282  0.5052
 1405TIP3    H125630   0.648   3.333   1.828  0.9541  0.3767  1.9391
 1405TIP3    H225631   0.702   3.432   1.727 -1.5203 -0.3259 -0.1815
 1406TIP3   OH225632   6.572   1.896  15.340 -0.3276 -0.2007  0.0582
 1406TIP3    H125633   6.600   1.924  15.427 -0.4915 -0.6888  0.2690
 1406TIP3    H225634   6.581   1.975  15.286  0.9577 -0.2084  0.2302
 1407TIP3   OH225635   4.045   3.377   1.715  0.5434 -0.7341  0.0268
 1407TIP3    H125636   4.133   3.406   1.738  0.4245 -0.9779  0.8184
 1407TIP3    H225637   3.987   3.426   1.774  0.2198 -1.2875  0.1777
 1408TIP3   OH225638   2.505   0.092   1.330 -0.0350  0.1335  0.4172
 1408TIP3    H125639   2.521   0.003   1.360  0.6365  0.5109  1.2255
 1408TIP3    H225640   2.429   0.085   1.272 -0.6694 -0.8100  1.3208
 1409TIP3   OH225641   1.357   6.015  14.343 -0.5943 -0.2858  0.3282
 1409TIP3    H125642   1.369   5.964  14.262 -0.2562 -0.7513  0.6695
 1409TIP3    H225643   1.273   5.986  14.377 -1.7420  1.3941 -0.9157
 1410TIP3   OH225644   0.402   0.753   1.970 -0.2291  0.0214 -0.2274
 1410TIP3    H125645   0.349   0.683   2.009  0.1520 -1.0345 -1.5092
 1410TIP3    H225646   0.399   0.735   1.876 -0.8899  2.3065 -0.6887
 1411TIP3   OH225647   3.373   6.407   0.049  0.2238  0.1920 -0.4080
 1411TIP3    H125648   3.364   6.501   0.029  0.1322  0.3181  0.2167
 1411TIP3    H225649   3.285   6.379   0.071  0.6178  0.5210  1.7924
 1412TIP3   OH225650   2.978   5.887   4.018 -0.1720  0.0093 -0.1037
 1412TIP3    H125651   3.026   5.809   3.992 -0.8898 -0.5828  0.3229
 1412TIP3    H225652   3.029   5.960   3.982  1.3349 -0.5682  0.7451
 1413TIP3   OH225653   2.941   1.567  15.972  0.0775 -1.0412 -0.2134
 1413TIP3    H125654   2.928   1.649  15.925  2.1295 -1.4132 -1.5271
 1413TIP3    H225655   2.865   1.561  16.031 -0.7713  1.1377 -0.9945
 1414TIP3   OH225656   0.805   6.336   3.928 -0.4917 -0.4198  0.5835
 1414TIP3    H125657   0.815   6.309   4.019  1.0790 -2.4713 -0.1153
 1414TIP3    H225658   0.717   6.307   3.903 -0.3978 -1.1079  1.0528
 1415TIP3   OH225659   2.907   3.791  12.185 -0.6978  0.0564  0.0824
 1415TIP3    H125660   2.883   3.819  12.274  0.8624  0.0399  0.5376
 1415TIP3    H225661   2.825   3.758  12.148 -1.0532 -1.6658  2.1816
 1416TIP3   OH225662   6.795   0.566  12.358  0.6178 -0.4165 -0.2747
 1416TIP3    H125663   6.824   0.594  12.445  0.9665  1.1826 -0.8706
 1416TIP3    H225664   6.758   0.645  12.319  1.3746 -0.8594 -1.9562
 1417TIP3   OH225665   1.393   4.534  15.392 -0.2916  0.1936  0.0363
 1417TIP3    H125666   1.341   4.526  15.312 -0.9302 -1.6383  0.5765
 1417TIP3    H225667   1.476   4.491  15.370 -0.7853 -1.0914  0.5761
 1418TIP3   OH225668   3.597   3.680   4.732 -0.0228  0.1242 -0.0578
 1418TIP3    H125669   3.593   3.631   4.814 -1.5824 -0.2066 -0.3027
 1418TIP3    H225670   3.683   3.722   4.733  1.0128 -1.8954  0.5667
 1419TIP3   OH225671   6.513   5.314  13.784  0.2433 -0.7567 -0.3548
 1419TIP3    H125672   6.466   5.311  13.700 -1.4049  0.0265  0.4830
 1419TIP3    H225673   6.479   5.238  13.832 -2.6059  1.4133  1.4001
 1420TIP3   OH225674   0.464   4.522  13.902 -0.1031  0.0663  0.3557
 1420TIP3    H125675   0.499   4.605  13.870  1.4262 -0.3614  0.8624
 1420TIP3    H225676   0.398   4.548  13.967  0.9162  0.9025  1.0905
 1421TIP3   OH225677   2.678   3.938   1.827  0.2569 -0.2229 -0.3308
 1421TIP3    H125678   2.642   3.921   1.914  0.5069  1.7622  0.2135
 1421TIP3    H225679   2.610   3.909   1.766 -0.5714 -0.2175  0.5737
 1422TIP3   OH225680   0.303   4.223   5.241  0.3341 -0.1178  0.2290
 1422TIP3    H125681   0.258   4.259   5.317 -2.1674 -1.4813 -0.4971
 1422TIP3    H225682   0.306   4.295   5.178 -0.7802  0.0467  0.3447
 1423TIP3   OH225683   2.861   2.147   4.551  0.3528 -0.3322 -0.2287
 1423TIP3    H125684   2.907   2.230   4.541 -2.9206  1.8356  0.9357
 1423TIP3    H225685   2.796   2.147   4.481 -0.5777 -1.2477  0.6007
 1424TIP3   OH225686   1.635   0.483   3.060  0.0123 -0.4235 -0.0860
 1424TIP3    H125687   1.641   0.404   3.006  1.3423 -0.6164  0.3197
 1424TIP3    H225688   1.674   0.552   3.005 -0.5965 -0.1670 -0.2037
 1425TIP3   OH225689   4.329   4.908   0.517  0.7960 -0.0387  0.5731
 1425TIP3    H125690   4.379   4.954   0.584 -0.1747  1.6301  0.2266
 1425TIP3    H225691   4.293   4.832   0.562  0.9130  0.5592  1.7165
 1426TIP3   OH225692   0.625   5.001   3.386 -0.2248 -1.1982 -0.6581
 1426TIP3    H125693   0.573   4.999   3.306  0.0322 -2.1802 -0.8207
 1426TIP3    H225694   0.591   5.075   3.436 -0.3994 -0.5879 -1.6636
 1427TIP3   OH225695   1.616   4.612   1.702  0.9811  0.2529  0.4892
 1427TIP3    H125696   1.526   4.614   1.667  1.5807 -0.1184 -1.1470
 1427TIP3    H225697   1.633   4.519   1.715  1.3811  0.2685  0.0871
 1428TIP3   OH225698   3.463   0.322   3.850 -0.1379  0.1067  0.7743
 1428TIP3    H125699   3.440   0.296   3.761  0.3451  1.6259  0.1774
 1428TIP3    H225700   3.558   0.318   3.852 -0.1804 -1.9473  1.9103
 1429TIP3   OH225701   5.621   2.320   1.618  0.3210 -0.1777 -0.2140
 1429TIP3    H125702   5.530   2.297   1.600 -0.3260  0.6898  1.6891
 1429TIP3    H225703   5.635   2.402   1.571 -0.9218  1.3584  1.9414
 1430TIP3   OH225704   4.835   5.690   1.616 -0.2192  0.2928  0.8952
 1430TIP3    H125705   4.854   5.623   1.550 -1.5046 -0.6082  1.3917
 1430TIP3    H225706   4.837   5.773   1.567  1.2184 -0.0992  0.2395
 1431TIP3   OH225707   4.189   1.819  14.823 -0.4339  0.5412 -0.6060
 1431TIP3    H125708   4.146   1.734  14.810  0.2709  0.0411  0.2459
 1431TIP3    H225709   4.162   1.846  14.910  1.4705 -0.1050  0.2283
 1432TIP3   OH225710   3.371   4.156   5.001 -0.3346  0.2639 -0.5736
 1432TIP3    H125711   3.283   4.147   5.038 -0.6755  0.6954 -1.2673
 1432TIP3    H225712   3.428   4.109   5.063 -0.9560  0.5462  0.2329
 1433TIP3   OH225713   6.226   2.240  14.243 -0.5924 -0.0265  0.1043
 1433TIP3    H125714   6.246   2.297  14.169 -1.6132  1.0278  0.6056
 1433TIP3    H225715   6.188   2.162  14.205  1.9514 -0.9804 -0.6948
 1434TIP3   OH225716   3.745   1.675  13.714 -0.0725  0.1073 -0.8673
 1434TIP3    H125717   3.809   1.676  13.786 -1.4180  0.8209  0.3498
 1434TIP3    H225718   3.766   1.752  13.661 -0.0434  0.4399 -0.3704
 1435TIP3   OH225719   3.913   0.836   3.206 -0.7541  0.3780  0.1007
 1435TIP3    H125720   3.862   0.915   3.222 -0.2180  0.4817  1.3830
 1435TIP3    H225721   3.948   0.848   3.118 -1.2425  1.2484  0.0123
 1436TIP3   OH225722   6.291   5.708  12.372  0.3846  0.5557  0.4312
 1436TIP3    H125723   6.341   5.784  12.401  0.2313 -0.1384  2.6630
 1436TIP3    H225724   6.348   5.664  12.309  0.9289  1.8859 -0.0433
 1437TIP3   OH225725   5.352   0.539   3.018  0.3879 -1.1661  0.1373
 1437TIP3    H125726   5.363   0.542   3.113 -1.8862 -0.1964  0.4390
 1437TIP3    H225727   5.425   0.590   2.984 -0.1945  0.7290  1.5702
 1438TIP3   OH225728   2.971   1.149   5.578 -0.0460  0.4296 -0.0747
 1438TIP3    H125729   2.901   1.146   5.514 -1.7715 -0.5983  1.7387
 1438TIP3    H225730   2.946   1.221   5.637  0.0136 -0.3971  0.9847
 1439TIP3   OH225731   2.811   1.146  13.588  0.9827 -0.6288  0.1383
 1439TIP3    H125732   2.765   1.149  13.504 -1.0842  0.0106  1.2460
 1439TIP3    H225733   2.763   1.081  13.639  1.3592 -0.0077  1.3083
 1440TIP3   OH225734   4.171   1.456   4.278 -0.2304 -0.0488 -0.3653
 1440TIP3    H125735   4.243   1.447   4.340  0.5209  0.5455 -1.1191
 1440TIP3    H225736   4.126   1.372   4.280  1.0992 -0.7871 -0.6282
 1441TIP3   OH225737   4.725   2.011   6.794 -0.3696  0.6578 -0.0136
 1441TIP3    H125738   4.757   1.983   6.879 -1.0232 -0.5189 -0.1305
 1441TIP3    H225739   4.805   2.022   6.741 -0.0573 -1.4175 -0.0638
 1442TIP3   OH225740   1.758   3.776   1.874 -0.2126  0.4339  0.0170
 1442TIP3    H125741   1.826   3.839   1.898 -0.0865 -0.1126  1.1489
 1442TIP3    H225742   1.770   3.762   1.780  0.1309  1.6383 -0.1339
 1443TIP3   OH225743   0.246   0.335  16.421  0.2955 -0.4121  0.0746
 1443TIP3    H125744   0.314   0.309  16.483  1.2737 -0.7735 -1.0984
 1443TIP3    H225745   0.248   0.430  16.421  0.7729 -0.4181  0.0976
 1444TIP3   OH225746   0.177   5.343  13.714  0.5805 -0.3156  0.5528
 1444TIP3    H125747   0.106   5.296  13.759 -1.7363  1.6843 -0.7569
 1444TIP3    H225748   0.180   5.302  13.627 -0.1099  0.6034  0.0751
 1445TIP3   OH225749   2.969   0.718  13.194  0.3094  0.6275 -0.4164
 1445TIP3    H125750   3.044   0.712  13.135 -0.2843  0.7823 -1.2085
 1445TIP3    H225751   2.893   0.699  13.139 -0.1686 -0.4476  0.5732
 1446TIP3   OH225752   1.830   1.622   2.736 -0.3575 -0.1521  0.2152
 1446TIP3    H125753   1.747   1.626   2.689 -0.9812  1.6532  1.3333
 1446TIP3    H225754   1.806   1.596   2.825  0.4729 -1.0242  0.1949
 1447TIP3   OH225755   6.410   6.763  12.030  0.3724  0.0469 -0.1697
 1447TIP3    H125756   6.325   6.723  12.048 -0.4083  1.5465 -0.3585
 1447TIP3    H225757   6.429   6.740  11.939  0.2063 -0.3392 -0.1102
 1448TIP3   OH225758   2.104   5.303   6.183 -0.2380 -0.5699  0.3243
 1448TIP3    H125759   2.175   5.365   6.164  0.0563 -1.3153 -1.2092
 1448TIP3    H225760   2.051   5.347   6.249  1.0391  0.4767  0.7054
 1449TIP3   OH225761   1.826   4.807  14.811 -0.2355  0.1047 -0.4026
 1449TIP3    H125762   1.820   4.713  14.790  2.0008 -0.1910  0.0114
 1449TIP3    H225763   1.744   4.827  14.854 -0.0513 -2.1343  1.1771
 1450TIP3   OH225764   4.446   3.521   3.974  0.0828 -0.1525  0.4991
 1450TIP3    H125765   4.531   3.488   3.944  0.0821 -1.0204  1.3815
 1450TIP3    H225766   4.391   3.522   3.896  0.7340 -0.1273  0.0304
 1451TIP3   OH225767   3.951   4.374   3.697 -0.4988  0.3244  0.0171
 1451TIP3    H125768   4.007   4.448   3.672  2.8527 -1.1576  2.4532
 1451TIP3    H225769   3.945   4.321   3.617  1.7700  0.4878 -0.3357
 1452TIP3   OH225770   6.021   4.209  12.248 -0.6365  0.1682  0.5164
 1452TIP3    H125771   5.950   4.243  12.302 -0.6351  0.5353  0.2909
 1452TIP3    H225772   5.996   4.231  12.158 -0.1046  0.5601  0.4539
 1453TIP3   OH225773   4.081   1.943   5.463 -0.5972 -0.4802 -0.4656
 1453TIP3    H125774   4.130   2.024   5.451 -0.4364 -0.5839 -0.5116
 1453TIP3    H225775   4.032   1.933   5.381 -2.2946  0.6957  0.3489
 1454TIP3   OH225776   5.590   1.396  13.671  0.1218 -0.6095 -0.0124
 1454TIP3    H125777   5.604   1.489  13.652  0.3655 -0.7730 -0.6185
 1454TIP3    H225778   5.678   1.360  13.679  0.0275 -0.7029  0.6654
 1455TIP3   OH225779   2.803   1.700   0.481  0.6037  0.3187  0.2653
 1455TIP3    H125780   2.777   1.626   0.427 -3.1587  0.0207  2.1720
 1455TIP3    H225781   2.735   1.766   0.465  2.0475  2.1047  1.1078
 1456TIP3   OH225782   3.905   0.406   2.996  1.4205  0.2265  0.0450
 1456TIP3    H125783   3.895   0.459   2.917  1.4669  0.3174  0.0995
 1456TIP3    H225784   3.831   0.431   3.052  0.9135 -0.4491 -0.3132
 1457TIP3   OH225785   3.591   1.659  14.631  0.4052  0.0386 -0.0039
 1457TIP3    H125786   3.621   1.635  14.543  3.1595 -0.2278  0.9242
 1457TIP3    H225787   3.561   1.576  14.669  1.5469 -0.3500  0.1125
 1458TIP3   OH225788   6.723   0.610   0.291 -0.0129  0.1339 -0.4189
 1458TIP3    H125789   6.756   0.521   0.277  2.0567  0.9373 -1.0005
 1458TIP3    H225790   6.716   0.619   0.386  1.8417  0.0312 -0.2496
 1459TIP3   OH225791   4.217   1.182  17.067  0.8029  0.5671  0.5230
 1459TIP3    H125792   4.216   1.212  17.157 -0.9337 -1.0645  1.0979
 1459TIP3    H225793   4.220   1.086  17.073 -1.0276  0.3531 -1.0780
 1460TIP3   OH225794   4.238   0.939   5.264 -0.0453  0.2931 -0.3788
 1460TIP3    H125795   4.241   1.014   5.205 -1.6981  0.3504 -0.4453
 1460TIP3    H225796   4.329   0.921   5.285  0.3983  2.1679 -0.5330
 1461TIP3   OH225797   6.158   0.739   3.185 -0.3406  0.0896  0.1761
 1461TIP3    H125798   6.225   0.762   3.120  0.5545 -1.1226  0.6303
 1461TIP3    H225799   6.096   0.811   3.182 -0.7392 -0.2695 -2.5593
 1462TIP3   OH225800   4.315   4.380   1.993 -0.0051  0.3732 -0.1182
 1462TIP3    H125801   4.355   4.433   2.062 -1.8389  0.2419  1.1077
 1462TIP3    H225802   4.293   4.297   2.035  0.2086 -0.3020 -1.2758
 1463TIP3   OH225803   6.436   4.506   1.625  0.2921  0.0333 -0.1758
 1463TIP3    H125804   6.436   4.543   1.713 -1.6562 -1.4507  0.5168
 1463TIP3    H225805   6.528   4.482   1.610  0.6908  0.4546  1.3703
 1464TIP3   OH225806   3.628   0.895  10.368  0.1013  0.3726  0.0180
 1464TIP3    H125807   3.648   0.988  10.357  0.2104  0.3644  0.1376
 1464TIP3    H225808   3.705   0.850  10.331  0.2769  0.3390  0.4208
 1465TIP3   OH225809   0.312   6.136  14.936  0.3065 -0.3838 -0.7388
 1465TIP3    H125810   0.245   6.073  14.962  0.4323 -1.6230 -3.1591
 1465TIP3    H225811   0.335   6.112  14.846  2.0706  1.6813 -0.9364
 1466TIP3   OH225812   5.283   4.699   4.714 -0.6034 -0.5758 -0.4161
 1466TIP3    H125813   5.223   4.665   4.648  0.3914  2.0501 -2.9154
 1466TIP3    H225814   5.341   4.758   4.665  2.1727 -0.7620  2.3373
 1467TIP3   OH225815   0.060   2.585  14.441 -0.1849 -0.3779  0.0403
 1467TIP3    H125816   0.007   2.547  14.371 -0.3549  0.4673 -0.3098
 1467TIP3    H225817   0.035   2.537  14.520 -2.8189  1.1057  0.2423
 1468TIP3   OH225818   0.158   2.778   3.718  0.1144 -1.1418  0.0907
 1468TIP3    H125819   0.096   2.738   3.657 -0.4543  0.5710 -0.5210
 1468TIP3    H225820   0.238   2.788   3.667 -0.7483  1.5082 -0.9257
 1469TIP3   OH225821   2.366   2.254  15.723  0.0536  0.8771 -0.0744
 1469TIP3    H125822   2.419   2.191  15.773 -0.3897  1.4739  1.2045
 1469TIP3    H225823   2.363   2.218  15.635 -0.7418 -1.2774  0.7657
 1470TIP3   OH225824   2.224   6.079   6.191  0.6808  0.3017  0.5532
 1470TIP3    H125825   2.198   6.145   6.127  1.3376  0.6817  0.6639
 1470TIP3    H225826   2.142   6.042   6.222  0.3285  0.5723 -0.0280
 1471TIP3   OH225827   6.637   2.246  14.761 -0.6648 -0.0425  0.3888
 1471TIP3    H125828   6.630   2.272  14.853  0.9958  0.3147  0.4393
 1471TIP3    H225829   6.611   2.154  14.761  1.0408 -0.5799  1.5655
 1472TIP3   OH225830   0.815   3.617   0.397  0.4280 -0.3304 -0.1230
 1472TIP3    H125831   0.792   3.543   0.453  1.2335 -1.3595 -1.1253
 1472TIP3    H225832   0.910   3.621   0.399  0.4298  0.1256 -0.7959
 1473TIP3   OH225833   1.386   4.203  16.282 -0.3560 -0.0040  0.3128
 1473TIP3    H125834   1.337   4.183  16.202 -0.8055 -0.2849  0.6530
 1473TIP3    H225835   1.469   4.156  16.270 -0.1043  0.5830 -0.3252
 1474TIP3   OH225836   4.759   1.959  16.280  0.1461  0.1065  0.6883
 1474TIP3    H125837   4.729   2.044  16.314  0.9698  0.6715  0.0484
 1474TIP3    H225838   4.846   1.977  16.245  0.3625 -1.0333  0.6101
 1475TIP3   OH225839   1.746   4.414   1.392 -0.2058 -0.5307 -0.2153
 1475TIP3    H125840   1.760   4.425   1.486 -1.2588  0.7006 -0.1821
 1475TIP3    H225841   1.810   4.347   1.367 -0.3524 -1.3686  1.4808
 1476TIP3   OH225842   1.670   0.719  11.519  0.1027 -0.2032 -0.1234
 1476TIP3    H125843   1.717   0.640  11.545  2.4503  1.0940 -0.0945
 1476TIP3    H225844   1.638   0.756  11.601  0.0899 -0.4919  0.0019
 1477TIP3   OH225845   6.243   3.339  11.949  0.3131 -0.0518  0.0455
 1477TIP3    H125846   6.150   3.348  11.969  0.7804  0.8093  2.1140
 1477TIP3    H225847   6.265   3.420  11.903  0.2380  0.1680  0.3957
 1478TIP3   OH225848   5.018   1.358   1.521  0.1497  0.1900 -0.4224
 1478TIP3    H125849   5.097   1.304   1.518 -0.4098 -0.7256  0.4870
 1478TIP3    H225850   5.003   1.374   1.614 -1.3295 -0.5967 -0.4834
 1479TIP3   OH225851   1.158   4.737   2.503  0.3181  0.1484  0.2458
 1479TIP3    H125852   1.085   4.700   2.453  0.2333  2.3323 -1.4311
 1479TIP3    H225853   1.150   4.832   2.489  0.8747  0.8338  3.7212
 1480TIP3   OH225854   3.097   4.601  13.746  0.2813  0.0553  0.0696
 1480TIP3    H125855   3.013   4.647  13.738  0.3933  0.4651  1.0995
 1480TIP3    H225856   3.155   4.665  13.788  1.6783  0.4524 -2.3135
 1481TIP3   OH225857   1.796   2.918  13.626 -0.1537  0.0859  0.3854
 1481TIP3    H125858   1.882   2.935  13.586 -0.5778  0.7772 -0.2600
 1481TIP3    H225859   1.792   2.823  13.635  0.5981  0.0315  0.2410
 1482TIP3   OH225860   2.331   5.385  13.072 -0.3098 -0.3970 -0.5692
 1482TIP3    H125861   2.238   5.368  13.089 -0.0308 -1.2115  0.2454
 1482TIP3    H225862   2.351   5.461  13.126 -0.4243 -0.4363 -0.4703
 1483TIP3   OH225863   4.517   2.570  11.956 -0.1103  0.3103  0.6567
 1483TIP3    H125864   4.603   2.609  11.976 -0.2506  0.5880  0.7230
 1483TIP3    H225865   4.518   2.486  12.002  0.3187  0.0903  0.2615
 1484TIP3   OH225866   5.678   0.132  16.362  0.2591  0.1248  0.8763
 1484TIP3    H125867   5.704   0.110  16.451 -2.7694  0.5163  1.9336
 1484TIP3    H225868   5.664   0.226  16.363 -1.5883 -0.1074  0.5568
 1485TIP3   OH225869   0.358   4.598  14.747  0.7480  0.1215  0.0000
 1485TIP3    H125870   0.350   4.590  14.842 -1.8292  0.2671 -0.1341
 1485TIP3    H225871   0.423   4.667  14.734  0.6458  0.5613  1.6784
 1486TIP3   OH225872   4.738   2.191  15.909 -0.4337 -0.0942  0.6482
 1486TIP3    H125873   4.679   2.262  15.884  0.4387  0.0120 -1.3519
 1486TIP3    H225874   4.681   2.119  15.935 -1.3475  0.9092  1.5035
 1487TIP3   OH225875   5.357   3.333   5.849 -0.5361  0.0018 -0.6399
 1487TIP3    H125876   5.327   3.363   5.764 -0.3113 -0.1956 -0.7920
 1487TIP3    H225877   5.285   3.353   5.909 -0.3955  0.8110 -0.7412
 1488TIP3   OH225878   2.949   3.687   1.512  0.2056 -0.2540 -0.6234
 1488TIP3    H125879   2.943   3.771   1.465  2.4633  0.5180  0.2675
 1488TIP3    H225880   3.043   3.678   1.531 -0.1066 -2.5549  0.1285
 1489TIP3   OH225881   3.873   2.478  13.959  0.5293  0.4150  0.3567
 1489TIP3    H125882   3.813   2.551  13.971  0.6643  0.9061 -1.6209
 1489TIP3    H225883   3.820   2.400  13.980  0.4948  1.0191  2.8487
 1490TIP3   OH225884   0.526   3.966  12.796 -0.9731 -0.4963  0.5787
 1490TIP3    H125885   0.507   3.885  12.749  0.3264 -1.0714  1.0001
 1490TIP3    H225886   0.527   3.940  12.889 -0.7774  0.0547  0.7307
 1491TIP3   OH225887   0.181   1.957   3.262 -0.3673  0.3805  0.6124
 1491TIP3    H125888   0.270   1.967   3.295 -0.4076 -1.8009  1.5075
 1491TIP3    H225889   0.152   2.047   3.245  2.2902  1.1162 -0.6153
 1492TIP3   OH225890   0.576   1.389   6.628  0.1301 -0.4206 -0.4045
 1492TIP3    H125891   0.638   1.327   6.590  1.7501  0.3541  0.8245
 1492TIP3    H225892   0.498   1.337   6.646 -0.1313 -1.1500 -3.1959
 1493TIP3   OH225893   3.471   4.521  16.602 -0.5980 -0.0050 -0.5604
 1493TIP3    H125894   3.453   4.463  16.675 -0.4638  0.0062 -0.5166
 1493TIP3    H225895   3.487   4.463  16.528 -0.0483 -0.0405 -0.4221
 1494TIP3   OH225896   0.534   2.905  17.145  0.1910  0.0113 -0.0152
 1494TIP3    H125897   0.455   2.884  17.194 -0.4217  0.1880 -0.8895
 1494TIP3    H225898   0.599   2.843  17.177 -0.5143 -0.6460  0.1824
 1495TIP3   OH225899   0.611   6.052  13.175  0.0924 -0.4971  0.4554
 1495TIP3    H125900   0.653   6.109  13.239 -0.1576 -1.8812  1.9392
 1495TIP3    H225901   0.593   5.972  13.224 -0.6814 -1.3850 -1.2141
 1496TIP3   OH225902   4.848   4.408  12.227 -0.1754 -0.5816  0.1743
 1496TIP3    H125903   4.879   4.388  12.315  0.8677  1.0470  0.2239
 1496TIP3    H225904   4.886   4.494  12.207 -0.3637 -0.9157 -1.8761
 1497TIP3   OH225905   0.971   3.775  12.416 -0.4231 -0.0964  0.4797
 1497TIP3    H125906   0.938   3.712  12.352  0.2636  0.3690 -0.3489
 1497TIP3    H225907   0.900   3.840  12.424 -0.4241 -0.0329  0.0076
 1498TIP3   OH225908   2.957   6.335  10.546 -0.1326 -0.3857 -0.1201
 1498TIP3    H125909   2.950   6.304  10.636  0.6109  0.7443  0.3509
 1498TIP3    H225910   2.901   6.413  10.543  0.8805  0.3571 -0.2496
 1499TIP3   OH225911   5.579   3.406   5.581 -0.4488  0.6868  0.3442
 1499TIP3    H125912   5.587   3.311   5.580  3.7892  0.8630 -1.1779
 1499TIP3    H225913   5.500   3.424   5.530 -2.0034 -1.9439  1.6212
 1500TIP3   OH225914   2.728   2.325   0.318  0.3546  0.4811  0.0627
 1500TIP3    H125915   2.648   2.353   0.274 -0.1080 -0.0429  0.5622
 1500TIP3    H225916   2.774   2.273   0.251  0.1818  0.6055 -0.1558
 1501TIP3   OH225917   0.709   4.197  11.741 -0.1214 -0.3355  0.0013
 1501TIP3    H125918   0.715   4.199  11.836 -1.2500  0.2362  0.0761
 1501TIP3    H225919   0.714   4.104  11.719  1.5826 -0.4044  0.4787
 1502TIP3   OH225920   0.787   5.932  11.571  0.4713 -0.6848  0.2645
 1502TIP3    H125921   0.728   5.907  11.500  0.4227 -1.5060  0.5808
 1502TIP3    H225922   0.864   5.877  11.557  0.5080 -0.7625  0.7701
 1503TIP3   OH225923   4.225   1.106  13.499 -0.1696  0.2560 -0.2150
 1503TIP3    H125924   4.182   1.139  13.420  1.1939  1.5995 -0.4527
 1503TIP3    H225925   4.166   1.130  13.570 -1.7177 -1.5147 -0.8265
 1504TIP3   OH225926   0.498   1.393  16.355 -0.2464 -0.1471 -0.4761
 1504TIP3    H125927   0.566   1.337  16.318 -1.9094 -2.2484 -0.5718
 1504TIP3    H225928   0.489   1.364  16.446  0.9328  2.1299  0.4604
 1505TIP3   OH225929   6.265   1.403  15.201  0.0042 -0.7692 -0.1261
 1505TIP3    H125930   6.348   1.405  15.153 -0.3491  0.9614 -0.7595
 1505TIP3    H225931   6.290   1.417  15.293  0.3060  3.6637 -0.6809
 1506TIP3   OH225932   6.411   6.589  10.662  0.1842 -0.3487  0.2790
 1506TIP3    H125933   6.401   6.649  10.588  2.0983  1.9892  1.7560
 1506TIP3    H225934   6.338   6.611  10.720 -0.9114 -1.7021 -0.5117
 1507TIP3   OH225935   2.847   1.474  11.534  0.5650 -0.2026  0.2616
 1507TIP3    H125936   2.755   1.478  11.511  0.3307  1.5462  1.2701
 1507TIP3    H225937   2.858   1.390  11.579 -0.7158 -0.1109  0.7882
 1508TIP3   OH225938   6.398   4.687  14.815 -0.1407  0.1559 -0.7544
 1508TIP3    H125939   6.337   4.661  14.885  1.0557 -0.7249 -0.0076
 1508TIP3    H225940   6.341   4.713  14.743 -1.4125  1.0121  0.5045
 1509TIP3   OH225941   5.541   2.372   2.428  0.2501 -0.1429  0.1662
 1509TIP3    H125942   5.585   2.304   2.376 -0.3512  0.7936 -1.6090
 1509TIP3    H225943   5.480   2.323   2.483  0.9010 -1.1600  0.0260
 1510TIP3   OH225944   5.342   3.978  14.315  0.4625 -0.4334 -0.5267
 1510TIP3    H125945   5.305   3.891  14.302  0.8993 -0.9678  1.4581
 1510TIP3    H225946   5.414   3.964  14.377  1.0804  1.2224 -0.8294
 1511TIP3   OH225947   5.499   6.471   5.861 -0.2722  0.4676 -0.4754
 1511TIP3    H125948   5.583   6.515   5.848 -0.0066  0.0199 -0.2707
 1511TIP3    H225949   5.489   6.414   5.785 -0.4091  0.5444 -0.5161
 1512TIP3   OH225950   2.735   5.388  11.294  0.6431  0.3797 -0.3476
 1512TIP3    H125951   2.800   5.342  11.346 -0.4328 -0.5031  0.2620
 1512TIP3    H225952   2.724   5.472  11.338  3.6724  1.9567 -2.2831
 1513TIP3   OH225953   6.790   5.479   1.248  0.0137  0.2530 -0.3041
 1513TIP3    H125954   6.818   5.566   1.218  0.3825 -0.0348 -0.8153
 1513TIP3    H225955   6.788   5.426   1.168  0.6629 -0.4405  0.1257
 1514TIP3   OH225956   1.700   2.576   5.124 -0.0032  0.9007  0.8584
 1514TIP3    H125957   1.770   2.521   5.160 -0.0070  1.2255  1.3698
 1514TIP3    H225958   1.620   2.539   5.160 -0.1093  0.4347  0.1492
 1515TIP3   OH225959   3.431   6.458   6.221 -0.0530  0.1076 -0.0262
 1515TIP3    H125960   3.523   6.435   6.232  0.1852  1.2779  0.4977
 1515TIP3    H225961   3.384   6.391   6.272  0.4796 -0.5442 -0.3675
 1516TIP3   OH225962   4.779   1.571   0.545 -0.4771  0.2223 -0.3290
 1516TIP3    H125963   4.742   1.506   0.485 -0.8660 -0.1002  0.2569
 1516TIP3    H225964   4.808   1.521   0.621  0.2537  0.5989 -0.3421
 1517TIP3   OH225965   5.837   0.808   4.085  0.2158 -0.2938  0.0162
 1517TIP3    H125966   5.822   0.887   4.034  1.8038  0.8402  1.2129
 1517TIP3    H225967   5.932   0.803   4.094  0.0644 -1.4454  1.3294
 1518TIP3   OH225968   5.915   2.492  17.094  0.5775 -0.8063 -0.0547
 1518TIP3    H125969   5.949   2.510  17.182  0.1836  2.3562 -0.4440
 1518TIP3    H225970   5.843   2.430  17.109 -0.5320  0.8429  2.0934
 1519TIP3   OH225971   1.229   3.480  12.999  0.5103 -0.5579  0.0719
 1519TIP3    H125972   1.274   3.415  12.945 -0.6096 -1.2662 -0.0290
 1519TIP3    H225973   1.153   3.506  12.948  1.1835  1.2233 -0.1111
 1520TIP3   OH225974   3.583   6.665  13.356  0.1149 -0.5517  0.4103
 1520TIP3    H125975   3.627   6.590  13.394  2.3259 -0.7745 -2.2361
 1520TIP3    H225976   3.616   6.740  13.405  2.1372 -0.8978 -0.3238
 1521TIP3   OH225977   1.670   4.506   4.467  0.0013 -0.2908  0.3729
 1521TIP3    H125978   1.724   4.426   4.470  0.3166 -0.0764  0.5204
 1521TIP3    H225979   1.693   4.546   4.383  0.7100  0.2325  0.8030
 1522TIP3   OH225980   6.089   6.707   4.529  0.3441  0.2424  0.1648
 1522TIP3    H125981   6.069   6.743   4.442  2.3189 -0.7510 -0.7490
 1522TIP3    H225982   6.046   6.768   4.589 -1.5053  0.6934 -1.4751
 1523TIP3   OH225983   1.215   0.628  11.147  0.9057  0.3239 -0.3069
 1523TIP3    H125984   1.200   0.718  11.176 -1.0086 -0.4644  1.3189
 1523TIP3    H225985   1.195   0.630  11.053 -1.3209  1.1630  0.1294
 1524TIP3   OH225986   2.091   6.313   4.163  0.3941  0.5331 -0.2776
 1524TIP3    H125987   2.159   6.291   4.100  1.4908  0.3510  0.9302
 1524TIP3    H225988   2.035   6.235   4.165  1.0353  0.0694 -0.1534
 1525TIP3   OH225989   1.153   6.005  14.832 -0.2296 -0.1144  0.2480
 1525TIP3    H125990   1.065   6.036  14.853 -0.1885  0.6651 -0.6680
 1525TIP3    H225991   1.148   5.976  14.741  0.4402 -0.1317  0.2064
 1526TIP3   OH225992   2.833   2.394  14.638 -0.2325  0.1720 -0.1697
 1526TIP3    H125993   2.885   2.461  14.683 -0.0089 -0.1053 -0.0098
 1526TIP3    H225994   2.790   2.346  14.708 -0.0379 -0.1369 -0.2615
 1527TIP3   OH225995   5.255   3.470   3.533 -0.4577  0.1811  0.5292
 1527TIP3    H125996   5.296   3.384   3.523  1.1541  1.0149 -0.4307
 1527TIP3    H225997   5.248   3.482   3.628  0.1229 -0.6147  0.6847
 1528TIP3   OH225998   6.225   2.518   1.606  0.5013 -0.6430  0.2995
 1528TIP3    H125999   6.306   2.566   1.586 -0.7205  1.0531 -0.9218
 1528TIP3    H226000   6.250   2.456   1.674  3.0178 -0.7775 -0.6389
 1529TIP3   OH226001   2.068   1.180  11.566 -0.2998 -0.5005  0.5029
 1529TIP3    H126002   2.077   1.124  11.489 -1.4711  0.4151 -0.3374
 1529TIP3    H226003   2.151   1.227  11.571  0.3040 -1.5546  0.6284
 1530TIP3   OH226004   5.431   1.676   1.862  0.4020 -0.3563  0.3562
 1530TIP3    H126005   5.488   1.599   1.859 -2.5435 -2.8322  1.9336
 1530TIP3    H226006   5.468   1.731   1.931  1.0890 -1.7156  1.1137
 1531TIP3   OH226007   1.425   0.333   5.095 -0.1167 -0.7479  0.3355
 1531TIP3    H126008   1.500   0.336   5.036 -0.8927 -0.6688 -0.6582
 1531TIP3    H226009   1.404   0.425   5.113 -2.2976 -0.5632 -2.4408
 1532TIP3   OH226010   4.258   1.513   2.600 -0.5573  0.0240  0.0262
 1532TIP3    H126011   4.323   1.502   2.670 -2.4083 -2.2338  1.4987
 1532TIP3    H226012   4.307   1.557   2.530  2.2565 -0.5987  1.4455
 1533TIP3   OH226013   5.216   2.501   0.310 -0.2296 -0.1865 -0.1300
 1533TIP3    H126014   5.241   2.414   0.342  2.1161  0.0529 -1.1309
 1533TIP3    H226015   5.190   2.486   0.219 -1.3971 -0.0431  0.1635
 1534TIP3   OH226016   3.335   0.266  14.000  0.2167  0.1986  0.1351
 1534TIP3    H126017   3.241   0.282  13.990 -0.4732 -3.2067 -0.0322
 1534TIP3    H226018   3.368   0.345  14.043 -2.8062  1.2869  0.7430
 1535TIP3   OH226019   4.922   5.255  14.585  0.2031  0.7031  0.5399
 1535TIP3    H126020   4.980   5.273  14.510 -0.7962 -0.0764 -0.4527
 1535TIP3    H226021   4.951   5.169  14.616  0.4743  0.9306  0.9236
 1536TIP3   OH226022   5.451   5.915   2.820 -0.9326  0.0750 -0.2954
 1536TIP3    H126023   5.522   5.859   2.788  0.6026  1.6485  0.2195
 1536TIP3    H226024   5.405   5.862   2.885  0.9972 -0.3248  0.7940
 1537TIP3   OH226025   1.264   5.756  11.424 -0.1408  0.2291  0.1769
 1537TIP3    H126026   1.307   5.782  11.342  0.9222  1.3474  1.0531
 1537TIP3    H226027   1.331   5.709  11.473 -0.8587 -0.6859  0.2984
 1538TIP3   OH226028   5.609   2.147  11.748 -0.2031  0.4964  0.7715
 1538TIP3    H126029   5.584   2.105  11.666  1.8055 -0.2924  0.4962
 1538TIP3    H226030   5.609   2.241  11.729  1.3548  0.2791 -0.5309
 1539TIP3   OH226031   5.106   1.000  11.871  0.4095 -0.0420 -0.1202
 1539TIP3    H126032   5.098   1.093  11.851 -2.1124 -0.6022 -2.1691
 1539TIP3    H226033   5.067   0.955  11.796  1.6390 -2.7928  0.7416
 1540TIP3   OH226034   4.827   1.445   6.134  0.1680  0.2381 -0.3171
 1540TIP3    H126035   4.749   1.435   6.189  1.1985 -2.8715  0.8373
 1540TIP3    H226036   4.874   1.518   6.173 -0.5418 -0.0459  1.1422
 1541TIP3   OH226037   0.976   5.270   0.363 -0.3344  0.3516  0.3767
 1541TIP3    H126038   0.913   5.198   0.373 -2.2205  1.4640 -2.1696
 1541TIP3    H226039   0.947   5.337   0.426 -1.5424  0.6956 -0.5077
 1542TIP3   OH226040   0.140   6.090   3.723 -0.1599 -0.0929 -0.7432
 1542TIP3    H126041   0.117   6.104   3.631 -0.0602  0.6340 -0.6641
 1542TIP3    H226042   0.136   6.178   3.762 -2.1366 -0.6373  0.4077
 1543TIP3   OH226043   2.661   0.960  13.351 -0.3724  0.5813 -0.2083
 1543TIP3    H126044   2.657   0.891  13.417  0.2310  0.5418 -0.2108
 1543TIP3    H226045   2.645   0.915  13.268 -0.7329  0.5683 -0.1330
 1544TIP3   OH226046   0.119   5.066  11.803 -0.2312 -0.0945 -0.0010
 1544TIP3    H126047   0.042   5.048  11.749 -1.1954 -0.6769  1.5129
 1544TIP3    H226048   0.090   5.049  11.893  1.3888  0.6148  0.6955
 1545TIP3   OH226049   4.776   1.423   4.052  0.0673 -0.2622 -0.3212
 1545TIP3    H126050   4.754   1.338   4.016 -0.9629 -0.1936  0.1191
 1545TIP3    H226051   4.835   1.404   4.125  1.2949 -0.4631 -1.3166
 1546TIP3   OH226052   6.507   4.030  13.321 -0.1362 -0.0623 -0.3757
 1546TIP3    H126053   6.429   3.997  13.277 -1.1795 -1.3770  2.2172
 1546TIP3    H226054   6.507   4.124  13.306 -0.3699 -0.4297 -3.1027
 1547TIP3   OH226055   1.720   4.727  16.677 -0.0905 -0.0400  0.1067
 1547TIP3    H126056   1.790   4.749  16.615  1.1805 -0.1412  1.4637
 1547TIP3    H226057   1.683   4.645  16.643  0.8995 -0.3462 -0.2753
 1548TIP3   OH226058   1.417   3.488   1.339 -0.7595 -0.1518  0.3693
 1548TIP3    H126059   1.453   3.564   1.293  0.3725 -0.2131  1.0985
 1548TIP3    H226060   1.337   3.520   1.380 -0.1075  0.7628  0.9676
 1549TIP3   OH226061   6.320   6.147   2.671 -0.0461  0.8333  0.2221
 1549TIP3    H126062   6.358   6.230   2.701 -2.4943  2.6099 -1.3013
 1549TIP3    H226063   6.358   6.133   2.584 -0.7226  1.1632 -0.1367
 1550TIP3   OH226064   4.841   0.784   6.005  0.1701 -0.2233 -0.9282
 1550TIP3    H126065   4.807   0.834   6.079  1.0573  1.3950 -1.5725
 1550TIP3    H226066   4.764   0.738   5.971 -0.6569  0.6022 -0.2357
 1551TIP3   OH226067   5.235   6.493   5.965  0.1388 -0.2642  0.3740
 1551TIP3    H126068   5.328   6.513   5.970  0.2350 -0.3707 -0.8094
 1551TIP3    H226069   5.196   6.569   5.922 -0.2009 -0.5539  0.1634
 1552TIP3   OH226070   5.285   4.910  16.822  0.2878 -0.0311  0.0967
 1552TIP3    H126071   5.339   4.914  16.743 -0.4087  1.6984 -0.3319
 1552TIP3    H226072   5.255   5.000  16.835  0.9186 -0.1263  2.7271
 1553TIP3   OH226073   3.431   1.529  16.282 -0.4113  0.4865  0.0109
 1553TIP3    H126074   3.448   1.443  16.320  0.0415  1.4839  2.2305
 1553TIP3    H226075   3.344   1.522  16.243  0.0817 -1.2616 -0.8512
 1554TIP3   OH226076   5.010   0.704   4.726 -0.3475 -0.1309 -0.0714
 1554TIP3    H126077   4.933   0.670   4.771  0.4084 -1.6197  0.1893
 1554TIP3    H226078   4.976   0.748   4.648 -1.5253  0.4489  0.7532
 1555TIP3   OH226079   0.482   5.068  15.996  0.2561  0.4758 -0.0818
 1555TIP3    H126080   0.410   5.078  15.935 -0.7616  1.2744  1.1890
 1555TIP3    H226081   0.560   5.062  15.941 -0.7238 -0.0107 -1.4723
 1556TIP3   OH226082   1.735   1.491  12.873 -0.1086 -0.2320 -0.6866
 1556TIP3    H126083   1.643   1.472  12.857 -0.0593  0.6290 -2.1787
 1556TIP3    H226084   1.746   1.582  12.844  1.4213 -0.6422 -1.4988
 1557TIP3   OH226085   5.932   0.591   3.196 -0.5658  0.4023 -0.3258
 1557TIP3    H126086   5.890   0.654   3.254 -0.3930 -0.4332  0.7442
 1557TIP3    H226087   6.022   0.621   3.188 -0.4780  0.2864  0.2009
 1558TIP3   OH226088   5.156   3.240   2.337  0.4593  0.5567  0.2575
 1558TIP3    H126089   5.244   3.228   2.300  0.0590 -0.5363 -0.3908
 1558TIP3    H226090   5.097   3.228   2.263 -0.4592 -3.2446  1.3833
 1559TIP3   OH226091   6.197   4.398   0.760  0.0335 -0.1847  0.2333
 1559TIP3    H126092   6.201   4.302   0.763  0.2794 -0.1498  1.4031
 1559TIP3    H226093   6.218   4.419   0.669 -0.5379 -1.2579 -0.1709
 1560TIP3   OH226094   5.600   0.270  11.428  0.0905  0.1812  0.4092
 1560TIP3    H126095   5.604   0.175  11.444 -0.0309  0.3335  1.4125
 1560TIP3    H226096   5.524   0.282  11.372  0.1394 -0.3250  0.2292
 1561TIP3   OH226097   6.358   0.330   0.841  0.2015  0.2961 -0.5705
 1561TIP3    H126098   6.424   0.287   0.895  1.5682  1.9844 -0.8311
 1561TIP3    H226099   6.275   0.305   0.882  0.9874 -1.4913  0.0441
 1562TIP3   OH226100   1.963   5.192  13.778  0.0609  0.4318 -0.2687
 1562TIP3    H126101   2.005   5.119  13.733 -1.4397  0.4020 -1.7125
 1562TIP3    H226102   2.008   5.197  13.863  0.8362 -1.5361 -0.5095
 1563TIP3   OH226103   0.789   0.312   3.142  0.0886 -0.1216  0.2172
 1563TIP3    H126104   0.803   0.272   3.056 -1.4807  1.2971 -0.7513
 1563TIP3    H226105   0.753   0.399   3.123 -0.6744  0.0838  2.3193
 1564TIP3   OH226106   4.956   4.085   1.098 -0.0789 -0.4277 -0.1299
 1564TIP3    H126107   4.966   4.085   1.193 -2.1870 -2.1418  0.1556
 1564TIP3    H226108   4.964   4.177   1.073 -2.5904  0.5139  2.1230
 1565TIP3   OH226109   6.748   1.375  14.918  0.0353 -0.0795 -0.6582
 1565TIP3    H126110   6.835   1.406  14.943  0.4075 -0.6307 -1.2513
 1565TIP3    H226111   6.762   1.325  14.838 -0.7862 -0.4446 -0.5838
 1566TIP3   OH226112   0.816   6.162   5.516 -0.1769 -0.0715  0.5674
 1566TIP3    H126113   0.874   6.203   5.452  1.7580 -0.8098  1.7611
 1566TIP3    H226114   0.862   6.083   5.543 -2.6327 -1.7150  0.2358
 1567TIP3   OH226115   4.658   2.045   5.649 -0.2431  0.1709  0.1917
 1567TIP3    H126116   4.571   2.003   5.647 -0.7430  1.1670 -1.5987
 1567TIP3    H226117   4.646   2.126   5.600  1.7214  0.3114 -0.1291
 1568TIP3   OH226118   2.917   4.896  12.615  0.1984 -0.0198  0.2967
 1568TIP3    H126119   2.909   4.986  12.582 -1.0798 -0.0221  0.5261
 1568TIP3    H226120   2.945   4.845  12.539 -0.1488  0.3978 -0.1214
 1569TIP3   OH226121   2.683   0.467   1.374 -0.0752  0.6137 -0.2919
 1569TIP3    H126122   2.773   0.487   1.401  1.0226 -1.3772 -2.1612
 1569TIP3    H226123   2.646   0.421   1.449  1.3430 -0.7389 -0.3666
 1570TIP3   OH226124   5.788   4.807  11.897  0.1261 -0.0072 -0.3084
 1570TIP3    H126125   5.814   4.731  11.845 -0.5691 -1.3003  1.1702
 1570TIP3    H226126   5.838   4.801  11.977  0.0500  1.1066 -0.1569
 1571TIP3   OH226127   4.320   5.088  15.675  0.3695 -0.6602 -0.1370
 1571TIP3    H126128   4.396   5.030  15.671  0.0516 -1.0498 -0.5980
 1571TIP3    H226129   4.265   5.052  15.744  2.1026  1.4904  2.5716
 1572TIP3   OH226130   5.824   4.325   1.252  0.2108  0.2236  0.5901
 1572TIP3    H126131   5.838   4.341   1.159  1.5810 -3.1506  0.0420
 1572TIP3    H226132   5.906   4.352   1.294  0.1473  0.3970  0.6028
 1573TIP3   OH226133   5.475   3.258  12.067 -0.2295  0.2179 -0.1370
 1573TIP3    H126134   5.503   3.177  12.023 -0.4181  0.4444 -0.6789
 1573TIP3    H226135   5.515   3.328  12.017  1.6510  0.4222  1.5539
 1574TIP3   OH226136   4.591   6.627  17.052  0.2779 -0.7894 -0.0237
 1574TIP3    H126137   4.500   6.619  17.024  0.3729 -1.4243 -0.1786
 1574TIP3    H226138   4.607   6.548  17.103  1.6090 -2.2526 -2.5267
 1575TIP3   OH226139   5.576   1.409   1.284  0.3165  0.2168  0.1466
 1575TIP3    H126140   5.597   1.361   1.204  0.0603  0.5289 -0.1111
 1575TIP3    H226141   5.653   1.464   1.300  0.3139  0.2523  0.0393
 1576TIP3   OH226142   5.297   2.284  14.194  0.6916  0.4983 -0.3852
 1576TIP3    H126143   5.260   2.200  14.165 -2.2691  0.8678  1.8785
 1576TIP3    H226144   5.241   2.350  14.154  1.4190  1.3245 -0.0758
 1577TIP3   OH226145   2.791   3.963   5.926  0.3516  0.0381 -0.6573
 1577TIP3    H126146   2.755   3.901   5.990  0.3925  0.3022 -0.3761
 1577TIP3    H226147   2.824   3.908   5.855  0.9009 -0.2996 -0.1467
 1578TIP3   OH226148   0.512   3.407  10.954 -0.6930 -0.7163 -0.2366
 1578TIP3    H126149   0.499   3.423  10.861  1.3010  0.6905 -0.3365
 1578TIP3    H226150   0.542   3.316  10.959  0.0719 -0.5229 -1.0794
 1579TIP3   OH226151   0.957   5.797  12.779  0.1249 -0.6035  0.6989
 1579TIP3    H126152   0.873   5.795  12.826  0.2317  0.0296  0.9234
 1579TIP3    H226153   1.008   5.728  12.820  1.0597  1.4060  3.1526
 1580TIP3   OH226154   3.524   0.309   4.893  0.0676 -0.0654  0.7630
 1580TIP3    H126155   3.440   0.303   4.848  0.4672 -0.6345  0.0599
 1580TIP3    H226156   3.502   0.333   4.982 -0.7986  0.3963  0.4379
 1581TIP3   OH226157   1.976   3.188   4.482 -0.0289 -0.0940 -0.0872
 1581TIP3    H126158   1.915   3.144   4.541  0.4238 -0.1386  0.3535
 1581TIP3    H226159   1.954   3.154   4.396 -0.3946 -0.3743  0.1135
 1582TIP3   OH226160   1.641   0.243   2.108 -0.2504  0.4075 -0.1520
 1582TIP3    H126161   1.736   0.247   2.116 -0.0971  0.6518 -1.8241
 1582TIP3    H226162   1.609   0.315   2.162  0.6830  2.1646 -1.8628
 1583TIP3   OH226163   5.334   2.384  12.348 -0.2943  0.1953 -0.1445
 1583TIP3    H126164   5.262   2.326  12.373 -0.1775 -0.0420 -0.3420
 1583TIP3    H226165   5.316   2.406  12.257 -0.3140  0.4367 -0.0817
 1584TIP3   OH226166   4.841   6.044   3.954 -0.3417 -0.4255  0.4733
 1584TIP3    H126167   4.903   5.975   3.978 -1.0418 -0.5049  2.2502
 1584TIP3    H226168   4.891   6.103   3.897  0.7444 -1.5389  0.2346
 1585TIP3   OH226169   1.425   4.521   2.744 -0.4543 -0.6519  0.6115
 1585TIP3    H126170   1.332   4.541   2.749 -0.3215  1.0729 -1.6737
 1585TIP3    H226171   1.440   4.502   2.651  1.6389  0.3677  0.6739
 1586TIP3   OH226172   2.296   4.198  14.703  0.5188 -0.1949  0.1067
 1586TIP3    H126173   2.277   4.133  14.771  0.1202  0.4206  0.6010
 1586TIP3    H226174   2.291   4.149  14.621 -0.3408 -0.6784  0.4342
 1587TIP3   OH226175   6.704   6.574   0.800  0.5169 -0.0823  0.0091
 1587TIP3    H126176   6.776   6.538   0.748  1.0929  1.4752 -0.3421
 1587TIP3    H226177   6.676   6.652   0.751 -1.7664 -0.9148 -0.1242
 1588TIP3   OH226178   6.600   2.853  15.048  0.0257  0.6084  0.3675
 1588TIP3    H126179   6.584   2.873  14.956  0.0140 -0.0060  0.2313
 1588TIP3    H226180   6.529   2.792  15.072  0.5667  0.0242  0.5162
 1589TIP3   OH226181   3.661   0.533  11.777  0.1480  0.5024  0.6284
 1589TIP3    H126182   3.677   0.441  11.757  1.9391  0.4642  1.9693
 1589TIP3    H226183   3.583   0.556  11.726  1.3206 -0.9627 -2.0440
 1590TIP3   OH226184   4.688   5.857  12.869  0.1687 -0.0811 -0.0280
 1590TIP3    H126185   4.628   5.903  12.810 -0.1161 -0.4769 -0.0499
 1590TIP3    H226186   4.775   5.881  12.837  0.0935  1.8311  0.9987
 1591TIP3   OH226187   4.599   3.017   2.690  0.5933  0.3188 -0.1256
 1591TIP3    H126188   4.609   3.039   2.598 -2.1919  4.1382  0.2405
 1591TIP3    H226189   4.510   2.984   2.697  1.3716 -1.7061  1.0162
 1592TIP3   OH226190   4.008   2.888  11.288  0.1204 -0.2076  0.0521
 1592TIP3    H126191   3.949   2.936  11.346  0.0222  0.3446 -0.4867
 1592TIP3    H226192   4.090   2.938  11.290  0.8076 -1.3354  1.3061
 1593TIP3   OH226193   1.800   2.905  15.296 -0.0611 -0.2491 -0.0954
 1593TIP3    H126194   1.722   2.866  15.257  0.0378 -1.3562  0.7450
 1593TIP3    H226195   1.769   2.952  15.373 -0.0027  0.0905 -0.2759
 1594TIP3   OH226196   4.935   5.256  16.351  0.7271 -0.0279 -0.2855
 1594TIP3    H126197   4.929   5.173  16.304  1.3092 -1.9103  2.6707
 1594TIP3    H226198   4.857   5.258  16.407  1.7833  0.3508  1.2233
 1595TIP3   OH226199   0.002   5.127   0.643  0.0271 -0.2550 -0.0431
 1595TIP3    H126200   0.005   5.058   0.709  1.5795  0.2502  0.4657
 1595TIP3    H226201  -0.086   5.164   0.651 -0.6691 -1.8296 -0.0006
 1596TIP3   OH226202   3.369   6.612   4.091 -0.8219  0.5152  0.1597
 1596TIP3    H126203   3.459   6.645   4.091 -0.5879 -0.1033  0.8073
 1596TIP3    H226204   3.318   6.682   4.050 -0.0149  0.7738 -0.4373
 1597TIP3   OH226205   0.275   1.084  13.199 -0.1147 -0.0305  0.2410
 1597TIP3    H126206   0.263   1.065  13.106  0.5996 -1.1662  0.3578
 1597TIP3    H226207   0.357   1.133  13.203  0.0015 -0.2283  0.2953
 1598TIP3   OH226208   4.040   3.410  13.542 -0.4629 -0.4643 -0.3744
 1598TIP3    H126209   4.090   3.353  13.483  0.1769 -1.2023  0.8303
 1598TIP3    H226210   4.005   3.478  13.486  0.3684 -0.9754 -1.5587
 1599TIP3   OH226211   4.124   6.744   3.722  0.4855 -0.3616 -0.5615
 1599TIP3    H126212   4.147   6.780   3.636  0.5334 -3.2209 -1.8438
 1599TIP3    H226213   4.208   6.715   3.759  0.5376  1.3000  0.7496
 1600TIP3   OH226214   4.675   5.637   2.838 -0.6656  0.1892 -0.0221
 1600TIP3    H126215   4.744   5.572   2.856 -1.1497 -0.7372 -1.3771
 1600TIP3    H226216   4.711   5.720   2.869  0.6272 -0.4565  0.2551
 1601TIP3   OH226217   0.490   6.679   1.869 -0.0413 -0.2155 -0.2128
 1601TIP3    H126218   0.582   6.685   1.893  0.1677 -0.8409 -0.8402
 1601TIP3    H226219   0.490   6.636   1.784 -0.9175 -0.2646 -0.1963
 1602TIP3   OH226220   6.153   1.539   3.927  0.0609  0.0118 -1.1886
 1602TIP3    H126221   6.104   1.491   3.861 -0.4477  0.7315 -1.3468
 1602TIP3    H226222   6.132   1.631   3.910  1.8098  0.3843 -1.5525
 1603TIP3   OH226223   3.878   0.881  11.218  0.0848  0.2177 -0.2764
 1603TIP3    H126224   3.911   0.970  11.206  0.3671  0.0756 -0.5635
 1603TIP3    H226225   3.955   0.830  11.243 -0.2489  0.2426  0.8709
 1604TIP3   OH226226   1.890   5.046   0.203  0.1611  0.2342 -0.0623
 1604TIP3    H126227   1.979   5.059   0.173  0.1189 -2.2498 -1.5589
 1604TIP3    H226228   1.851   4.987   0.138 -2.2400  0.3983  1.1158
 1605TIP3   OH226229   1.463   1.111   3.347  0.4506 -0.4880 -0.2699
 1605TIP3    H126230   1.537   1.054   3.366 -0.9049 -2.0476  0.5507
 1605TIP3    H226231   1.456   1.168   3.424  0.6360 -0.5078 -0.2390
 1606TIP3   OH226232   4.199   1.848  13.057  1.0167 -0.8131 -0.1394
 1606TIP3    H126233   4.256   1.880  13.126 -1.0645 -1.0946  1.8351
 1606TIP3    H226234   4.229   1.893  12.978  2.0184  1.3329  1.3605
 1607TIP3   OH226235   3.919   1.999   4.957 -0.2212 -0.3339  0.3204
 1607TIP3    H126236   4.005   2.037   4.937  0.2355  0.2675  2.9909
 1607TIP3    H226237   3.865   2.019   4.880  1.4607  1.1419 -0.5512
 1608TIP3   OH226238   1.113   4.844  15.870 -0.4166  0.4754  0.4309
 1608TIP3    H126239   1.100   4.824  15.778  1.4296 -0.8984  0.4192
 1608TIP3    H226240   1.054   4.783  15.916 -1.4154  1.2348  0.1882
 1609TIP3   OH226241   2.606   5.574  15.927  0.2734 -0.2404  0.5664
 1609TIP3    H126242   2.598   5.652  15.982  2.2768  1.3550 -1.2475
 1609TIP3    H226243   2.558   5.595  15.847  0.2043 -1.1676  0.3545
 1610TIP3   OH226244   3.842   2.731  11.498 -0.1882  0.0000 -0.0277
 1610TIP3    H126245   3.889   2.772  11.570  0.2827  0.4237 -0.5659
 1610TIP3    H226246   3.756   2.775  11.498  0.8024  2.1262 -1.5095
 1611TIP3   OH226247   2.693   2.928   6.027  0.1490  0.0005  0.7896
 1611TIP3    H126248   2.755   3.001   6.034 -0.3452  0.2959  2.4599
 1611TIP3    H226249   2.747   2.849   6.032  0.4114  0.2539  2.3234
 1612TIP3   OH226250   2.491   0.871   4.217  0.5533  0.2430 -0.1184
 1612TIP3    H126251   2.566   0.916   4.257  0.1707 -0.0874  1.0070
 1612TIP3    H226252   2.511   0.778   4.225 -1.1762  0.0119  2.7685
 1613TIP3   OH226253   5.793   6.254   4.404  0.6560  0.0383  0.0660
 1613TIP3    H126254   5.728   6.232   4.337 -0.5119 -0.0348  1.1919
 1613TIP3    H226255   5.849   6.177   4.410 -0.1032 -0.5150  0.1743
 1614TIP3   OH226256   0.103   2.695  12.473  0.0472 -0.3903  0.0289
 1614TIP3    H126257   0.143   2.610  12.492 -0.7785 -0.5858  1.0072
 1614TIP3    H226258   0.121   2.747  12.551  0.2486  0.2230 -0.4231
 1615TIP3   OH226259   6.732   4.997   3.303 -0.2008 -0.2911  0.7168
 1615TIP3    H126260   6.721   4.989   3.398 -0.8431  0.1695  0.6885
 1615TIP3    H226261   6.712   5.089   3.285  1.6514  0.0999  0.3622
 1616TIP3   OH226262   6.629   3.888  13.087 -0.2279  0.2052  0.1432
 1616TIP3    H126263   6.667   3.958  13.035 -0.9758  0.3699 -0.1957
 1616TIP3    H226264   6.602   3.930  13.168  1.6652 -0.2020  1.0442
 1617TIP3   OH226265   0.572   2.740   4.530  0.2127  0.0231  0.2500
 1617TIP3    H126266   0.548   2.669   4.589  0.5996  0.7451  1.2975
 1617TIP3    H226267   0.625   2.799   4.583 -0.1843  1.1542 -0.5711
 1618TIP3   OH226268   3.627   5.967   5.396 -0.3129 -0.3026 -0.4502
 1618TIP3    H126269   3.640   5.876   5.423 -0.3132  0.2284  1.5343
 1618TIP3    H226270   3.586   6.008   5.472  2.9694  2.1822  0.1825
 1619TIP3   OH226271   3.052   4.301  12.861 -0.5712 -0.3040 -0.2177
 1619TIP3    H126272   3.079   4.318  12.770 -0.2622 -1.2699 -0.3164
 1619TIP3    H226273   2.966   4.342  12.868  0.8518  2.9763  0.1428
 1620TIP3   OH226274   3.317   5.758  14.791 -0.3575 -0.2978 -0.1501
 1620TIP3    H126275   3.277   5.834  14.834 -0.7908 -1.0293  0.7800
 1620TIP3    H226276   3.249   5.726  14.731 -0.2277 -0.0371 -0.4362
 1621TIP3   OH226277   6.191   2.800  14.276  0.2059 -0.2590 -0.2834
 1621TIP3    H126278   6.208   2.718  14.230  0.8827 -0.3171  0.0524
 1621TIP3    H226279   6.221   2.868  14.216 -0.9902 -0.2135 -0.8447
 1622TIP3   OH226280   2.583   3.160  12.967 -0.0238  0.4317 -1.0130
 1622TIP3    H126281   2.553   3.197  12.884  0.2123  1.6164 -0.5784
 1622TIP3    H226282   2.638   3.085  12.941 -0.8615  0.1037 -1.8825
 1623TIP3   OH226283   5.555   4.547   3.409  0.4998 -0.0205 -0.1535
 1623TIP3    H126284   5.603   4.569   3.330  2.4879 -0.8676  0.7520
 1623TIP3    H226285   5.464   4.570   3.389  1.3855  2.6286 -1.5785
 1624TIP3   OH226286   2.756   2.558   1.767  0.4050  0.4947  0.5097
 1624TIP3    H126287   2.769   2.498   1.840 -0.9534 -1.1706 -0.5374
 1624TIP3    H226288   2.781   2.644   1.801  1.4567 -0.5026  2.3657
 1625TIP3   OH226289   2.471   0.476   5.702  0.1834 -0.8967  0.2219
 1625TIP3    H126290   2.473   0.568   5.673  1.2046 -0.8276  0.4478
 1625TIP3    H226291   2.382   0.462   5.733  0.1145  0.1284  0.5150
 1626TIP3   OH226292   6.321   3.604   1.184  0.2135  0.1343 -0.1346
 1626TIP3    H126293   6.226   3.607   1.167 -0.0170 -0.0128  1.0688
 1626TIP3    H226294   6.355   3.547   1.115 -0.6668 -0.3669 -0.1807
 1627TIP3   OH226295   5.393   6.230   4.376  0.3602  0.0285 -0.1813
 1627TIP3    H126296   5.372   6.293   4.445  0.3977 -0.0351 -0.1127
 1627TIP3    H226297   5.480   6.256   4.345  1.5865 -1.6069  1.6731
 1628TIP3   OH226298   1.414   6.745  13.257  0.0611  0.0113  0.0751
 1628TIP3    H126299   1.381   6.672  13.309  0.3676 -0.2127 -0.0392
 1628TIP3    H226300   1.382   6.823  13.302 -0.5230 -0.1956  0.0296
 1629TIP3   OH226301   5.581   0.842   3.246  0.1090  0.1242  0.3426
 1629TIP3    H126302   5.551   0.823   3.157  3.3255  1.7066 -1.2301
 1629TIP3    H226303   5.522   0.912   3.276 -0.2026  0.4964 -1.0608
 1630TIP3   OH226304   1.945   4.908  11.005  0.7355 -0.0505 -0.0765
 1630TIP3    H126305   1.970   4.929  10.915 -0.1561 -0.4117 -0.4258
 1630TIP3    H226306   1.926   4.814  11.002  1.9285 -0.3402  0.7908
 1631TIP3   OH226307   6.129   0.357  13.768  0.3652 -0.3311 -0.4015
 1631TIP3    H126308   6.143   0.357  13.863 -0.4077 -0.4301 -0.2835
 1631TIP3    H226309   6.045   0.313  13.756 -0.7223  1.7676 -0.9537
 1632TIP3   OH226310   4.027   5.753   2.818  0.2954  0.2343  0.0514
 1632TIP3    H126311   3.976   5.750   2.737  0.0827 -2.4049  0.1934
 1632TIP3    H226312   4.034   5.846   2.839  0.0072  0.9738 -2.7567
 1633TIP3   OH226313   3.308   2.949  13.058 -0.0856 -0.3864 -0.0731
 1633TIP3    H126314   3.279   2.897  12.983 -0.8473 -1.5152  0.9578
 1633TIP3    H226315   3.245   2.928  13.128  1.9512 -1.2513  1.6081
 1634TIP3   OH226316   5.359   2.733  11.930  0.2959 -0.4038 -0.2414
 1634TIP3    H126317   5.394   2.714  11.843  0.1922  0.1360 -0.4028
 1634TIP3    H226318   5.300   2.807  11.917 -1.1859 -1.4983 -0.0269
 1635TIP3   OH226319   5.259   1.747  12.236 -0.2181 -0.4578  0.1796
 1635TIP3    H126320   5.167   1.719  12.239 -0.6320  0.9024  1.1423
 1635TIP3    H226321   5.303   1.691  12.300 -1.0124  0.8983  2.0026
 1636TIP3   OH226322   3.221   2.977   3.921 -1.0096  0.0459  0.6981
 1636TIP3    H126323   3.134   2.949   3.891 -0.5368 -0.1049 -0.6191
 1636TIP3    H226324   3.257   2.900   3.964 -1.0557 -0.2841  0.1539
 1637TIP3   OH226325   2.638   0.707   2.776  0.2591 -0.0589 -0.3341
 1637TIP3    H126326   2.601   0.619   2.766  0.7158 -0.1868 -0.8838
 1637TIP3    H226327   2.677   0.706   2.864  1.0640 -0.7010 -0.6947
 1638TIP3   OH226328   1.654   5.685  12.159  0.3656 -0.1771  0.2010
 1638TIP3    H126329   1.683   5.608  12.208  0.0099  0.6318  1.7471
 1638TIP3    H226330   1.723   5.699  12.093  1.5074 -0.5832  1.2709
 1639TIP3   OH226331   6.432   0.863   6.732  0.6867  0.0986 -0.4728
 1639TIP3    H126332   6.387   0.783   6.704  0.0067  0.3230 -0.0494
 1639TIP3    H226333   6.514   0.863   6.683 -0.0205 -0.0199 -1.7128
 1640TIP3   OH226334   3.670   1.325   2.806 -0.0147 -0.2090 -0.2706
 1640TIP3    H126335   3.646   1.410   2.769  0.6899  0.0282 -0.2079
 1640TIP3    H226336   3.763   1.315   2.784 -0.0434 -0.8739 -0.1061
 1641TIP3   OH226337   6.397   4.051  15.440 -0.0298 -0.4707 -0.1273
 1641TIP3    H126338   6.419   4.142  15.459 -0.4098  0.4115 -3.4469
 1641TIP3    H226339   6.302   4.051  15.428  0.0469 -1.1874 -0.7953
 1642TIP3   OH226340   2.186   0.163  14.954  0.3467 -0.5923  0.1622
 1642TIP3    H126341   2.253   0.119  15.007  0.7308  0.5902  0.7002
 1642TIP3    H226342   2.236   0.222  14.898 -0.1724 -0.6599 -0.3717
 1643TIP3   OH226343   6.179   4.345   2.128  0.2327 -0.1988  0.8272
 1643TIP3    H126344   6.097   4.328   2.082  0.1035  0.4887  0.7907
 1643TIP3    H226345   6.172   4.298   2.210 -0.8310  1.0397  1.4778
 1644TIP3   OH226346   3.780   5.291   2.787 -0.3207 -0.0245 -0.3386
 1644TIP3    H126347   3.801   5.385   2.793 -1.6229  0.3557 -1.2586
 1644TIP3    H226348   3.861   5.247   2.811  0.7360  1.3506 -1.2201
 1645TIP3   OH226349   6.187   5.499  15.154  0.0738 -0.3991  0.2287
 1645TIP3    H126350   6.152   5.559  15.221  1.1920  1.2555 -0.6041
 1645TIP3    H226351   6.113   5.443  15.131 -1.2217  1.1032  0.5748
 1646TIP3   OH226352   4.176   3.582  16.609 -0.1652 -0.0279 -0.0183
 1646TIP3    H126353   4.137   3.522  16.673 -1.0804  0.5001 -0.0741
 1646TIP3    H226354   4.248   3.624  16.656 -1.3546  0.9803  0.9601
 1647TIP3   OH226355   0.869   3.545  15.456  0.2403  0.2015 -1.1772
 1647TIP3    H126356   0.782   3.510  15.442 -0.3662  1.6226 -1.1364
 1647TIP3    H226357   0.874   3.622  15.400  0.7615  1.2384  0.2147
 1648TIP3   OH226358   1.781   4.477  16.474 -0.0737 -0.4513  0.0526
 1648TIP3    H126359   1.747   4.474  16.385  0.4683 -2.1387 -0.1269
 1648TIP3    H226360   1.707   4.451  16.529 -0.3032  0.2303  0.0741
 1649TIP3   OH226361   6.489   0.642  14.965  0.4774  0.2520  0.0625
 1649TIP3    H126362   6.491   0.735  14.942  0.6922  0.1317 -0.4078
 1649TIP3    H226363   6.413   0.634  15.023 -0.4280  0.4528 -1.0627
 1650TIP3   OH226364   3.868   0.796  14.871 -0.2509 -0.5235  0.0366
 1650TIP3    H126365   3.828   0.883  14.866 -0.9816 -0.8938 -1.0436
 1650TIP3    H226366   3.798   0.737  14.842  1.2889 -1.1348 -2.7569
 1651TIP3   OH226367   1.905   4.324   4.525  0.0917  0.7225  0.5628
 1651TIP3    H126368   1.968   4.307   4.595  0.6463  0.6301  0.0542
 1651TIP3    H226369   1.933   4.407   4.486  1.1611 -0.2933 -0.9794
 1652TIP3   OH226370   4.177   2.236  15.773  0.2829  0.0719 -0.0848
 1652TIP3    H126371   4.184   2.318  15.723 -0.6935  0.3669  0.2364
 1652TIP3    H226372   4.118   2.181  15.721 -1.0816  0.5416  0.9171
 1653TIP3   OH226373   6.090   3.778   3.859  0.6552 -0.0757 -0.6522
 1653TIP3    H126374   6.137   3.794   3.942 -0.0505  0.0731 -0.2776
 1653TIP3    H226375   6.018   3.841   3.860  0.2879 -0.4861 -1.0993
 1654TIP3   OH226376   5.996   1.049   1.935  0.3416  0.3274 -0.0224
 1654TIP3    H126377   6.030   1.090   2.015  1.2702  1.1631 -0.8292
 1654TIP3    H226378   5.902   1.045   1.950  0.2770  2.1690  0.3772
 1655TIP3   OH226379   3.526   4.209  15.774 -0.2282 -0.1798  0.1903
 1655TIP3    H126380   3.464   4.201  15.702  1.6492  0.5578 -1.5923
 1655TIP3    H226381   3.607   4.238  15.733  1.5056 -1.6690  2.3132
 1656TIP3   OH226382   6.293   5.116  11.283 -0.4181  0.4281  0.0905
 1656TIP3    H126383   6.246   5.059  11.223 -0.4817  0.4171  0.1511
 1656TIP3    H226384   6.361   5.156  11.229  1.1790 -1.5214  0.5397
 1657TIP3   OH226385   4.482   0.097  11.475  0.2558  0.7684 -0.0022
 1657TIP3    H126386   4.549   0.087  11.543 -1.1312  1.8249  1.6112
 1657TIP3    H226387   4.499   0.183  11.436  0.5041  0.5487 -0.3887
 1658TIP3   OH226388   1.052   0.505   2.982  0.3858 -0.5865  0.3781
 1658TIP3    H126389   1.084   0.567   3.048 -0.9663  0.2235  0.2980
 1658TIP3    H226390   1.111   0.517   2.907  0.1227  0.6423  0.3518
 1659TIP3   OH226391   2.209   0.427   5.793 -0.2037  0.2448 -0.1207
 1659TIP3    H126392   2.181   0.425   5.885  0.1341  0.7927  0.0025
 1659TIP3    H226393   2.213   0.521   5.772  0.8327  0.1672 -0.3392
 1660TIP3   OH226394   0.778   5.062  14.260 -0.3048  0.6067  0.3722
 1660TIP3    H126395   0.739   5.077  14.174  1.3768  1.2543 -0.3252
 1660TIP3    H226396   0.794   5.150  14.294 -1.8812  0.3730  1.8356
 1661TIP3   OH226397   0.233   2.913  15.763 -0.6553  0.4981  0.4359
 1661TIP3    H126398   0.224   2.965  15.843  1.1192 -0.5176  1.3473
 1661TIP3    H226399   0.316   2.940  15.726  0.2159 -1.4451  0.8176
 1662TIP3   OH226400   6.253   3.235   1.595  0.1011  0.0200 -0.2122
 1662TIP3    H126401   6.170   3.281   1.579  0.3094  0.5738  0.2468
 1662TIP3    H226402   6.277   3.260   1.684  0.9275  0.1294 -0.4581
 1663TIP3   OH226403   5.576   3.566   3.624 -0.2039 -0.4490 -0.0566
 1663TIP3    H126404   5.499   3.557   3.680  1.2284 -0.1626  2.0589
 1663TIP3    H226405   5.634   3.495   3.651  0.7493  0.0150 -0.8399
 1664TIP3   OH226406   0.895   0.133   2.528  0.3147 -0.2595 -0.0065
 1664TIP3    H126407   0.810   0.093   2.513  0.1342  0.3582 -0.7252
 1664TIP3    H226408   0.928   0.091   2.607 -0.6778 -0.4554  0.3164
 1665TIP3   OH226409   2.098   5.171  14.651  0.7793 -0.0101  0.5130
 1665TIP3    H126410   2.036   5.103  14.677  0.1556  0.8164  1.2504
 1665TIP3    H226411   2.058   5.212  14.574  0.4991  0.3945  0.8711
 1666TIP3   OH226412   6.315   2.034  15.160  0.1317 -0.2288 -0.0867
 1666TIP3    H126413   6.240   2.083  15.126  1.0185  0.3054 -1.3722
 1666TIP3    H226414   6.309   2.044  15.255 -0.3532  1.4314 -0.2624
 1667TIP3   OH226415   4.512   4.135   4.581 -0.1874  0.1067 -0.0280
 1667TIP3    H126416   4.545   4.207   4.633 -1.4900  0.3572  0.5071
 1667TIP3    H226417   4.493   4.066   4.645  2.0481 -1.1569 -0.6388
 1668TIP3   OH226418   5.558   3.067  11.374 -0.5058  0.1478  0.0822
 1668TIP3    H126419   5.634   3.018  11.342 -2.1347 -1.2038 -1.9605
 1668TIP3    H226420   5.520   3.011  11.441 -1.2588 -0.5201 -0.8795
 1669TIP3   OH226421   3.615   0.214  16.035 -0.3774  0.2604  0.6811
 1669TIP3    H126422   3.700   0.172  16.025  1.0222  2.9028  0.5304
 1669TIP3    H226423   3.582   0.223  15.946  0.8776  2.3120  0.3597
 1670TIP3   OH226424   4.261   4.458   5.645  0.0794 -0.0250  0.0175
 1670TIP3    H126425   4.206   4.466   5.723  0.5482  3.9343  0.1636
 1670TIP3    H226426   4.205   4.485   5.573  1.0721  1.7705 -0.1508
 1671TIP3   OH226427   4.582   5.370  16.944 -0.2180 -0.5060 -0.1719
 1671TIP3    H126428   4.637   5.311  16.997 -1.2487 -0.3701  1.0888
 1671TIP3    H226429   4.634   5.450  16.936  0.0114 -0.5746  0.5472
 1672TIP3   OH226430   3.514   4.753  11.271  0.3575  0.3076 -0.0309
 1672TIP3    H126431   3.600   4.784  11.299  0.4308  0.5606 -0.5335
 1672TIP3    H226432   3.532   4.674  11.220  0.3090  0.4652 -0.2955
 1673TIP3   OH226433   3.440   2.916  15.527  0.5328 -0.1571 -0.2105
 1673TIP3    H126434   3.350   2.919  15.493  0.0621  0.4056  0.9948
 1673TIP3    H226435   3.433   2.862  15.606  1.3561 -0.5296 -0.3937
 1674TIP3   OH226436   5.644   3.470  12.307  0.0630  0.6796 -0.4402
 1674TIP3    H126437   5.605   3.532  12.247 -2.3523 -0.7189 -0.4595
 1674TIP3    H226438   5.627   3.506  12.394  0.7768  1.1660 -0.4934
 1675TIP3   OH226439   2.921   6.617   2.943 -0.0326  0.6386  0.4901
 1675TIP3    H126440   2.887   6.674   2.873  0.0859 -2.6534 -2.5290
 1675TIP3    H226441   2.929   6.675   3.019 -2.2964  3.9943 -1.5508
 1676TIP3   OH226442   4.352   5.594  13.736 -0.5377  0.0333 -0.5543
 1676TIP3    H126443   4.338   5.533  13.664 -0.2871 -0.8947  0.1713
 1676TIP3    H226444   4.412   5.660  13.700  1.9480 -1.9961 -0.3510
 1677TIP3   OH226445   5.468   2.953  15.872 -0.5177  0.4454 -0.4000
 1677TIP3    H126446   5.563   2.955  15.857 -0.2053 -0.7874  1.0477
 1677TIP3    H226447   5.444   3.043  15.891  0.1849  0.9237 -1.6868
 1678TIP3   OH226448   2.518   3.513   4.152  0.1371 -0.6172  0.5220
 1678TIP3    H126449   2.488   3.570   4.082 -0.4819 -3.0852 -1.3610
 1678TIP3    H226450   2.457   3.528   4.224 -2.0545 -1.2458 -1.1136
 1679TIP3   OH226451   2.795   6.175  13.937 -0.2787  0.3120  0.1241
 1679TIP3    H126452   2.776   6.146  13.848  1.6513  0.5210 -0.3968
 1679TIP3    H226453   2.802   6.271  13.929 -0.6490  0.3850  0.6274
 1680TIP3   OH226454   0.443   1.813   6.771 -0.2010  0.1395  0.2265
 1680TIP3    H126455   0.462   1.747   6.838  0.5288 -0.0661 -0.1717
 1680TIP3    H226456   0.373   1.774   6.718 -0.5228  0.1485  0.6378
 1681TIP3   OH226457   5.444   6.364   0.052 -0.5832 -0.4802 -0.0798
 1681TIP3    H126458   5.521   6.419   0.069 -0.7375 -0.2896  0.0040
 1681TIP3    H226459   5.426   6.377  -0.041  0.4291 -1.7371 -0.4796
 1682TIP3   OH226460   1.593   6.711  15.043 -0.0799 -0.2052 -1.1067
 1682TIP3    H126461   1.646   6.659  15.104 -0.4025 -0.0223 -0.6694
 1682TIP3    H226462   1.542   6.646  14.994 -0.6568 -0.2980 -0.3987
 1683TIP3   OH226463   4.783   4.899   5.460 -0.5367  0.2270  0.1213
 1683TIP3    H126464   4.708   4.916   5.516 -0.0335 -0.0172  0.8842
 1683TIP3    H226465   4.746   4.868   5.378 -1.2197 -2.0952  1.2515
 1684TIP3   OH226466   3.991   0.369   3.867 -0.3106  0.0979 -0.0302
 1684TIP3    H126467   3.946   0.371   3.782 -0.5166  0.8340  0.0880
 1684TIP3    H226468   3.976   0.456   3.904  0.5673  0.0985  0.3545
 1685TIP3   OH226469   4.226   6.759  11.909  0.0504  0.2655 -0.2259
 1685TIP3    H126470   4.224   6.854  11.913 -0.3821  0.2606  3.3052
 1685TIP3    H226471   4.138   6.733  11.882  0.0325  0.8420 -0.7291
 1686TIP3   OH226472   3.357   1.173   0.324  0.1494  0.2871 -0.5872
 1686TIP3    H126473   3.272   1.135   0.305 -0.7525  0.3572  2.6562
 1686TIP3    H226474   3.339   1.265   0.344  0.7931  0.1334  0.8825
 1687TIP3   OH226475   3.611   1.894   3.953 -0.3544  0.4904  0.0187
 1687TIP3    H126476   3.671   1.856   4.017 -1.4216 -1.9403 -0.3388
 1687TIP3    H226477   3.668   1.942   3.893  0.9262  0.4910  1.1780
 1688TIP3   OH226478   4.118   6.712   4.325 -0.0929 -0.0272  0.4351
 1688TIP3    H126479   4.041   6.769   4.322  0.0309  0.2035  1.2861
 1688TIP3    H226480   4.166   6.733   4.245 -0.2999  0.7164  0.4980
 1689TIP3   OH226481   3.386   4.950   4.702  0.7672 -0.1155 -0.1028
 1689TIP3    H126482   3.437   4.909   4.633  0.3536 -0.1324 -0.3993
 1689TIP3    H226483   3.452   4.990   4.759  1.0818  2.1061 -1.8594
 1690TIP3   OH226484   2.966   4.754  16.915  0.4545 -0.8010 -0.0918
 1690TIP3    H126485   2.999   4.840  16.942  1.0004 -0.7843 -0.7826
 1690TIP3    H226486   2.944   4.765  16.823  1.5523 -1.6938 -0.4742
 1691TIP3   OH226487   0.461   3.014   2.240  0.1670  1.0798 -0.2280
 1691TIP3    H126488   0.513   3.082   2.198 -0.1813  0.6592 -1.3748
 1691TIP3    H226489   0.524   2.944   2.259  0.3442  1.3116  0.0376
 1692TIP3   OH226490   5.083   4.433   4.275 -0.3281  1.1409  0.1518
 1692TIP3    H126491   5.060   4.517   4.235  0.0193  1.7811  1.2741
 1692TIP3    H226492   5.178   4.427   4.266 -0.4171  0.5553 -0.5035
 1693TIP3   OH226493   0.101   1.222  12.378 -0.1705  0.2775  0.4068
 1693TIP3    H126494   0.147   1.220  12.462  1.3145  0.3330 -0.3601
 1693TIP3    H226495   0.041   1.148  12.380 -1.4135  1.2664  2.1605
 1694TIP3   OH226496   6.093   2.469   1.037 -0.0540  0.1919 -0.0648
 1694TIP3    H126497   6.077   2.397   0.977 -0.9881 -0.5943  1.0857
 1694TIP3    H226498   6.005   2.504   1.056  0.0183 -0.7346  2.2061
 1695TIP3   OH226499   3.571   0.061   0.740  0.7156  0.3311 -0.1474
 1695TIP3    H126500   3.629   0.128   0.703  1.1758  1.3196  2.1616
 1695TIP3    H226501   3.573   0.077   0.834  1.3315 -3.3714  0.6088
 1696TIP3   OH226502   2.346   6.430  12.711  0.2102 -0.1033 -0.2603
 1696TIP3    H126503   2.341   6.340  12.742  0.2598  0.3330  1.0605
 1696TIP3    H226504   2.355   6.483  12.790 -0.5857  1.1265 -0.9567
 1697TIP3   OH226505   3.413   0.316   5.401 -0.0412  0.2658 -0.2881
 1697TIP3    H126506   3.409   0.354   5.489 -0.4809 -0.8759  0.2024
 1697TIP3    H226507   3.334   0.348   5.358  0.6486  1.6143 -0.6274
 1698TIP3   OH226508   0.215   0.606  12.184  0.9675 -0.1245  0.2205
 1698TIP3    H126509   0.259   0.679  12.227 -1.1071  1.6340 -0.4600
 1698TIP3    H226510   0.160   0.567  12.252  0.8607 -0.0271  0.1902
 1699TIP3   OH226511   2.479   1.474  13.825  0.3550  0.2331  0.1870
 1699TIP3    H126512   2.411   1.539  13.812 -0.5827 -0.9229 -0.9182
 1699TIP3    H226513   2.499   1.441  13.737  2.4916  0.6495  0.4479
 1700TIP3   OH226514   2.562   4.880   0.525  0.4133 -0.1307  0.4760
 1700TIP3    H126515   2.650   4.866   0.491  0.4797 -1.6899  1.2308
 1700TIP3    H226516   2.506   4.879   0.447  0.8891 -0.6239  0.1341
 1701TIP3   OH226517   4.436   3.965   0.686 -0.6509  0.8657 -0.1601
 1701TIP3    H126518   4.443   3.872   0.667  0.2453  0.7892  0.5157
 1701TIP3    H226519   4.511   3.984   0.743 -0.3121  2.1704 -0.9967
 1702TIP3   OH226520   5.854   4.897   0.312 -0.6063 -0.6072 -0.0935
 1702TIP3    H126521   5.831   4.988   0.329 -0.7867 -0.7415  0.4201
 1702TIP3    H226522   5.949   4.894   0.316 -0.6030 -0.4491 -0.0682
 1703TIP3   OH226523   1.907   2.959  13.124  0.5328 -0.0317  0.2302
 1703TIP3    H126524   2.001   2.950  13.107  0.3816  0.7180 -1.2094
 1703TIP3    H226525   1.892   2.910  13.204  2.3333  0.6691  1.0577
 1704TIP3   OH226526   0.937   0.922  12.059  0.3521  0.5843  0.4606
 1704TIP3    H126527   0.933   0.995  11.998 -0.8990  1.6776  1.7902
 1704TIP3    H226528   0.887   0.852  12.016 -0.8847  1.4825  0.3927
 1705TIP3   OH226529   4.480   5.682   5.941  0.1873 -0.3856 -0.7843
 1705TIP3    H126530   4.532   5.605   5.915  0.7911 -0.3280  0.1987
 1705TIP3    H226531   4.420   5.649   6.007  1.6536  0.2862  0.9771
 1706TIP3   OH226532   6.183   3.636   5.500 -0.5344  0.4225  0.1623
 1706TIP3    H126533   6.228   3.618   5.582  1.7405  0.3156 -1.0260
 1706TIP3    H226534   6.188   3.731   5.489  1.1943  0.2544 -0.8694
 1707TIP3   OH226535   4.904   0.850   0.227 -0.4581 -0.2133  0.1190
 1707TIP3    H126536   4.902   0.776   0.166 -0.0553  0.3525 -0.5865
 1707TIP3    H226537   4.838   0.828   0.293 -2.6048  0.2380 -1.7582
 1708TIP3   OH226538   2.115   3.442  15.652 -0.8164 -0.3388  0.2690
 1708TIP3    H126539   2.159   3.443  15.567 -1.0684 -2.1059  0.0824
 1708TIP3    H226540   2.029   3.480  15.636 -0.0824  1.3680  0.2258
 1709TIP3   OH226541   2.323   6.318  13.648 -0.0354 -0.9676 -0.2517
 1709TIP3    H126542   2.391   6.353  13.705 -0.0755  2.8986 -2.2849
 1709TIP3    H226543   2.246   6.309  13.705  1.0287 -1.5154  1.1688
 1710TIP3   OH226544   6.686   1.001   3.626 -0.1019  0.0290 -0.4360
 1710TIP3    H126545   6.720   1.014   3.538  1.4907 -1.0058  0.0026
 1710TIP3    H226546   6.753   0.951   3.671 -1.5545 -0.7612  0.9339
 1711TIP3   OH226547   5.998   1.346  12.648  0.5032  0.4612 -0.6702
 1711TIP3    H126548   5.940   1.400  12.595  0.1101  1.8249  1.0231
 1711TIP3    H226549   5.974   1.256  12.628 -1.9484  0.9778 -0.3171
 1712TIP3   OH226550   5.941   2.929   0.181  0.2593 -0.1580  0.0258
 1712TIP3    H126551   6.032   2.906   0.162  0.2026  0.1405 -0.6531
 1712TIP3    H226552   5.939   3.025   0.172  0.2231  0.0056  1.5870
 1713TIP3   OH226553   6.436   2.805  16.248  1.0331  0.1518  0.4384
 1713TIP3    H126554   6.351   2.820  16.290 -0.0074 -0.6370 -1.3117
 1713TIP3    H226555   6.447   2.710  16.249  0.5047  0.0290 -1.9396
 1714TIP3   OH226556   1.280   0.169  13.420 -0.0481 -0.2704  0.5136
 1714TIP3    H126557   1.223   0.218  13.478  0.9383 -0.6735  1.8630
 1714TIP3    H226558   1.358   0.223  13.411  0.5356 -1.0141  1.0090
 1715TIP3   OH226559   3.554   0.958   0.980 -0.4181  0.1078 -0.1036
 1715TIP3    H126560   3.557   0.866   0.953 -0.3767  0.9074 -3.2239
 1715TIP3    H226561   3.633   0.997   0.941 -1.3014  1.7928 -0.3184
 1716TIP3   OH226562   1.891   3.435   4.764  0.4557 -0.5433 -0.8918
 1716TIP3    H126563   1.826   3.366   4.751 -2.1230  0.8067  2.9831
 1716TIP3    H226564   1.843   3.516   4.745  1.3613  0.4374  0.7607
 1717TIP3   OH226565   0.676   4.835   2.064 -0.0363  0.1206 -0.5049
 1717TIP3    H126566   0.763   4.794   2.059 -0.1046 -0.4368  1.8409
 1717TIP3    H226567   0.617   4.761   2.078 -0.8076  0.5888 -1.2250
 1718TIP3   OH226568   1.648   1.233   0.755  0.1274 -0.4265 -0.0698
 1718TIP3    H126569   1.656   1.238   0.851  0.4399 -1.4821 -0.0217
 1718TIP3    H226570   1.735   1.206   0.725 -0.8942 -4.0615 -0.2555
 1719TIP3   OH226571   0.465   0.457   0.991  0.3108 -0.1411  0.1501
 1719TIP3    H126572   0.529   0.438   0.922  0.6828  0.2963  0.3676
 1719TIP3    H226573   0.385   0.480   0.944  1.0474  1.8731 -0.1827
 1720TIP3   OH226574   3.000   0.020   3.560 -0.6148 -0.5643  0.0086
 1720TIP3    H126575   3.062  -0.047   3.591  1.6157  1.3974  0.1246
 1720TIP3    H226576   2.949   0.044   3.638  1.2627  0.5332  0.9863
 1721TIP3   OH226577   3.483   1.123  15.192  0.4490 -0.0227  0.2693
 1721TIP3    H126578   3.475   1.029  15.210 -2.1945  0.2981  1.2323
 1721TIP3    H226579   3.449   1.166  15.271  2.3200  1.8189  0.1755
 1722TIP3   OH226580   1.406   2.479  10.686  0.0886  0.1363 -0.0791
 1722TIP3    H126581   1.399   2.397  10.636 -0.0643 -0.7592  1.3523
 1722TIP3    H226582   1.495   2.511  10.667  2.6239 -3.5068  3.7942
 1723TIP3   OH226583   0.338   4.862   3.575 -0.4374 -0.7403 -0.0279
 1723TIP3    H126584   0.419   4.912   3.572 -0.3559 -0.9248 -1.1937
 1723TIP3    H226585   0.276   4.913   3.523 -1.0165 -0.7270  0.6469
 1724TIP3   OH226586   2.309   4.728   5.554  0.3824 -0.0605  0.2587
 1724TIP3    H126587   2.328   4.661   5.620 -0.8935 -1.5207 -0.7801
 1724TIP3    H226588   2.370   4.708   5.482 -0.5229 -0.6323 -0.3710
 1725TIP3   OH226589   0.401   6.336   0.731 -0.1280 -0.0791 -0.2075
 1725TIP3    H126590   0.480   6.344   0.677  0.0267 -0.8525 -0.1021
 1725TIP3    H226591   0.342   6.281   0.680  0.7347 -2.4092  1.1748
 1726TIP3   OH226592   3.910   6.630  14.291 -0.3267  0.7082  0.2015
 1726TIP3    H126593   3.873   6.710  14.328 -1.9060  0.2467 -0.2944
 1726TIP3    H226594   3.915   6.647  14.197 -0.7476  0.2087  0.0825
 1727TIP3   OH226595   4.965   3.523  14.636 -0.4867 -0.1438 -0.1065
 1727TIP3    H126596   4.968   3.619  14.640 -1.2563 -0.0763 -0.8786
 1727TIP3    H226597   5.050   3.495  14.671 -0.4288  0.7975  0.5584
 1728TIP3   OH226598   2.940   1.161  12.369 -0.0759 -0.0445  0.6463
 1728TIP3    H126599   3.034   1.162  12.350 -0.2567 -0.2560 -0.3266
 1728TIP3    H226600   2.928   1.091  12.432  0.2394 -0.9825 -0.3048
 1729TIP3   OH226601   2.031   6.783   1.605 -0.1117 -0.3643 -0.0870
 1729TIP3    H126602   2.016   6.692   1.579  1.0854 -0.3123 -1.0255
 1729TIP3    H226603   2.080   6.777   1.687  0.5876 -0.5719 -0.5182
 1730TIP3   OH226604   3.633   6.523  12.413 -0.1749  0.0838  0.2881
 1730TIP3    H126605   3.676   6.599  12.372  1.4152 -1.3247 -0.7965
 1730TIP3    H226606   3.649   6.534  12.506 -0.1800  1.2015  0.1704
 1731TIP3   OH226607   2.378   5.206  16.113 -0.3933  0.1320 -0.0624
 1731TIP3    H126608   2.460   5.156  16.119 -0.8506 -0.6192  0.1600
 1731TIP3    H226609   2.322   5.152  16.057 -1.1981 -0.0365  0.8829
 1732TIP3   OH226610   3.650   0.965  15.465  0.1701  0.0464 -0.1743
 1732TIP3    H126611   3.701   1.001  15.392 -0.0943 -1.6639 -1.2487
 1732TIP3    H226612   3.636   1.040  15.523  2.1367  1.0147 -0.8519
 1733TIP3   OH226613   4.408   3.151   5.464 -0.0072 -0.9264 -0.2978
 1733TIP3    H126614   4.442   3.103   5.539 -0.2739  1.2458  1.3222
 1733TIP3    H226615   4.485   3.170   5.411  0.6203 -0.1403  0.8689
 1734TIP3   OH226616   0.190   4.530  14.521  0.1188 -0.2734  0.8767
 1734TIP3    H126617   0.282   4.547  14.539  0.8537 -1.7482 -1.1065
 1734TIP3    H226618   0.161   4.606  14.470  1.5592 -1.7142 -2.3411
 1735TIP3   OH226619   3.651   3.463  13.319 -0.5537 -0.1716  0.8089
 1735TIP3    H126620   3.567   3.425  13.345 -0.7464 -0.7756 -0.6059
 1735TIP3    H226621   3.709   3.388  13.306 -1.2855 -0.2588 -3.2390
 1736TIP3   OH226622   2.840   4.892  15.824 -0.2464  0.0557  0.1847
 1736TIP3    H126623   2.908   4.833  15.794 -0.8075 -0.3565 -0.2908
 1736TIP3    H226624   2.837   4.961  15.758  1.7999  1.7748  1.7378
 1737TIP3   OH226625   6.146   0.755  13.371  0.1222 -0.2306  0.2653
 1737TIP3    H126626   6.110   0.822  13.313  0.3109  0.2048  0.6504
 1737TIP3    H226627   6.241   0.761  13.359  0.1263 -0.7045  0.0030
 1738TIP3   OH226628   6.278   3.205   3.374 -0.2507 -0.2181  0.5490
 1738TIP3    H126629   6.347   3.254   3.418 -0.7040 -0.3570  1.4203
 1738TIP3    H226630   6.300   3.113   3.389  0.9064 -0.3541 -1.5460
 1739TIP3   OH226631   5.879   3.974  10.939 -0.0577  0.7378 -0.3337
 1739TIP3    H126632   5.860   3.882  10.920 -0.4508  0.9127 -0.7860
 1739TIP3    H226633   5.974   3.976  10.951 -0.1898  0.0221  1.0920
 1740TIP3   OH226634   1.576   4.905  17.085 -0.8228 -0.4118 -0.2477
 1740TIP3    H126635   1.481   4.892  17.085 -0.8061 -0.6636 -1.4240
 1740TIP3    H226636   1.588   4.993  17.051 -0.6632  0.1390  1.1552
 1741TIP3   OH226637   3.896   2.903   2.003  0.2279  0.4149 -0.1461
 1741TIP3    H126638   3.857   2.828   1.959 -0.2675  1.4708 -1.5637
 1741TIP3    H226639   3.967   2.931   1.946  0.8660  0.6162  0.7169
 1742TIP3   OH226640   2.557   5.873  15.959  0.0598 -0.2705  0.0827
 1742TIP3    H126641   2.573   5.887  15.866 -0.9758 -0.5650 -0.1536
 1742TIP3    H226642   2.521   5.956  15.990 -2.4890 -1.0899 -0.4813
 1743TIP3   OH226643   3.736   1.656   5.243 -0.0530  0.6503  0.1854
 1743TIP3    H126644   3.786   1.726   5.285 -1.1779  1.3206  0.4574
 1743TIP3    H226645   3.799   1.585   5.230  0.4267  0.5021  2.8163
 1744TIP3   OH226646   3.311   1.682   1.285  0.1014  0.1008 -0.3837
 1744TIP3    H126647   3.311   1.594   1.322 -2.0582 -0.3447 -1.2888
 1744TIP3    H226648   3.248   1.678   1.213 -0.5592  2.5562 -0.0478
 1745TIP3   OH226649   2.021   2.088   1.134 -0.1515 -0.0630 -0.2226
 1745TIP3    H126650   2.077   2.014   1.112 -0.6580 -0.0945 -1.5608
 1745TIP3    H226651   2.065   2.164   1.094 -1.2380 -0.1573 -1.7266
 1746TIP3   OH226652   3.376   3.144   2.474  0.0330  0.6629 -0.2253
 1746TIP3    H126653   3.325   3.178   2.400  2.1132  2.3600 -1.0060
 1746TIP3    H226654   3.421   3.068   2.439  0.4675  1.0485 -0.5241
 1747TIP3   OH226655   5.201   4.826   2.203  0.1070  0.7195  0.1054
 1747TIP3    H126656   5.236   4.754   2.151  0.0064  0.8215 -0.1042
 1747TIP3    H226657   5.154   4.881   2.140 -1.1095  0.1712  0.4950
 1748TIP3   OH226658   5.528   2.681  16.593  0.2149  0.3764  0.9494
 1748TIP3    H126659   5.560   2.725  16.672  1.1082  0.5551  0.5078
 1748TIP3    H226660   5.507   2.752  16.533  0.7500  0.2292  0.5787
 1749TIP3   OH226661   2.327   1.632  12.791 -0.3550 -0.0151 -0.2924
 1749TIP3    H126662   2.346   1.576  12.715  1.1807 -0.2146  0.2019
 1749TIP3    H226663   2.233   1.622  12.805 -0.5377 -0.5607 -1.7058
 1750TIP3   OH226664   4.456   4.610   1.441  0.2822 -0.0587 -0.4018
 1750TIP3    H126665   4.436   4.539   1.502  0.9654  0.5097  0.5011
 1750TIP3    H226666   4.551   4.604   1.428  0.2962  0.4970 -0.5639
 1751TIP3   OH226667   0.433   2.560  15.293 -0.5406 -0.0960 -0.0936
 1751TIP3    H126668   0.348   2.554  15.336 -0.1296  0.9255  0.9246
 1751TIP3    H226669   0.453   2.654  15.292  1.0341 -0.3865  0.6188
 1752TIP3   OH226670   5.513   6.395   1.822  0.3412  0.0676  0.0110
 1752TIP3    H126671   5.609   6.393   1.823  0.3835  0.1129 -1.2559
 1752TIP3    H226672   5.488   6.312   1.780 -0.2404 -0.5902  1.5978
 1753TIP3   OH226673   1.514   1.171  12.178 -0.1138  0.5148  0.0445
 1753TIP3    H126674   1.589   1.114  12.197 -0.1123 -0.5047 -2.6721
 1753TIP3    H226675   1.442   1.133  12.228  0.3476 -0.7092 -0.1816
 1754TIP3   OH226676   2.493   2.333  11.497 -0.8388 -0.2723  0.4271
 1754TIP3    H126677   2.565   2.314  11.438 -0.5973  0.9706  0.3001
 1754TIP3    H226678   2.472   2.249  11.537  0.6944 -0.6533  0.4913
 1755TIP3   OH226679   6.212   2.919  14.648 -0.4918  0.1168 -0.5195
 1755TIP3    H126680   6.163   2.837  14.634 -0.4627 -0.1310  0.7212
 1755TIP3    H226681   6.146   2.981  14.679 -0.4150  0.4258 -0.9634
 1756TIP3   OH226682   3.338   2.215  15.422 -0.2418  0.4143  0.0693
 1756TIP3    H126683   3.357   2.178  15.508 -0.0956  0.7129  0.1669
 1756TIP3    H226684   3.376   2.153  15.360 -0.7126 -0.0136  0.2060
 1757TIP3   OH226685   6.377   3.151  13.970 -0.4417  0.3062 -0.1246
 1757TIP3    H126686   6.440   3.217  13.943 -0.0451 -0.3017 -0.7223
 1757TIP3    H226687   6.337   3.186  14.050  0.5162  0.7767  0.1561
 1758TIP3   OH226688   4.829   5.334  14.836  0.5864 -0.0372 -0.1793
 1758TIP3    H126689   4.905   5.389  14.856  1.1291 -0.5255 -0.8213
 1758TIP3    H226690   4.846   5.302  14.747 -1.2603  1.3319 -1.1122
 1759TIP3   OH226691   3.467   1.226   2.055 -0.6516  0.2568 -0.2729
 1759TIP3    H126692   3.450   1.241   1.962  0.8221 -1.1466 -0.8069
 1759TIP3    H226693   3.526   1.297   2.080 -0.3605  0.1394 -0.6258
 1760TIP3   OH226694   4.303   0.392   3.041 -0.0016 -0.0544  0.1526
 1760TIP3    H126695   4.259   0.344   3.111 -0.6880 -0.4063 -0.5017
 1760TIP3    H226696   4.249   0.470   3.028 -0.0769 -0.1576 -0.1962
 1761TIP3   OH226697   5.935   4.369  14.113 -0.2731  0.2603 -0.2066
 1761TIP3    H126698   5.947   4.395  14.022 -0.7616  0.2182 -0.2867
 1761TIP3    H226699   6.000   4.420  14.161 -0.9315  1.3224 -0.4148
 1762TIP3   OH226700   4.095   4.609   3.740 -0.0252 -0.0189 -0.3955
 1762TIP3    H126701   4.161   4.572   3.799 -0.2010 -1.9525 -1.3325
 1762TIP3    H226702   4.144   4.669   3.684  0.5890 -0.0247  0.1264
 1763TIP3   OH226703   2.701   2.447  12.205 -0.0159  0.5724 -0.2453
 1763TIP3    H126704   2.700   2.462  12.300  1.3916  1.1031 -0.2882
 1763TIP3    H226705   2.614   2.413  12.185  0.5319 -2.2978  1.6883
 1764TIP3   OH226706   1.825   3.730  14.343 -0.2187 -0.2748  0.2895
 1764TIP3    H126707   1.749   3.780  14.373 -0.8767 -0.5282 -0.9225
 1764TIP3    H226708   1.875   3.793  14.291 -0.0026 -0.3349  0.4226
 1765TIP3   OH226709   0.785   6.109   0.788 -0.0092 -0.0282  0.0019
 1765TIP3    H126710   0.843   6.151   0.850 -1.4440  1.1843  0.5875
 1765TIP3    H226711   0.746   6.037   0.836 -0.2584  0.2084  0.1591
 1766TIP3   OH226712   1.095   6.535   5.493 -0.5779 -0.6966 -0.3929
 1766TIP3    H126713   1.073   6.620   5.530 -0.3567 -0.7012 -0.2486
 1766TIP3    H226714   1.158   6.498   5.554  0.2207 -0.4681 -1.0652
 1767TIP3   OH226715   3.662   5.688   4.545 -0.1755  0.2191 -0.0537
 1767TIP3    H126716   3.581   5.660   4.503 -0.4300  0.3106  0.3708
 1767TIP3    H226717   3.635   5.722   4.630  0.0427  2.2300 -0.7218
 1768TIP3   OH226718   0.345   6.052  14.354  0.0503 -0.2726  0.6846
 1768TIP3    H126719   0.374   6.103  14.278 -1.3214  0.2003  0.4645
 1768TIP3    H226720   0.251   6.044  14.344  0.1812 -2.9608  0.6649
 1769TIP3   OH226721   4.267   0.400   5.370 -0.3928 -0.3898  0.0685
 1769TIP3    H126722   4.307   0.469   5.317 -1.9151  1.6867  1.4564
 1769TIP3    H226723   4.184   0.380   5.326 -1.2810  0.7605  1.1528
 1770TIP3   OH226724   4.838   2.492  16.922  0.5089 -0.2493 -0.5026
 1770TIP3    H126725   4.914   2.483  16.980  0.9685  0.6132 -0.9569
 1770TIP3    H226726   4.790   2.410  16.934  1.0429 -0.4423  0.4535
 1771TIP3   OH226727   0.444   0.150  12.923  0.2885  0.6270  0.2056
 1771TIP3    H126728   0.382   0.153  12.849 -1.0003 -0.0698  1.2094
 1771TIP3    H226729   0.523   0.113  12.886 -0.9731 -1.5881 -0.4487
 1772TIP3   OH226730   5.566   2.774  16.887  0.8404 -0.8340  0.8092
 1772TIP3    H126731   5.591   2.765  16.979 -0.5218  3.6599  1.8933
 1772TIP3    H226732   5.470   2.765  16.888  0.9242 -2.3311 -0.5491
 1773TIP3   OH226733   2.005   4.343  17.019  0.0467  0.0407  0.3913
 1773TIP3    H126734   1.926   4.380  17.058  1.2220 -0.1914  3.2147
 1773TIP3    H226735   2.014   4.388  16.935 -1.9519  1.5537  0.9195
 1774TIP3   OH226736   5.877   2.597   2.578  0.5039 -0.0452 -0.6244
 1774TIP3    H126737   5.795   2.550   2.568  0.1423  0.7138 -1.3587
 1774TIP3    H226738   5.930   2.569   2.503  0.5721  0.1605 -0.6525
 1775TIP3   OH226739   0.182   5.849  13.919 -0.8012 -0.0828 -0.0305
 1775TIP3    H126740   0.140   5.813  13.997  1.0826 -0.6168  0.7935
 1775TIP3    H226741   0.216   5.772  13.873  1.2010  0.4352  0.5040
 1776TIP3   OH226742   4.331   1.122  12.734  0.0056  0.1264  0.1953
 1776TIP3    H126743   4.358   1.049  12.788 -0.0143  0.8069  1.1518
 1776TIP3    H226744   4.274   1.174  12.791 -0.2861  0.6776 -0.5871
 1777TIP3   OH226745   5.503   5.845   4.414  0.0215 -0.5002  0.2318
 1777TIP3    H126746   5.485   5.751   4.415  1.3696 -0.7815  0.7272
 1777TIP3    H226747   5.599   5.850   4.407 -0.0928  0.8498 -0.6253
 1778TIP3   OH226748   0.989   2.294  14.545  0.2635 -0.6961 -0.5467
 1778TIP3    H126749   1.054   2.351  14.586 -0.2584 -0.9495  0.6521
 1778TIP3    H226750   0.909   2.307  14.596 -0.2043 -1.5855 -1.0208
 1779TIP3   OH226751   5.304   5.407  12.890 -0.3101 -0.8318 -0.9756
 1779TIP3    H126752   5.246   5.446  12.955 -0.6767 -1.5777 -0.8552
 1779TIP3    H226753   5.341   5.483  12.843 -2.0660 -0.3616 -1.6673
 1780TIP3   OH226754   5.701   6.408  13.313  0.7797 -0.0594 -0.5052
 1780TIP3    H126755   5.621   6.416  13.365  1.2944 -0.7622  0.4282
 1780TIP3    H226756   5.673   6.429  13.223  0.0786  2.1689  0.1631
 1781TIP3   OH226757   5.590   0.652   6.627 -0.5406 -0.1041  0.5783
 1781TIP3    H126758   5.635   0.637   6.710  1.1348  1.2776 -0.0177
 1781TIP3    H226759   5.657   0.635   6.560 -1.0179  1.4862 -0.3722
 1782TIP3   OH226760   1.384   0.933  15.113  0.4118  0.0853 -0.5238
 1782TIP3    H126761   1.465   0.935  15.164  1.8152  1.7492 -2.6053
 1782TIP3    H226762   1.377   1.021  15.076 -1.7959 -0.3496 -1.2736
 1783TIP3   OH226763   0.675   4.114  10.850  0.3317 -0.3615  0.0254
 1783TIP3    H126764   0.636   4.033  10.817 -0.5913 -0.2850  0.8675
 1783TIP3    H226765   0.759   4.120  10.805 -0.0225 -1.2621 -0.8010
 1784TIP3   OH226766   4.708   3.672   3.649 -0.0886 -0.1464  0.1303
 1784TIP3    H126767   4.722   3.675   3.744 -1.7369 -1.2595  0.4442
 1784TIP3    H226768   4.774   3.610   3.617 -0.1899 -0.5534  0.6909
 1785TIP3   OH226769   0.604   5.329   2.557  0.1868  0.2072  0.0695
 1785TIP3    H126770   0.528   5.289   2.600  0.1214 -0.3390 -0.5374
 1785TIP3    H226771   0.569   5.400   2.505  0.2732  0.9152  0.9519
 1786TIP3   OH226772   2.657   5.379   0.992 -0.1044 -0.0736 -0.0148
 1786TIP3    H126773   2.632   5.417   0.908 -0.3221 -0.4909 -0.1424
 1786TIP3    H226774   2.621   5.290   0.990  2.5794 -1.2240 -0.7896
 1787TIP3   OH226775   3.849   0.365  15.849 -0.0537  0.4424  0.2040
 1787TIP3    H126776   3.898   0.290  15.883 -0.2639 -0.4077 -1.2907
 1787TIP3    H226777   3.914   0.435  15.843  0.6697 -0.2658 -0.4421
 1788TIP3   OH226778   3.692   3.543   3.914 -0.6972  0.4021 -0.0453
 1788TIP3    H126779   3.650   3.597   3.981 -3.1319 -0.5609 -0.7035
 1788TIP3    H226780   3.657   3.455   3.929  1.4468 -0.5805 -0.4076
 1789TIP3   OH226781   3.226   5.343   2.022  0.2452  0.1896  0.6706
 1789TIP3    H126782   3.265   5.343   1.935  0.0806 -2.5937  0.4977
 1789TIP3    H226783   3.276   5.277   2.071 -1.4008 -0.3035  1.7919
 1790TIP3   OH226784   6.252   5.828  12.817 -0.1397 -1.1291  0.2518
 1790TIP3    H126785   6.171   5.847  12.770 -0.4089 -2.9180 -0.0744
 1790TIP3    H226786   6.224   5.785  12.898  0.4435 -0.8805  0.5923
 1791TIP3   OH226787   5.522   2.985   3.052  0.0246  0.6726  1.0603
 1791TIP3    H126788   5.597   2.930   3.030 -0.2797  0.5482  0.3160
 1791TIP3    H226789   5.450   2.923   3.065 -0.7171  0.9287 -1.3464
 1792TIP3   OH226790   5.507   6.651  17.071 -0.2240  0.2038 -0.1778
 1792TIP3    H126791   5.581   6.606  17.111 -1.3892 -0.8688  0.8434
 1792TIP3    H226792   5.476   6.590  17.004 -1.4281 -0.2673  0.7883
 1793TIP3   OH226793   6.649   6.484  13.586 -0.2782 -0.0620 -0.4162
 1793TIP3    H126794   6.689   6.549  13.528  3.1163 -1.7803 -0.2937
 1793TIP3    H226795   6.615   6.417  13.526 -0.0459 -0.1101 -0.4967
 1794TIP3   OH226796   0.154   3.706  11.437 -0.0479  0.2406 -0.4038
 1794TIP3    H126797   0.228   3.698  11.376 -0.4027  1.0782 -0.9719
 1794TIP3    H226798   0.144   3.801  11.449 -1.9766  0.2323 -1.5459
 1795TIP3   OH226799   3.832   4.064  12.056 -0.2834 -0.0629 -0.1626
 1795TIP3    H126800   3.833   3.989  12.116 -1.0917 -1.0832 -1.3583
 1795TIP3    H226801   3.754   4.049  12.001 -1.2637  2.3628  0.4271
 1796TIP3   OH226802   4.520   0.176  13.827 -0.1005 -0.2903 -0.1005
 1796TIP3    H126803   4.510   0.175  13.922 -1.1761 -1.2962 -0.1948
 1796TIP3    H226804   4.536   0.268  13.806 -1.6731  0.2603  0.9023
 1797TIP3   OH226805   0.868   6.057  14.853  0.4972  0.3291 -0.2883
 1797TIP3    H126806   0.824   6.079  14.936  1.5619 -4.0975  1.7783
 1797TIP3    H226807   0.796   6.039  14.793 -0.5394 -1.2977  1.3174
 1798TIP3   OH226808   0.776   5.943   3.519 -0.4688  0.0609  0.1323
 1798TIP3    H126809   0.802   6.033   3.534 -0.6898 -0.1743  2.3030
 1798TIP3    H226810   0.853   5.901   3.480  0.9400  0.3976  2.3700
 1799TIP3   OH226811   1.746   2.370   3.128  0.6194 -0.1144  0.3607
 1799TIP3    H126812   1.804   2.312   3.079 -1.6887 -0.2508 -2.4747
 1799TIP3    H226813   1.764   2.457   3.094  2.0814  0.5409  2.5888
 1800TIP3   OH226814   2.920   3.581  15.277 -0.4585  0.7925  0.0507
 1800TIP3    H126815   2.917   3.536  15.192 -0.9326 -0.4248  0.6891
 1800TIP3    H226816   3.013   3.599  15.291 -0.2639  0.0852 -0.2757
 1801TIP3   OH226817   3.850   3.167   6.034  0.0817 -0.1700 -0.1458
 1801TIP3    H126818   3.895   3.233   6.086  2.2536  1.3803 -3.6112
 1801TIP3    H226819   3.911   3.093   6.032  0.4670  0.1615 -1.1968
 1802TIP3   OH226820   4.237   6.473  15.398  0.2884 -0.4287  0.0475
 1802TIP3    H126821   4.196   6.529  15.332 -1.0928 -0.4310  0.8700
 1802TIP3    H226822   4.299   6.530  15.443 -1.6381  0.7193  1.3930
 1803TIP3   OH226823   5.693   4.337  15.570 -0.2920  0.2598 -0.0838
 1803TIP3    H126824   5.678   4.316  15.478  1.9845 -0.6000 -0.3465
 1803TIP3    H226825   5.677   4.254  15.616  0.9415  0.0089 -0.0653
 1804TIP3   OH226826   1.985   1.586   5.526  0.2364  0.2090  0.2870
 1804TIP3    H126827   1.894   1.615   5.537 -0.2173 -0.6916 -0.8385
 1804TIP3    H226828   2.036   1.644   5.582 -0.8584  1.7997 -0.2867
 1805TIP3   OH226829   2.728   1.865   2.058 -0.0064 -0.0497 -0.3627
 1805TIP3    H126830   2.756   1.813   2.133 -1.0577 -2.5664 -1.6246
 1805TIP3    H226831   2.699   1.948   2.097  0.4005 -0.8885  1.8909
 1806TIP3   OH226832   1.620   2.261  12.215  0.5336  0.2284 -0.2279
 1806TIP3    H126833   1.599   2.285  12.305  0.6368  0.8068 -0.3545
 1806TIP3    H226834   1.536   2.265  12.169  0.3627 -0.7200 -0.0223
 1807TIP3   OH226835   1.642   6.514   4.973 -0.0357 -0.6666 -0.0189
 1807TIP3    H126836   1.703   6.540   4.904 -0.0794 -1.1807 -0.2522
 1807TIP3    H226837   1.585   6.591   4.984  1.6038  0.4370  1.2994
 1808TIP3   OH226838   6.752   0.307  17.049  0.2462  0.4295 -0.4303
 1808TIP3    H126839   6.728   0.258  16.970 -0.5148 -0.5799  0.3897
 1808TIP3    H226840   6.699   0.267  17.118  2.2663  0.0094  0.9676
 1809TIP3   OH226841   3.265   2.140   4.468  0.3387 -0.3106 -0.2815
 1809TIP3    H126842   3.199   2.071   4.456  1.1749 -1.0017 -1.1091
 1809TIP3    H226843   3.261   2.161   4.561  0.6709 -2.1251  0.1885
 1810TIP3   OH226844   0.665   4.124   5.286 -0.4153  0.0078 -0.1343
 1810TIP3    H126845   0.664   4.037   5.324 -0.7941 -0.1469 -0.4867
 1810TIP3    H226846   0.704   4.180   5.353  0.4772 -0.5498 -0.1725
 1811TIP3   OH226847   5.959   2.497   2.321  0.2562 -0.4728 -0.5358
 1811TIP3    H126848   6.033   2.464   2.270 -1.1110 -0.3257 -2.7659
 1811TIP3    H226849   5.885   2.442   2.293 -0.4088 -1.0963  2.1489
 1812TIP3   OH226850   0.444   1.717   4.281  0.5294  0.1528 -0.4381
 1812TIP3    H126851   0.405   1.786   4.227 -1.9208 -1.3050 -0.7156
 1812TIP3    H226852   0.493   1.663   4.219  0.7542  0.5119 -0.5740
 1813TIP3   OH226853   5.233   3.627  12.663 -0.8567 -0.1461  0.3379
 1813TIP3    H126854   5.233   3.536  12.691 -2.0460  0.3208  2.0305
 1813TIP3    H226855   5.143   3.644  12.635 -0.7114  0.5460  0.2604
 1814TIP3   OH226856   2.357   1.956  13.913 -0.4385 -0.2719 -0.2981
 1814TIP3    H126857   2.364   1.975  13.819 -1.3055 -0.3146 -0.3825
 1814TIP3    H226858   2.262   1.956  13.930 -0.3333 -1.2449  0.3751
 1815TIP3   OH226859   3.285   3.299  13.138 -0.1587  0.1479 -0.3083
 1815TIP3    H126860   3.362   3.242  13.146 -0.2929  0.2123  1.8889
 1815TIP3    H226861   3.300   3.347  13.056  0.2581 -2.5176 -1.9496
 1816TIP3   OH226862   4.371   4.067  11.253  0.0256 -0.1752  0.2083
 1816TIP3    H126863   4.460   4.037  11.275  0.0986  0.4455  0.8154
 1816TIP3    H226864   4.373   4.081  11.159  1.0690  1.3605  0.4143
 1817TIP3   OH226865   4.041   2.044   2.453  0.2194 -0.5163 -0.4177
 1817TIP3    H126866   4.123   2.008   2.420 -0.1935 -1.4880 -0.4129
 1817TIP3    H226867   4.064   2.081   2.539  0.8939  0.3298 -0.9452
 1818TIP3   OH226868   0.755   4.905  12.692  0.3061 -0.6020  0.0519
 1818TIP3    H126869   0.774   4.817  12.659  1.3621 -0.0116 -1.0157
 1818TIP3    H226870   0.696   4.943  12.627  1.0957  0.0059 -0.3276
 1819TIP3   OH226871   5.427   3.064   2.716  0.6527  0.4887  0.1008
 1819TIP3    H126872   5.475   3.001   2.770 -0.4826 -0.5091 -0.0237
 1819TIP3    H226873   5.494   3.102   2.659  1.2547 -1.1838 -0.3756
 1820TIP3   OH226874   4.861   4.290   3.674 -0.4622 -0.1139 -0.3455
 1820TIP3    H126875   4.888   4.340   3.751  1.2586 -2.2738  0.5715
 1820TIP3    H226876   4.769   4.270   3.690 -0.4841  0.5760  0.5037
 1821TIP3   OH226877   1.466   4.823  16.632 -0.3126  0.3956 -0.5733
 1821TIP3    H126878   1.455   4.914  16.603  0.4629 -0.3556 -3.5094
 1821TIP3    H226879   1.560   4.815  16.649  0.0506 -0.4134 -2.6747
 1822TIP3   OH226880   0.538   0.777   4.348 -0.0544 -0.0653  0.1748
 1822TIP3    H126881   0.471   0.793   4.414 -1.9456 -1.0372 -1.3920
 1822TIP3    H226882   0.495   0.799   4.265  1.9394  0.2926 -0.8203
 1823TIP3   OH226883   2.060   3.408   3.212 -0.4976 -0.3165 -0.5616
 1823TIP3    H126884   2.104   3.331   3.175  1.3011  0.7970 -0.8803
 1823TIP3    H226885   2.132   3.469   3.232 -1.8501  1.2111 -0.1673
 1824TIP3   OH226886   4.678   3.650  11.975  0.4240 -0.5264  0.5454
 1824TIP3    H126887   4.693   3.575  11.917 -1.3218  0.0241 -0.7169
 1824TIP3    H226888   4.766   3.676  12.004  1.1970 -1.9615 -0.3947
 1825TIP3   OH226889   6.403   3.493   0.916  0.2596  0.1836 -0.8321
 1825TIP3    H126890   6.418   3.531   0.829  0.0007 -0.4659 -1.1668
 1825TIP3    H226891   6.438   3.404   0.910 -1.7660 -0.6480 -0.9906
 1826TIP3   OH226892   1.456   3.636  11.940 -0.2674  0.0795  0.6031
 1826TIP3    H126893   1.492   3.577  11.874 -1.0937  2.2928 -2.0468
 1826TIP3    H226894   1.366   3.605  11.953 -0.5313  0.3722 -0.3806
 1827TIP3   OH226895   4.315   5.574  11.101  0.0158 -0.2835 -0.0069
 1827TIP3    H126896   4.389   5.546  11.047  1.4014  1.1778  1.0147
 1827TIP3    H226897   4.238   5.537  11.058  1.1829 -0.5291 -2.0303
 1828TIP3   OH226898   5.752   5.759  11.096 -0.4279 -0.0477 -0.5263
 1828TIP3    H126899   5.772   5.697  11.026 -0.2298  1.2329 -1.6418
 1828TIP3    H226900   5.753   5.706  11.176  2.9844 -0.9500 -1.0196
 1829TIP3   OH226901   6.017   2.004   6.226 -0.0500  0.2430  0.2765
 1829TIP3    H126902   5.943   1.973   6.277 -1.3901  1.4181 -0.8600
 1829TIP3    H226903   6.093   1.961   6.264 -1.6109 -3.7465 -0.6488
 1830TIP3   OH226904   5.847   6.657  11.459  0.3021  0.5334  0.2274
 1830TIP3    H126905   5.793   6.599  11.512  0.3649  1.0728  0.8891
 1830TIP3    H226906   5.844   6.619  11.371 -0.7529  0.2947  0.3613
 1831TIP3   OH226907   4.552   6.586   3.145  0.3416  0.0484  0.0359
 1831TIP3    H126908   4.628   6.615   3.095 -0.6035  0.2441 -1.3106
 1831TIP3    H226909   4.477   6.623   3.100 -0.6701 -1.4057  0.4371
 1832TIP3   OH226910   0.548   6.368  16.993  0.1611 -0.3764  0.0131
 1832TIP3    H126911   0.458   6.390  17.016  0.5757  1.3203  0.1643
 1832TIP3    H226912   0.545   6.344  16.901 -0.2394  1.1731 -0.4018
 1833TIP3   OH226913   0.399   2.355   1.709  0.0458 -0.4247 -0.1526
 1833TIP3    H126914   0.405   2.388   1.799  2.6866 -0.4451 -0.2332
 1833TIP3    H226915   0.394   2.434   1.655 -2.0977 -0.4212 -0.0155
 1834TIP3   OH226916   2.160   3.602  13.181  0.5981 -0.5227 -0.1011
 1834TIP3    H126917   2.163   3.519  13.133  2.2377 -0.2308 -0.5742
 1834TIP3    H226918   2.067   3.625  13.184  0.1399 -2.2279 -0.1986
 1835TIP3   OH226919   5.636   6.155   6.013 -0.1316  0.4329  0.0714
 1835TIP3    H126920   5.644   6.186   6.103 -0.1926 -0.0336  0.2372
 1835TIP3    H226921   5.682   6.221   5.961  0.0314  0.6251  0.4575
 1836TIP3   OH226922   5.088   4.409  16.859  0.0727 -0.0610  0.5766
 1836TIP3    H126923   5.115   4.495  16.891  1.0494 -0.3053  0.4339
 1836TIP3    H226924   5.107   4.412  16.765 -1.6130  0.2067  0.2104
 1837TIP3   OH226925   6.575   5.955   2.927  0.3395  1.0488 -0.0545
 1837TIP3    H126926   6.602   6.034   2.879 -2.0499  1.3428 -1.0797
 1837TIP3    H226927   6.494   5.981   2.970 -2.3564 -1.6254 -3.0340
 1838TIP3   OH226928   5.656   6.136   4.995  0.1400  0.2879 -0.3624
 1838TIP3    H126929   5.651   6.134   4.899 -0.8094 -4.2577 -0.4647
 1838TIP3    H226930   5.741   6.177   5.013  1.6662 -1.1714 -3.3526
 1839TIP3   OH226931   2.470   4.168  16.803  0.0353 -0.4080 -0.2346
 1839TIP3    H126932   2.470   4.172  16.899 -1.0518 -3.3224 -0.0009
 1839TIP3    H226933   2.380   4.142  16.781  0.2351  0.3562 -2.0601
 1840TIP3   OH226934   3.819   6.702   0.977 -0.3997  0.1770 -0.3534
 1840TIP3    H126935   3.760   6.752   1.034 -1.0431  0.0411 -0.8946
 1840TIP3    H226936   3.906   6.731   1.003 -0.7401  1.2091 -0.3091
 1841TIP3   OH226937   5.321   4.749   5.419  0.1604  0.9168  0.0706
 1841TIP3    H126938   5.252   4.795   5.371  0.2721 -0.4136 -1.4707
 1841TIP3    H226939   5.402   4.793   5.392  0.1157  0.9463 -0.0179
 1842TIP3   OH226940   6.532   3.953   4.777 -0.3587 -0.0051  0.1814
 1842TIP3    H126941   6.615   3.968   4.822  0.5219  1.5362 -1.8255
 1842TIP3    H226942   6.555   3.894   4.705 -1.5361 -1.5731  1.0311
 1843TIP3   OH226943   1.873   3.616  15.672 -0.1288  0.5794  0.6962
 1843TIP3    H126944   1.811   3.585  15.606  0.3243 -2.3488  1.5079
 1843TIP3    H226945   1.817   3.657  15.739 -0.8682  0.8312 -0.0564
 1844TIP3   OH226946   3.707   4.505  17.161 -0.4991 -0.3814  0.1182
 1844TIP3    H126947   3.622   4.484  17.200 -0.0590 -2.2577  0.1794
 1844TIP3    H226948   3.686   4.556  17.083 -1.4354  2.9700  2.3487
 1845TIP3   OH226949   5.632   2.094  14.472  0.0867  0.4339  0.2835
 1845TIP3    H126950   5.642   2.109  14.378  0.5056  0.1746  0.2873
 1845TIP3    H226951   5.557   2.036  14.480 -0.2841  0.8892  0.1432
 1846TIP3   OH226952   5.377   6.285   4.025  0.1967 -0.9472 -0.0391
 1846TIP3    H126953   5.342   6.219   4.085  0.5773 -0.3255  0.8875
 1846TIP3    H226954   5.336   6.265   3.941 -0.4732 -1.7382  0.4571
 1847TIP3   OH226955   0.700   4.659  13.029 -0.6831 -0.2851 -0.7176
 1847TIP3    H126956   0.757   4.688  12.957 -1.3916  1.6105 -0.5557
 1847TIP3    H226957   0.712   4.564  13.031  2.8416  0.0222 -0.4018
 1848TIP3   OH226958   4.122   0.642   1.655 -0.2682  0.1074  0.6985
 1848TIP3    H126959   4.118   0.713   1.591  0.2496  0.2843  0.8623
 1848TIP3    H226960   4.163   0.680   1.732  3.1231 -1.1383 -0.2959
 1849TIP3   OH226961   5.405   2.018   1.666  0.0187 -0.0746  0.4196
 1849TIP3    H126962   5.481   1.964   1.644  0.6367  0.8666  0.1800
 1849TIP3    H226963   5.394   2.008   1.761  0.4692 -0.1835  0.4597
 1850TIP3   OH226964   1.751   6.753   0.344  0.7604 -0.2126 -0.0481
 1850TIP3    H126965   1.810   6.727   0.273  0.5403  0.5117 -0.4898
 1850TIP3    H226966   1.772   6.845   0.361 -0.6622  0.2381 -0.6175
 1851TIP3   OH226967   2.508   3.398  15.397 -0.0772  0.2308  0.0484
 1851TIP3    H126968   2.592   3.359  15.372  1.0208  1.7229  1.2883
 1851TIP3    H226969   2.522   3.492  15.391 -0.5884  0.6404  3.3550
 1852TIP3   OH226970   3.372   3.407  15.135  0.1322  0.5063  0.7134
 1852TIP3    H126971   3.419   3.447  15.062 -0.3495  0.4085  0.3447
 1852TIP3    H226972   3.351   3.319  15.104 -0.1765  0.5038  0.9277
 1853TIP3   OH226973   2.230   4.714   4.342 -0.1187  0.0985 -0.4336
 1853TIP3    H126974   2.309   4.758   4.310 -1.0716  1.6100 -0.8920
 1853TIP3    H226975   2.201   4.661   4.268  0.5908 -0.6426 -0.1806
 1854TIP3   OH226976   6.041   6.254   3.765 -0.0770 -0.0330 -0.1072
 1854TIP3    H126977   6.110   6.202   3.805 -1.4561 -3.0304 -1.3395
 1854TIP3    H226978   6.046   6.234   3.671 -1.7374  0.7628 -0.4109
 1855TIP3   OH226979   1.959   2.395   5.240 -0.1178 -0.2273 -0.4970
 1855TIP3    H126980   2.034   2.360   5.192 -0.3454 -1.7877  0.2239
 1855TIP3    H226981   1.883   2.373   5.185 -0.0812  1.4937 -1.3070
 1856TIP3   OH226982   0.083   3.948   0.048  0.4751 -0.0365 -0.0784
 1856TIP3    H126983   0.016   3.945  -0.020 -0.8420 -1.8560  1.2251
 1856TIP3    H226984   0.145   3.879   0.024  0.1108 -0.5529  0.4607
 1857TIP3   OH226985   5.698   4.265   3.266  0.7761 -0.0080  0.0667
 1857TIP3    H126986   5.747   4.328   3.318 -0.0325 -0.5990  1.6132
 1857TIP3    H226987   5.652   4.211   3.330  0.4375 -1.3628 -1.2430
 1858TIP3   OH226988   3.977   4.405   4.213  0.0333 -0.4739  0.3718
 1858TIP3    H126989   3.953   4.479   4.270 -1.0138  0.0871 -0.7428
 1858TIP3    H226990   3.969   4.440   4.124  0.6168 -1.6302 -0.1547
 1859TIP3   OH226991   2.974   5.155  10.766 -0.0050 -0.0712  0.7709
 1859TIP3    H126992   2.948   5.066  10.789 -0.3073 -0.1449  0.1668
 1859TIP3    H226993   3.015   5.146  10.679  0.6550  0.2660  1.0390
 1860TIP3   OH226994   1.429   4.420   4.589  0.3820  0.3845  0.2347
 1860TIP3    H126995   1.511   4.447   4.547 -0.3631  0.0387 -1.5089
 1860TIP3    H226996   1.369   4.492   4.573  0.1785  0.4138  1.0765
 1861TIP3   OH226997   1.460   0.432   4.486  0.0870 -0.6657  0.2021
 1861TIP3    H126998   1.416   0.428   4.401  0.8295 -0.4731 -0.2013
 1861TIP3    H226999   1.506   0.516   4.485  3.0358 -2.1655 -0.7076
 1862TIP3   OH227000   4.154   5.719  13.900  0.1373  0.2759  0.6272
 1862TIP3    H127001   4.218   5.667  13.852  0.9667 -0.6980  2.6800
 1862TIP3    H227002   4.188   5.808  13.898 -0.2221  0.4031 -1.1564
 1863TIP3   OH227003   6.250   1.772   5.320  1.2178  0.0351  0.1036
 1863TIP3    H127004   6.201   1.766   5.402  0.0131 -1.5961 -0.6934
 1863TIP3    H227005   6.185   1.799   5.255  2.2122  1.5700 -0.3162
 1864TIP3   OH227006   2.763   2.039  15.681  0.2342 -0.3760 -0.2628
 1864TIP3    H127007   2.830   2.054  15.749  0.2433 -2.5393  0.3047
 1864TIP3    H227008   2.811   2.000  15.609 -0.0759  0.2007 -0.7870
 1865TIP3   OH227009   2.101   4.786  15.479 -0.0428 -0.5751  0.3261
 1865TIP3    H127010   2.129   4.695  15.484  1.3215 -0.2288 -0.4305
 1865TIP3    H227011   2.085   4.801  15.386 -1.7049 -0.4282  0.6091
 1866TIP3   OH227012   3.993   4.218  13.454  0.3072 -0.9577  0.1595
 1866TIP3    H127013   4.046   4.221  13.533 -0.8517  0.2719  0.9343
 1866TIP3    H227014   4.051   4.250  13.385 -0.0162  2.8000  1.4108
 1867TIP3   OH227015   1.236   2.088  14.642  0.3678 -0.0462  0.6617
 1867TIP3    H127016   1.286   2.144  14.702  1.3494 -0.1999  0.0158
 1867TIP3    H227017   1.165   2.052  14.696 -0.6593  2.2552  0.9737
 1868TIP3   OH227018   6.111   1.929  15.470  0.3534 -0.0327 -0.2384
 1868TIP3    H127019   6.092   1.961  15.558 -0.0990 -0.7597 -0.0671
 1868TIP3    H227020   6.025   1.915  15.430  0.5378 -0.9165 -0.3464
 1869TIP3   OH227021   1.062   4.816  15.286  0.4554 -0.5783  1.0587
 1869TIP3    H127022   1.022   4.730  15.302 -1.5192  0.2040  0.7052
 1869TIP3    H227023   0.990   4.878  15.298  1.8807  1.0698  1.5268
 1870TIP3   OH227024   1.186   1.551  15.161  0.0333  0.5290 -0.3919
 1870TIP3    H127025   1.118   1.499  15.118 -0.3434  0.6533  0.0525
 1870TIP3    H227026   1.157   1.642  15.151 -1.6411  0.4539  2.7202
 1871TIP3   OH227027   4.710   4.311   5.438  0.5211  0.2113  0.6952
 1871TIP3    H127028   4.701   4.217   5.425 -0.4205  0.5569 -1.4686
 1871TIP3    H227029   4.788   4.320   5.494 -1.9108 -2.0300  4.9519
 1872TIP3   OH227030   3.779   3.309  10.484 -0.2515  0.4560 -0.0963
 1872TIP3    H127031   3.833   3.388  10.488  1.2030 -0.5328  0.5263
 1872TIP3    H227032   3.721   3.316  10.559 -1.0005  1.5015 -0.7384
 1873TIP3   OH227033   4.909   4.810  17.008  0.3454 -0.1974 -0.0459
 1873TIP3    H127034   4.920   4.724  16.967 -0.4757 -0.4501  0.2533
 1873TIP3    H227035   4.955   4.870  16.949  3.8453 -1.2051  1.3608
 1874TIP3   OH227036   3.308   0.566   2.633 -0.0621  0.4552  0.1925
 1874TIP3    H127037   3.219   0.586   2.604  0.5321  1.5501 -1.0110
 1874TIP3    H227038   3.362   0.635   2.594  1.2847 -0.0154  1.1276
 1875TIP3   OH227039   4.338   3.027  15.814  0.1000  0.6148  0.2610
 1875TIP3    H127040   4.404   3.042  15.883 -1.0865  2.9349  1.0171
 1875TIP3    H227041   4.323   3.114  15.777 -2.2820  0.1079 -0.1147
 1876TIP3   OH227042   1.028   2.634   1.979 -0.2824 -0.1075 -0.1965
 1876TIP3    H127043   1.011   2.682   2.060  1.5463 -1.4106  1.0628
 1876TIP3    H227044   1.081   2.695   1.927  0.2715  0.0332  0.4986
 1877TIP3   OH227045   5.658   5.408  11.464  0.0472 -0.1747  0.2192
 1877TIP3    H127046   5.583   5.409  11.523 -0.4790  0.2147 -0.4473
 1877TIP3    H227047   5.696   5.321  11.476 -0.8979 -0.6219  0.0926
 1878TIP3   OH227048   3.427   3.509  12.968  0.2407  0.0783  0.0546
 1878TIP3    H127049   3.495   3.569  13.000 -0.2222  1.2304 -1.0508
 1878TIP3    H227050   3.475   3.446  12.915  0.5767  0.2692  0.1268
 1879TIP3   OH227051   6.559   1.566  11.914  0.0384 -0.2067  0.4345
 1879TIP3    H127052   6.599   1.592  11.831  0.3806 -0.6191  0.4665
 1879TIP3    H227053   6.472   1.534  11.889  0.6006 -1.5301  0.0597
 1880TIP3   OH227054   6.805   4.922  12.471  0.1186  0.4888 -0.0755
 1880TIP3    H127055   6.767   5.001  12.433  1.2890  1.5032  0.8128
 1880TIP3    H227056   6.875   4.897  12.411 -1.5033 -1.0857 -1.4343
 1881TIP3   OH227057   2.660   1.085  16.262  0.2906  0.5080 -0.4381
 1881TIP3    H127058   2.568   1.057  16.257  0.2720  0.7533 -1.6282
 1881TIP3    H227059   2.693   1.074  16.173  1.7830 -0.7736  0.2332
 1882TIP3   OH227060   2.482   4.543  12.854  0.4937  0.1990 -0.2864
 1882TIP3    H127061   2.542   4.483  12.810 -0.9182 -0.9833 -0.6756
 1882TIP3    H227062   2.538   4.613  12.886  2.2432 -1.3856  0.3128
 1883TIP3   OH227063   1.780   0.840   4.017 -0.1028  0.1416 -0.0387
 1883TIP3    H127064   1.823   0.754   4.017  0.9414  0.6296 -1.0276
 1883TIP3    H227065   1.844   0.899   3.977 -0.9169  1.3293  0.3459
 1884TIP3   OH227066   6.173   5.878   6.330  0.6661 -0.4071  0.4553
 1884TIP3    H127067   6.259   5.915   6.346  0.1107  0.7399  0.9023
 1884TIP3    H227068   6.174   5.855   6.237  1.2892  0.0504  0.3411
 1885TIP3   OH227069   6.811   1.872  14.836 -0.6243 -0.1613  0.1060
 1885TIP3    H127070   6.747   1.874  14.764  0.1715 -0.9926 -0.6398
 1885TIP3    H227071   6.889   1.913  14.800  0.4800 -2.3863 -0.2439
 1886TIP3   OH227072   1.627   6.471  14.180  0.6547 -0.0203 -0.0306
 1886TIP3    H127073   1.716   6.488  14.212  0.3006  0.3785  0.7727
 1886TIP3    H227074   1.586   6.557  14.174  0.8431 -0.0207 -2.0556
 1887TIP3   OH227075   4.693   2.795  11.993 -0.6160  0.1168  0.1358
 1887TIP3    H127076   4.608   2.830  12.021 -0.2013  0.4782  0.9897
 1887TIP3    H227077   4.739   2.777  12.075  0.5652  0.9969 -0.3024
 1888TIP3   OH227078   2.479   3.035   2.514  0.1236 -0.8600 -0.4607
 1888TIP3    H127079   2.572   3.051   2.530  0.2351 -1.8454 -0.0091
 1888TIP3    H227080   2.436   3.058   2.596  0.3845 -3.4184  0.5041
 1889TIP3   OH227081   4.921   3.037  17.250  0.2747  0.0763 -0.0812
 1889TIP3    H127082   4.999   3.089  17.264  0.4380 -0.3196  0.5478
 1889TIP3    H227083   4.928   2.965  17.314 -0.7738  0.2454  0.2582
 1890TIP3   OH227084   0.042   3.879  12.195 -0.8602 -1.0422 -0.0919
 1890TIP3    H127085   0.080   3.842  12.275 -0.7670 -0.4009  0.1728
 1890TIP3    H227086   0.019   3.969  12.219 -1.3423 -1.0121 -0.6305
 1891TIP3   OH227087   1.353   4.796  12.155 -0.1356 -0.1167 -0.0159
 1891TIP3    H127088   1.372   4.826  12.244 -0.5332 -1.0598  0.3954
 1891TIP3    H227089   1.348   4.701  12.162  2.3303 -0.4324 -1.5169
 1892TIP3   OH227090   4.593   6.461  14.232 -0.1882  0.6807  0.0412
 1892TIP3    H127091   4.557   6.525  14.171  0.9862 -0.4414 -1.9499
 1892TIP3    H227092   4.559   6.376  14.202 -0.3250  0.1804  1.5319
 1893TIP3   OH227093   6.659   4.117   0.107 -0.4431 -0.4504 -0.1213
 1893TIP3    H127094   6.745   4.112   0.148  0.2812  3.0227 -0.8711
 1893TIP3    H227095   6.630   4.026   0.099  2.1856 -1.6196  2.0651
 1894TIP3   OH227096   2.325   1.711   3.977 -0.0058  0.3131 -0.1947
 1894TIP3    H127097   2.243   1.666   3.996  1.3106 -1.5661  1.5372
 1894TIP3    H227098   2.305   1.768   3.903 -2.7219 -0.4256 -0.1348
 1895TIP3   OH227099   5.445   2.808  11.327  0.3633 -0.0313  0.4257
 1895TIP3    H127100   5.482   2.796  11.240  0.7936  0.0722  0.5957
 1895TIP3    H227101   5.359   2.848  11.310 -0.1859 -1.3568 -0.0251
 1896TIP3   OH227102   0.756   1.881  15.907  0.8743 -0.4740 -0.4375
 1896TIP3    H127103   0.748   1.825  15.830 -1.9783 -1.5020  0.4826
 1896TIP3    H227104   0.732   1.968  15.875 -0.0658 -0.8496 -0.7845
 1897TIP3   OH227105   3.015   3.387  16.281  0.2150 -0.1036 -0.5540
 1897TIP3    H127106   2.924   3.405  16.258  0.0404  0.3591  0.4478
 1897TIP3    H227107   3.010   3.343  16.366  0.9200 -0.2128 -0.5624
 1898TIP3   OH227108   6.045   0.244   0.099 -0.5203 -0.1186 -0.4466
 1898TIP3    H127109   5.990   0.298   0.156  0.1528 -1.3678  1.4592
 1898TIP3    H227110   6.088   0.308   0.042 -1.9745  1.0935 -0.2709
 1899TIP3   OH227111   2.436   4.852  13.553  0.3314  1.0064 -0.5996
 1899TIP3    H127112   2.504   4.843  13.487 -1.3933  0.8594 -2.4504
 1899TIP3    H227113   2.381   4.775  13.542  0.6127  0.3603  1.8479
 1900TIP3   OH227114   4.772   2.380   0.294 -0.4689  0.2728 -0.2609
 1900TIP3    H127115   4.821   2.317   0.347 -1.1494  1.4847  1.9470
 1900TIP3    H227116   4.737   2.329   0.222 -1.0514 -1.9264  1.4721
 1901TIP3   OH227117   2.415   3.195  14.961  0.1312 -0.2819  0.3044
 1901TIP3    H127118   2.427   3.119  14.905  0.5125 -0.3113  0.4164
 1901TIP3    H227119   2.446   3.166  15.047 -1.4052 -0.5605  0.7914
 1902TIP3   OH227120   4.352   0.621  16.774 -1.4549  0.0094  0.5724
 1902TIP3    H127121   4.293   0.694  16.793  0.4381  2.2216 -1.2314
 1902TIP3    H227122   4.425   0.632  16.835 -0.6110  0.4125 -0.4581
 1903TIP3   OH227123   3.504   6.665  15.735 -0.1165 -0.1659  0.1215
 1903TIP3    H127124   3.444   6.590  15.746 -0.2320 -0.1168 -0.1796
 1903TIP3    H227125   3.448   6.742  15.747 -0.6101 -0.0553 -2.3967
 1904TIP3   OH227126   3.203   4.199  15.316 -0.4700  0.5061  0.1483
 1904TIP3    H127127   3.143   4.152  15.258 -0.1024  0.0461  0.1317
 1904TIP3    H227128   3.164   4.285  15.327 -1.4297  0.0289  0.5978
 1905TIP3   OH227129   0.433   3.198  11.325  0.2751 -0.4568 -0.4583
 1905TIP3    H127130   0.352   3.187  11.375 -0.0473  0.1802 -0.8244
 1905TIP3    H227131   0.420   3.280  11.277  1.3860 -0.0289 -0.0472
 1906TIP3   OH227132   4.086   1.852  11.632  0.0093 -0.4970 -0.1166
 1906TIP3    H127133   4.112   1.789  11.699  0.1688 -1.6883 -1.2562
 1906TIP3    H227134   4.166   1.900  11.611  0.4970 -1.6314 -0.9867
 1907TIP3   OH227135   0.020   3.664  13.316  0.2633 -0.3876  0.0609
 1907TIP3    H127136  -0.008   3.638  13.228  0.0837  1.8358 -0.6110
 1907TIP3    H227137  -0.061   3.675  13.365  0.1917  0.9480 -0.3199
 1908TIP3   OH227138   2.526   2.048  15.355 -0.0887 -0.2807 -0.2242
 1908TIP3    H127139   2.486   2.135  15.344  0.6424  0.2501  1.1333
 1908TIP3    H227140   2.600   2.048  15.294 -1.2134 -0.7094 -1.6503
 1909TIP3   OH227141   3.879   1.514  12.705  0.2507  0.0861  0.3916
 1909TIP3    H127142   3.855   1.604  12.724 -0.1787  0.2440 -0.7935
 1909TIP3    H227143   3.946   1.492  12.770  1.7121  1.8639 -0.4381
 1910TIP3   OH227144   1.067   0.489   4.379  0.3078  0.0380 -0.0135
 1910TIP3    H127145   1.074   0.572   4.331 -0.5876  0.3369  0.3431
 1910TIP3    H227146   0.986   0.450   4.348 -0.2353  0.1839  1.1515
 1911TIP3   OH227147   3.684   2.466  13.754 -0.1197  0.0702  0.3123
 1911TIP3    H127148   3.666   2.560  13.755 -0.3500  0.0365 -0.4573
 1911TIP3    H227149   3.780   2.460  13.759 -0.1589  0.2848  2.3256
 1912TIP3   OH227150   4.317   4.837   4.645 -0.3708 -0.4658  0.5212
 1912TIP3    H127151   4.277   4.773   4.704  1.3448 -0.0664  2.2075
 1912TIP3    H227152   4.271   4.918   4.663 -0.7589 -0.6413  0.3229
 1913TIP3   OH227153   3.907   2.991  13.395 -0.0970 -0.2918  0.2547
 1913TIP3    H127154   3.930   3.033  13.477 -0.6323  0.1949  0.1621
 1913TIP3    H227155   3.868   2.907  13.421 -1.1656  0.2854  0.5480
 1914TIP3   OH227156   5.579   0.991  11.632  0.4332 -0.3749  0.2733
 1914TIP3    H127157   5.555   0.899  11.643 -1.5427  0.2054  1.3396
 1914TIP3    H227158   5.674   0.993  11.644  0.5189 -2.2701  0.1720
 1915TIP3   OH227159   0.929   1.642   1.473  0.3369  0.1606  0.4770
 1915TIP3    H127160   1.005   1.699   1.462 -0.1084  0.6122 -0.2934
 1915TIP3    H227161   0.912   1.608   1.386 -2.1585  2.4130 -0.0275
 1916TIP3   OH227162   1.856   3.092   3.401 -0.1873 -0.5541  0.0239
 1916TIP3    H127163   1.810   3.059   3.478  0.2192  0.0286  0.5181
 1916TIP3    H227164   1.876   3.013   3.350 -1.3676 -0.8580 -0.0097
 1917TIP3   OH227165   6.020   2.719  14.536 -0.3705  0.3256 -0.3343
 1917TIP3    H127166   6.054   2.772  14.464 -0.9140  3.3986  1.4914
 1917TIP3    H227167   5.942   2.677  14.499 -0.7768  2.0120 -1.5489
 1918TIP3   OH227168   0.713   4.951   4.297 -0.1910 -0.1647  0.0184
 1918TIP3    H127169   0.772   4.929   4.224 -0.9213  0.5344 -0.7994
 1918TIP3    H227170   0.772   4.982   4.366  0.4700 -0.2137 -0.5095
 1919TIP3   OH227171   3.006   2.171  14.834  0.3253  0.3340 -0.1092
 1919TIP3    H127172   2.966   2.106  14.777 -1.5204  1.1583  0.1584
 1919TIP3    H227173   3.088   2.194  14.792 -0.8150  0.6639 -2.3008
 1920TIP3   OH227174   2.607   5.241  16.888 -0.5086 -0.8061  0.3918
 1920TIP3    H127175   2.563   5.175  16.834 -0.9659  0.4037 -0.7768
 1920TIP3    H227176   2.540   5.268  16.951 -0.4027 -1.2670  0.7047
 1921TIP3   OH227177   4.589   3.307   2.469 -0.3894  0.7892  0.3642
 1921TIP3    H127178   4.552   3.223   2.442 -1.2704  0.5920  2.0510
 1921TIP3    H227179   4.667   3.318   2.414 -0.2915 -1.0963  0.0590
 1922TIP3   OH227180   0.647   5.347  15.894  0.1353  0.1794  0.1059
 1922TIP3    H127181   0.703   5.309  15.963  1.7740 -1.1374 -1.8260
 1922TIP3    H227182   0.670   5.440  15.894 -0.2400  0.3099  1.5879
 1923TIP3   OH227183   2.224   5.513  15.366  0.4115  0.2061  0.2195
 1923TIP3    H127184   2.284   5.476  15.430 -0.7636 -0.6524  0.8751
 1923TIP3    H227185   2.138   5.505  15.406 -0.1927  1.0535 -0.8442
 1924TIP3   OH227186   2.790   5.245  16.084 -0.9548 -0.1900  0.3035
 1924TIP3    H127187   2.783   5.301  16.006 -1.6022 -1.7829 -0.8450
 1924TIP3    H227188   2.870   5.195  16.070 -1.7416 -1.4071 -0.0124
 1925TIP3   OH227189   0.325   4.392  10.706 -0.6699 -0.0396  0.0739
 1925TIP3    H127190   0.363   4.324  10.761 -1.0914 -0.0744  0.3278
 1925TIP3    H227191   0.325   4.355  10.618  1.3108  0.5488 -0.2294
 1926TIP3   OH227192   3.446   4.426  12.634  0.5211  0.5960  0.0866
 1926TIP3    H127193   3.442   4.392  12.723 -0.5869 -0.0625 -0.2030
 1926TIP3    H227194   3.527   4.477  12.632  0.9538 -0.0060  1.2429
 1927TIP3   OH227195   6.177   4.963   4.077 -0.2525  0.0825 -0.6789
 1927TIP3    H127196   6.187   4.974   4.171  0.3377 -0.5235 -0.6620
 1927TIP3    H227197   6.267   4.967   4.043 -0.5681  1.8568 -1.4060
 1928TIP3   OH227198   3.711   3.091   4.104 -0.3201  0.0025  0.9145
 1928TIP3    H127199   3.744   3.049   4.184 -0.7914 -1.5120  0.3468
 1928TIP3    H227200   3.673   3.174   4.134  0.9899  0.2383  2.0253
 1929TIP3   OH227201   0.565   5.508  16.361 -0.1565 -0.1736 -0.5835
 1929TIP3    H127202   0.514   5.527  16.439 -0.4361  1.0539 -1.0400
 1929TIP3    H227203   0.503   5.515  16.289 -0.0876 -2.1043 -0.8863
 1930TIP3   OH227204   2.479   4.477   0.194 -0.2893  0.3031 -0.3507
 1930TIP3    H127205   2.404   4.512   0.243 -1.4392 -2.2700 -0.1426
 1930TIP3    H227206   2.459   4.496   0.103  0.2983  2.2204 -0.1426
 1931TIP3   OH227207   5.262   4.797   3.512 -0.0570  0.7968  0.7161
 1931TIP3    H127208   5.268   4.740   3.435  0.2374 -0.4196  1.6187
 1931TIP3    H227209   5.233   4.740   3.583  0.7429  1.6527  1.7653
 1932TIP3   OH227210   5.910   3.193   3.868  0.5787 -0.0175 -0.1617
 1932TIP3    H127211   5.999   3.175   3.898  1.2763  0.5566 -1.8173
 1932TIP3    H227212   5.856   3.176   3.945  1.8631 -2.3957  0.3169
 1933TIP3   OH227213   2.064   6.476  15.566 -0.0268 -0.2933 -0.4460
 1933TIP3    H127214   2.069   6.491  15.660  1.1257 -1.7213 -0.2552
 1933TIP3    H227215   1.978   6.434  15.553  0.2642 -1.0870  0.1285
 1934TIP3   OH227216   5.474   2.638  11.663 -0.1265 -0.0977 -0.6122
 1934TIP3    H127217   5.491   2.544  11.654  1.1941  0.2540 -2.2151
 1934TIP3    H227218   5.392   2.652  11.616 -0.3304 -0.4412 -0.3618
 1935TIP3   OH227219   0.770   6.025   2.088 -0.0670  0.1108  0.0286
 1935TIP3    H127220   0.752   6.110   2.047  1.8774  0.6529  0.1919
 1935TIP3    H227221   0.730   6.031   2.175 -2.2358 -0.1831 -0.8994
 1936TIP3   OH227222   2.370   1.241  13.076 -0.0602 -0.1907  0.4967
 1936TIP3    H127223   2.429   1.295  13.023 -0.2515 -0.4222  0.0405
 1936TIP3    H227224   2.286   1.245  13.029 -0.4964  0.3706  1.2924
 1937TIP3   OH227225   1.270   3.742  15.555 -0.1474  0.4003  0.4351
 1937TIP3    H127226   1.314   3.734  15.471 -1.0331  0.3613 -0.0423
 1937TIP3    H227227   1.240   3.833  15.559  1.5259  0.9370  1.5669
 1938TIP3   OH227228   0.290   2.362   0.315 -0.0607 -0.1372 -0.0158
 1938TIP3    H127229   0.321   2.273   0.299 -1.2793 -0.6860  0.4840
 1938TIP3    H227230   0.297   2.373   0.410  0.5898  0.5065 -0.1330
 1939TIP3   OH227231   0.954   0.274   5.518  0.1082 -0.1193  0.3247
 1939TIP3    H127232   1.012   0.309   5.585  3.1688 -2.0349 -1.0913
 1939TIP3    H227233   0.940   0.347   5.458 -0.1280  0.7560  1.4117
 1940TIP3   OH227234   3.032   2.542  14.218  0.0522  0.1760 -0.2850
 1940TIP3    H127235   3.039   2.607  14.288  1.8808  0.9848 -1.1575
 1940TIP3    H227236   2.952   2.493  14.239 -1.3657  2.6360  0.4476
 1941TIP3   OH227237   6.007   0.210   1.923 -0.2257  0.4441  0.9308
 1941TIP3    H127238   5.944   0.201   1.851 -0.3085 -1.1749  1.1656
 1941TIP3    H227239   6.028   0.304   1.925 -0.4601  0.5883 -1.0006
 1942TIP3   OH227240   2.622   5.727  12.635 -0.0016  0.1271 -0.2307
 1942TIP3    H127241   2.609   5.688  12.548 -0.3068 -0.0405 -0.1116
 1942TIP3    H227242   2.582   5.664  12.695  0.2067  0.2450  0.0305
 1943TIP3   OH227243   0.049   0.287  12.124  0.0128 -0.1620 -0.1542
 1943TIP3    H127244   0.125   0.295  12.067 -0.0994  0.3398 -0.2394
 1943TIP3    H227245   0.007   0.205  12.097  0.7954 -0.6981  0.2335
 1944TIP3   OH227246   2.423   3.881  17.223 -1.2719 -0.1800  0.4832
 1944TIP3    H127247   2.331   3.904  17.237 -0.7497  1.7921  1.0478
 1944TIP3    H227248   2.457   3.866  17.311 -1.2755 -2.0228  0.2056
 1945TIP3   OH227249   0.026   1.574   1.719 -0.3450 -0.3286 -0.3062
 1945TIP3    H127250  -0.025   1.606   1.794 -1.0369 -0.2714 -0.7906
 1945TIP3    H227251   0.093   1.641   1.706 -0.5935 -0.0374 -0.1113
 1946TIP3   OH227252   3.069   3.687  15.567 -0.3476 -0.2343  0.2587
 1946TIP3    H127253   3.150   3.654  15.529  0.7777  1.3168  1.1803
 1946TIP3    H227254   3.089   3.702  15.659 -1.3460  1.1505  0.2865
 1947TIP3   OH227255   4.009   2.983   1.109 -0.0967  0.6902 -0.4704
 1947TIP3    H127256   4.064   3.047   1.153  1.5550 -1.0349  0.1257
 1947TIP3    H227257   4.070   2.931   1.056 -1.3397 -0.4240 -0.8791
 1948TIP3   OH227258   0.620   3.821  10.920  0.0140 -0.0868  0.0603
 1948TIP3    H127259   0.704   3.814  10.966  0.2767  0.9650 -0.2362
 1948TIP3    H227260   0.557   3.779  10.978  0.8785 -1.6622 -0.1035
 1949TIP3   OH227261   6.338   3.570  13.913 -0.6405  0.2482 -0.2673
 1949TIP3    H127262   6.426   3.602  13.893 -0.6841  0.6320  0.1310
 1949TIP3    H227263   6.346   3.530  13.999 -0.0682 -2.9216 -1.6722
 1950TIP3   OH227264   5.866   3.690  10.971 -0.5447 -0.2469  0.3994
 1950TIP3    H127265   5.776   3.659  10.975 -0.0593 -1.7423  0.4858
 1950TIP3    H227266   5.915   3.615  10.936  0.6983  0.4529  0.5986
 1951TIP3   OH227267   4.594   4.139   5.839 -0.2289 -0.3384  0.0615
 1951TIP3    H127268   4.688   4.127   5.849 -0.2817 -2.2134 -1.2245
 1951TIP3    H227269   4.582   4.171   5.750 -0.7014  2.2866  0.9823
 1952TIP3   OH227270   1.588   6.592   2.862  0.6566 -0.3536 -0.2566
 1952TIP3    H127271   1.605   6.606   2.955  0.7221 -0.1556 -0.2984
 1952TIP3    H227272   1.581   6.680   2.825 -1.7911 -0.3746 -0.0026
 1953TIP3   OH227273   4.753   1.279  12.296  0.8744 -0.1471  0.0129
 1953TIP3    H127274   4.755   1.324  12.381 -2.9549  0.1201  0.1356
 1953TIP3    H227275   4.755   1.349  12.231  1.0400 -0.1806 -0.0183
 1954TIP3   OH227276   4.101   6.375  11.312  0.2157 -0.1616  0.3939
 1954TIP3    H127277   4.162   6.333  11.373  0.1483  1.4173  1.6066
 1954TIP3    H227278   4.151   6.388  11.232  1.1369  0.1145  1.0033
 1955TIP3   OH227279   6.052   4.779   3.611 -0.3911 -0.0450  0.0946
 1955TIP3    H127280   6.133   4.757   3.657 -0.1785  0.9791  0.2436
 1955TIP3    H227281   6.080   4.836   3.539 -0.8709 -0.5191 -0.4778
 1956TIP3   OH227282   0.064   1.162  12.742  0.6619 -0.1618  0.2415
 1956TIP3    H127283   0.156   1.184  12.729  0.9602 -1.3226  0.2846
 1956TIP3    H227284   0.018   1.245  12.736  1.5491  0.2452 -1.2641
 1957TIP3   OH227285   5.891   2.858   4.225  1.1316 -0.7194 -0.3779
 1957TIP3    H127286   5.922   2.896   4.143  1.8483 -2.2603 -0.8751
 1957TIP3    H227287   5.912   2.923   4.291  0.0909  0.7695 -1.4609
 1958TIP3   OH227288   0.381   1.663  15.441 -0.0319 -0.0707  0.1357
 1958TIP3    H127289   0.473   1.651  15.467  0.4793  0.1145 -1.4497
 1958TIP3    H227290   0.386   1.719  15.364 -1.3821 -1.0217 -0.6792
 1959TIP3   OH227291   4.485   4.498   2.209  0.0050 -0.2830  0.2546
 1959TIP3    H127292   4.483   4.433   2.280 -1.2817 -1.3281 -0.7038
 1959TIP3    H227293   4.445   4.576   2.247 -0.1693 -0.6554  0.8541
 1960TIP3   OH227294   0.884   0.257   1.653 -0.1148 -0.4031 -0.5608
 1960TIP3    H127295   0.870   0.273   1.560 -1.5703  0.0908 -0.2802
 1960TIP3    H227296   0.873   0.343   1.695 -1.0999 -0.8993  0.2338
 1961TIP3   OH227297   6.379   3.343  16.182  0.1363 -0.1828 -0.1220
 1961TIP3    H127298   6.380   3.368  16.090  0.9689  1.6627  0.3366
 1961TIP3    H227299   6.362   3.425  16.229  0.0026 -1.0321  1.3804
 1962TIP3   OH227300   2.825   2.330   5.665  0.4081  0.1009 -0.7159
 1962TIP3    H127301   2.744   2.287   5.693 -0.1742 -0.6713 -3.3418
 1962TIP3    H227302   2.819   2.419   5.701 -0.5430 -0.5724  0.9161
 1963TIP3   OH227303   3.894   0.250  10.495  0.2418  0.3701  0.3009
 1963TIP3    H127304   3.980   0.268  10.533 -1.5977  3.1179  3.8612
 1963TIP3    H227305   3.859   0.180  10.551 -0.7569  1.1410  0.6691
 1964TIP3   OH227306   5.764   5.108   5.430  0.9235 -0.1627  0.7856
 1964TIP3    H127307   5.675   5.086   5.457  0.0501 -0.0913 -1.7685
 1964TIP3    H227308   5.820   5.076   5.502 -1.1495  0.2686  2.6943
 1965TIP3   OH227309   1.767   4.844   0.020  0.2321 -0.0070 -0.0846
 1965TIP3    H127310   1.694   4.861  -0.039 -0.8864 -2.3425  0.4981
 1965TIP3    H227311   1.830   4.795  -0.032  0.7462  0.7787 -0.2076
 1966TIP3   OH227312   6.473   2.063  12.398  0.4815  0.5455  0.0303
 1966TIP3    H127313   6.420   2.078  12.319  0.6645  1.5468  0.0818
 1966TIP3    H227314   6.410   2.038  12.465 -0.3148  3.8320  0.6862
 1967TIP3   OH227315   1.909   3.706  10.434 -0.3996  0.1811 -0.2020
 1967TIP3    H127316   1.902   3.791  10.478  3.9632 -0.5966  2.7148
 1967TIP3    H227317   1.998   3.705  10.398 -0.4304 -2.9407 -0.4921
 1968TIP3   OH227318   1.035   3.850   5.155  0.3241  0.5642  0.4391
 1968TIP3    H127319   1.083   3.858   5.073  1.0258  0.7653  0.8517
 1968TIP3    H227320   1.050   3.934   5.200 -0.8252  0.8210  0.3754
 1969TIP3   OH227321   0.081   1.718  11.486 -0.0593  0.5541  0.2667
 1969TIP3    H127322   0.076   1.659  11.412 -0.1094 -0.4230  1.0260
 1969TIP3    H227323   0.171   1.751  11.485 -0.0906  0.6210 -0.2763
 1970TIP3   OH227324   5.653   6.142   0.423 -0.3612  0.2245 -0.0456
 1970TIP3    H127325   5.696   6.155   0.338 -1.8680  2.8604 -0.5011
 1970TIP3    H227326   5.585   6.076   0.406  1.2937 -1.5992 -0.0484
 1971TIP3   OH227327   3.763   5.038   1.763 -0.0502  0.2883 -0.1379
 1971TIP3    H127328   3.733   4.970   1.823 -0.5012  2.0584  1.7476
 1971TIP3    H227329   3.857   5.022   1.753  0.1820  0.3879  1.6700
 1972TIP3   OH227330   1.780   4.836   3.263  0.5770 -0.6328 -0.4931
 1972TIP3    H127331   1.703   4.784   3.239  0.5041 -0.9523  0.4326
 1972TIP3    H227332   1.781   4.836   3.358  0.4810  1.1908 -0.4448
 1973TIP3   OH227333   2.857   1.062  14.511 -0.4514  0.0822  0.1829
 1973TIP3    H127334   2.770   1.060  14.470 -0.7302  1.0576  0.7149
 1973TIP3    H227335   2.842   1.030  14.600 -0.4795  1.3369  0.6432
 1974TIP3   OH227336   2.089   1.768   0.286  0.5037 -0.7253 -0.7688
 1974TIP3    H127337   2.048   1.685   0.259  0.9202 -1.1454 -0.1442
 1974TIP3    H227338   2.034   1.836   0.247 -0.1589 -1.2918 -0.8429
 1975TIP3   OH227339   3.935   1.154   4.618  0.5079 -0.0443  0.1182
 1975TIP3    H127340   3.965   1.231   4.569  1.2456  0.0311  0.6801
 1975TIP3    H227341   3.968   1.079   4.568 -0.6568 -0.0334 -0.7209
 1976TIP3   OH227342   2.162   2.299  12.157 -0.1804 -0.9282  0.2700
 1976TIP3    H127343   2.077   2.298  12.113 -0.4553 -1.4520  0.8063
 1976TIP3    H227344   2.191   2.391  12.151 -0.0957 -1.0193 -1.2001
 1977TIP3   OH227345   4.930   2.913   0.872  0.0687  0.0675  0.0302
 1977TIP3    H127346   5.025   2.904   0.869  0.0647  0.0705 -0.1783
 1977TIP3    H227347   4.898   2.824   0.886  0.1297  0.1894  1.0078
 1978TIP3   OH227348   1.180   6.082  15.524 -0.0838 -0.7971 -0.2886
 1978TIP3    H127349   1.231   6.044  15.452  0.8894 -0.7429  0.3472
 1978TIP3    H227350   1.245   6.129  15.577 -1.1245  1.0258 -0.5628
 1979TIP3   OH227351   4.471   6.347   1.906  0.2525  0.3514 -0.0062
 1979TIP3    H127352   4.453   6.403   1.830 -0.2227 -1.5144 -1.3364
 1979TIP3    H227353   4.392   6.351   1.958  0.0613  0.5939 -0.3099
 1980TIP3   OH227354   3.737   6.494  15.459 -0.1180 -0.1005 -0.2265
 1980TIP3    H127355   3.642   6.485  15.458 -0.1736  0.4285 -0.8478
 1980TIP3    H227356   3.762   6.494  15.367  0.7769 -2.8418 -0.0782
 1981TIP3   OH227357   1.277   2.513   3.280 -0.4948  0.1991  0.3693
 1981TIP3    H127358   1.348   2.448   3.271  0.5829  1.5189 -1.6704
 1981TIP3    H227359   1.208   2.467   3.327 -0.5044 -3.0976 -2.4209
 1982TIP3   OH227360   6.068   3.927  13.631  0.3570 -0.2235 -0.0048
 1982TIP3    H127361   6.135   3.863  13.655  1.4713  1.2687  1.1219
 1982TIP3    H227362   6.001   3.916  13.698  0.2166 -0.6643 -0.2140
 1983TIP3   OH227363   1.500   6.370  13.955 -0.0231 -0.4197 -0.0924
 1983TIP3    H127364   1.544   6.424  14.021 -0.6841  0.6683 -0.5012
 1983TIP3    H227365   1.441   6.314  14.005 -0.0207 -0.0880  0.2899
 1984TIP3   OH227366   3.979   3.053   0.440  0.0472 -0.1753  0.7570
 1984TIP3    H127367   3.926   3.132   0.450  0.5141  0.5043 -1.5080
 1984TIP3    H227368   3.937   2.988   0.496 -2.9746  0.4177 -0.6503
 1985TIP3   OH227369   1.218   2.362  11.489 -0.0629  0.1091  0.1445
 1985TIP3    H127370   1.181   2.366  11.400 -1.7376  2.8844  0.8382
 1985TIP3    H227371   1.152   2.314  11.540  0.2678 -0.3308  0.1589
 1986TIP3   OH227372   4.814   2.674  10.769 -0.3691  0.1361  0.1834
 1986TIP3    H127373   4.875   2.738  10.733 -1.9682  0.4707 -2.1063
 1986TIP3    H227374   4.776   2.630  10.692  0.3597 -3.3360  1.6148
 1987TIP3   OH227375   4.081   3.028  16.489  0.1448  0.5600 -0.5043
 1987TIP3    H127376   4.043   2.947  16.523  1.0942  0.6497  0.8672
 1987TIP3    H227377   4.173   3.007  16.474  0.9147  1.8806  1.8487
 1988TIP3   OH227378   5.594   1.662   5.264 -0.2218 -0.9236  0.0032
 1988TIP3    H127379   5.569   1.575   5.232 -0.8521 -0.4740 -0.7698
 1988TIP3    H227380   5.512   1.711   5.267 -0.0116 -0.6053  1.2832
 1989TIP3   OH227381   4.786   0.920  15.942 -0.3263 -0.4630  0.2779
 1989TIP3    H127382   4.838   0.898  15.864  0.0857 -1.2244  0.7519
 1989TIP3    H227383   4.737   0.998  15.917  0.7018  0.0111 -0.3473
 1990TIP3   OH227384   5.158   5.669   4.273  0.0287  0.4651 -0.0567
 1990TIP3    H127385   5.087   5.671   4.337  0.1261 -0.0370  0.0707
 1990TIP3    H227386   5.211   5.746   4.294  0.9445 -0.5298  1.4939
 1991TIP3   OH227387   5.523   0.233  17.091  0.0889 -0.1065 -0.0756
 1991TIP3    H127388   5.599   0.286  17.115 -1.3566  1.5166  1.2108
 1991TIP3    H227389   5.470   0.292  17.038 -0.9823 -0.6641  0.3571
 1992TIP3   OH227390   1.631   1.522  16.083 -0.1663  0.0490 -0.3586
 1992TIP3    H127391   1.547   1.484  16.059  0.5327 -1.8482 -0.0058
 1992TIP3    H227392   1.649   1.488  16.171  0.3187  1.5909  0.1698
 1993TIP3   OH227393   2.744   5.123  16.595  0.0451 -0.5243 -1.0112
 1993TIP3    H127394   2.794   5.089  16.520  0.7019  1.0692 -1.3239
 1993TIP3    H227395   2.786   5.206  16.616 -1.7126  0.2716 -0.4740
 1994TIP3   OH227396   6.634   5.266  12.986  0.7884 -0.0494 -0.4972
 1994TIP3    H127397   6.560   5.301  13.037  0.3415 -0.5179 -0.8128
 1994TIP3    H227398   6.663   5.189  13.035 -0.5022 -1.2935 -1.6035
 1995TIP3   OH227399   4.361   6.131   2.059 -0.0274  0.0255 -0.6767
 1995TIP3    H127400   4.445   6.174   2.042 -0.9362  1.5011 -1.5662
 1995TIP3    H227401   4.306   6.153   1.984 -0.8376 -2.0117 -0.7653
 1996TIP3   OH227402   3.980   0.513   5.622  0.0503 -0.5330  0.1682
 1996TIP3    H127403   4.006   0.554   5.539  0.5394  1.4897  1.2588
 1996TIP3    H227404   4.058   0.520   5.677 -0.2692 -1.8506  0.8198
 1997TIP3   OH227405   1.001   4.832   1.691  0.2960  0.6084 -0.0437
 1997TIP3    H127406   1.049   4.906   1.728 -1.1738  1.6336 -0.1185
 1997TIP3    H227407   1.007   4.763   1.758  0.4102  1.3122  0.6759
 1998TIP3   OH227408   0.686   4.409  10.576 -1.0038 -0.7620 -0.4074
 1998TIP3    H127409   0.611   4.349  10.571 -0.9183 -1.0577  1.2546
 1998TIP3    H227410   0.761   4.352  10.590 -0.3662 -0.4908 -2.3627
 1999TIP3   OH227411   3.055   3.991  10.789  0.2080 -0.0868 -0.1082
 1999TIP3    H127412   3.099   4.031  10.865  0.3309 -0.6454  0.1227
 1999TIP3    H227413   2.963   4.016  10.799  0.2906  0.1877 -0.0030
 2000TIP3   OH227414   1.158   3.065  15.957 -0.6905 -0.1773  0.7614
 2000TIP3    H127415   1.121   3.050  16.044 -1.1332  0.7272  0.7464
 2000TIP3    H227416   1.247   3.095  15.974  0.5455 -3.4200  0.7696
 2001TIP3   OH227417   0.532   0.347  16.420  0.6250 -0.1824  0.0253
 2001TIP3    H127418   0.559   0.298  16.343  4.7095  0.7712  0.6540
 2001TIP3    H227419   0.557   0.438  16.402  0.7408  0.2397  2.0176
 2002TIP3   OH227420   3.470   4.453   5.010  0.0149 -0.1493  0.1382
 2002TIP3    H127421   3.534   4.418   5.073 -0.0607 -0.6110 -0.0403
 2002TIP3    H227422   3.385   4.437   5.051 -0.0658 -0.9921 -0.3430
 2003TIP3   OH227423   5.370   1.315   3.751 -0.0275  0.3688  0.2987
 2003TIP3    H127424   5.385   1.402   3.788 -0.6326  1.1111 -1.1176
 2003TIP3    H227425   5.431   1.258   3.798  1.8903  1.9108 -0.1878
 2004TIP3   OH227426   6.678   5.455  16.432 -0.9225  0.0805  0.4423
 2004TIP3    H127427   6.653   5.371  16.391 -1.7828  0.8844 -0.7480
 2004TIP3    H227428   6.747   5.489  16.376 -0.9459  0.4181  0.6174
 2005TIP3   OH227429   1.017   3.509   0.675 -0.1990 -0.1590 -0.4160
 2005TIP3    H127430   1.063   3.545   0.599 -2.0690  0.1205 -1.4714
 2005TIP3    H227431   1.039   3.568   0.747  2.6695 -1.1632 -0.3518
 2006TIP3   OH227432   3.601   1.667  14.340 -0.0581 -0.2956 -0.2774
 2006TIP3    H127433   3.579   1.576  14.360 -3.1206  0.5960  1.0486
 2006TIP3    H227434   3.563   1.683  14.254 -0.5183  0.0067 -0.0220
 2007TIP3   OH227435   5.365   2.080  13.204 -0.0207  0.2137  0.2195
 2007TIP3    H127436   5.451   2.087  13.162  0.5948 -2.9690  0.6676
 2007TIP3    H227437   5.371   2.000  13.256 -3.3326 -0.2339  0.1245
 2008TIP3   OH227438   4.441   1.737  12.689  0.9056 -0.2861 -0.0025
 2008TIP3    H127439   4.354   1.702  12.712  0.2992  0.4173 -1.1159
 2008TIP3    H227440   4.500   1.700  12.755 -0.1920 -1.0070  0.6132
 2009TIP3   OH227441   4.142   4.056  15.883 -0.1681  0.2293  0.4677
 2009TIP3    H127442   4.174   3.975  15.842 -1.0673 -0.6744  1.5063
 2009TIP3    H227443   4.068   4.029  15.936  0.8243  1.3775  2.5764
 2010TIP3   OH227444   5.338   3.189   1.898 -0.3447  0.1503  0.3885
 2010TIP3    H127445   5.413   3.222   1.849 -0.7270  0.1245 -0.2195
 2010TIP3    H227446   5.352   3.094   1.902  0.3805  0.2738  1.5157
 2011TIP3   OH227447   1.186   1.397   2.053  0.2477 -0.3640 -0.2292
 2011TIP3    H127448   1.167   1.362   2.140  1.0308 -0.5550 -0.1255
 2011TIP3    H227449   1.228   1.324   2.006  0.7319  0.0405 -0.4319
 2012TIP3   OH227450   0.960   2.385   5.519 -0.1668 -0.4948  0.5112
 2012TIP3    H127451   0.977   2.394   5.425 -0.9390 -0.3207  0.3835
 2012TIP3    H227452   0.989   2.296   5.540  0.8360 -0.2295  0.2974
 2013TIP3   OH227453   1.939   5.837   3.104  0.1045  0.2351  0.2395
 2013TIP3    H127454   2.011   5.882   3.148 -0.1562 -0.6143  1.6108
 2013TIP3    H227455   1.981   5.764   3.057  0.4157  1.3041 -1.2114
 2014TIP3   OH227456   5.348   2.949  14.548 -0.4483 -0.1685  0.1288
 2014TIP3    H127457   5.352   2.993  14.464 -0.2086 -1.1699 -0.3994
 2014TIP3    H227458   5.289   3.003  14.601 -0.4852  0.5461 -0.6231
 2015TIP3   OH227459   4.058   1.920  16.499 -0.3009  0.1180  0.4173
 2015TIP3    H127460   4.143   1.944  16.461 -0.3001 -0.8586 -0.2279
 2015TIP3    H227461   3.994   1.953  16.436 -0.3151 -1.0707 -0.2164
 2016TIP3   OH227462   3.027   2.470   0.386  0.4633  0.1481  0.7202
 2016TIP3    H127463   2.982   2.440   0.465 -0.1765 -0.3726  0.1781
 2016TIP3    H227464   3.065   2.390   0.348 -0.2134  0.1995 -0.0974
 2017TIP3   OH227465   1.390   0.130   1.382  0.2670 -0.3067  0.0506
 2017TIP3    H127466   1.355   0.130   1.471  1.3945  1.4914  0.5507
 2017TIP3    H227467   1.481   0.103   1.392  0.1344 -1.0878 -0.7145
 2018TIP3   OH227468   0.657   4.873  17.054  0.2049  0.6240 -0.2698
 2018TIP3    H127469   0.610   4.890  17.136 -0.5960  0.3204 -0.6611
 2018TIP3    H227470   0.592   4.887  16.986 -0.3285 -3.0973 -0.6869
 2019TIP3   OH227471   2.424   5.369  12.150 -0.4126 -0.1783 -0.0103
 2019TIP3    H127472   2.514   5.402  12.143 -0.7602  0.9832  0.6342
 2019TIP3    H227473   2.372   5.433  12.103 -1.1152  0.2207  1.2533
 2020TIP3   OH227474   0.575   1.212   4.323  0.1308  0.1398  0.0703
 2020TIP3    H127475   0.576   1.220   4.228 -0.5982 -1.4168 -0.1068
 2020TIP3    H227476   0.657   1.168   4.345  0.5931  1.0654  0.2441
 2021TIP3   OH227477   6.197   1.227   1.469  0.5926 -0.1664  0.0485
 2021TIP3    H127478   6.135   1.215   1.541 -0.7900  1.0277 -0.8749
 2021TIP3    H227479   6.263   1.159   1.483 -0.7754 -1.3384  1.2278
 2022TIP3   OH227480   1.474   6.391  16.828  0.1604  0.1973  0.5250
 2022TIP3    H127481   1.443   6.308  16.865  0.5606  0.4246  1.4120
 2022TIP3    H227482   1.564   6.373  16.799 -0.4250 -0.1978 -1.1292
 2023TIP3   OH227483   6.642   4.778   3.177 -0.3645 -0.5332 -0.0248
 2023TIP3    H127484   6.695   4.732   3.242 -2.6198  0.0617  2.4101
 2023TIP3    H227485   6.658   4.871   3.194 -1.4594 -0.3615  0.1698
 2024TIP3   OH227486   6.367   4.030  15.733  0.7116  0.4467  0.3854
 2024TIP3    H127487   6.371   4.061  15.643  0.4001 -0.0088  0.2090
 2024TIP3    H227488   6.302   4.085  15.776  0.3635  0.2252  0.1481
 2025TIP3   OH227489   4.410   3.631  11.640  0.4810 -0.8487 -0.2474
 2025TIP3    H127490   4.358   3.698  11.595  1.3261  0.7912  1.0982
 2025TIP3    H227491   4.480   3.680  11.683  0.7761 -2.5427  1.3167
 2026TIP3   OH227492   0.529   6.249   2.702 -0.3128  0.0983  0.4036
 2026TIP3    H127493   0.554   6.160   2.727  2.6476 -0.0224 -2.2913
 2026TIP3    H227494   0.470   6.237   2.628  2.2511  0.1762 -1.8081
 2027TIP3   OH227495   6.036   0.933  14.011 -0.1913 -0.2793  0.0207
 2027TIP3    H127496   6.025   1.021  14.046  3.1872  1.3488 -2.4395
 2027TIP3    H227497   5.948   0.904  13.989 -1.3390  2.9994 -0.1524
 2028TIP3   OH227498   3.310   5.988  15.793 -0.0976  0.3148 -0.3017
 2028TIP3    H127499   3.399   6.004  15.824 -0.1592  1.8467 -0.8448
 2028TIP3    H227500   3.255   6.037  15.854 -0.6414 -1.1247  0.4025
 2029TIP3   OH227501   0.708   5.494  16.937 -0.5566  0.3305  0.1828
 2029TIP3    H127502   0.761   5.533  16.867 -0.2857 -0.9634 -0.3582
 2029TIP3    H227503   0.736   5.403  16.941 -1.3688  0.0997  1.2291
 2030TIP3   OH227504   2.237   3.588   3.591 -0.7186  0.0716  0.1057
 2030TIP3    H127505   2.242   3.498   3.623  0.9241 -0.4291 -1.4191
 2030TIP3    H227506   2.292   3.638   3.652  0.8500 -0.5391 -0.7481
 2031TIP3   OH227507   4.833   3.397   4.452  0.5637  0.8201  0.7042
 2031TIP3    H127508   4.794   3.439   4.375  1.7225  0.0646 -0.3256
 2031TIP3    H227509   4.762   3.343   4.488  0.1532  0.8185 -0.0959
 2032TIP3   OH227510   5.359   0.970  13.270  0.3076 -0.5717 -0.0903
 2032TIP3    H127511   5.317   1.056  13.281 -1.3515 -1.4136  0.5390
 2032TIP3    H227512   5.305   0.926  13.204  1.4871 -0.9374 -0.8342
 2033TIP3   OH227513   1.449   3.432  16.170 -0.6357  0.2842  0.3486
 2033TIP3    H127514   1.453   3.485  16.090  1.5230  0.7193  0.6833
 2033TIP3    H227515   1.412   3.491  16.236 -0.2761  0.6822  0.2038
 2034TIP3   OH227516   0.917   5.160  11.650 -0.3424  0.2501  0.5717
 2034TIP3    H127517   0.936   5.083  11.704  0.0824  0.2491  0.4251
 2034TIP3    H227518   0.821   5.163  11.646 -0.3621 -0.4740  0.2946
 2035TIP3   OH227519   1.034   5.857  11.476  0.6016 -0.0388  0.0647
 2035TIP3    H127520   1.040   5.950  11.500  0.2218 -0.5187  2.2431
 2035TIP3    H227521   1.125   5.830  11.465  0.8986  0.0546  1.9003
 2036TIP3   OH227522   5.224   6.263   3.368 -1.1617  0.0051 -0.2098
 2036TIP3    H127523   5.280   6.188   3.391 -1.9470 -0.5193  0.0147
 2036TIP3    H227524   5.135   6.232   3.383 -1.6223  0.2676 -2.1945
 2037TIP3   OH227525   6.681   0.439   3.199  0.2473 -0.0554 -0.2485
 2037TIP3    H127526   6.613   0.486   3.247  0.6075  0.9019 -0.6594
 2037TIP3    H227527   6.742   0.410   3.266 -0.0606 -0.0904  0.0223
 2038TIP3   OH227528   3.379   3.518   3.161  0.1246  0.3340 -0.1266
 2038TIP3    H127529   3.326   3.475   3.094 -1.4962  4.0201 -1.4881
 2038TIP3    H227530   3.331   3.505   3.242  0.1403 -1.0213 -0.3087
 2039TIP3   OH227531   0.597   5.000  13.560  0.0750 -0.2385  0.0860
 2039TIP3    H127532   0.572   4.967  13.647 -0.0777 -0.4007 -0.0166
 2039TIP3    H227533   0.561   4.935  13.499 -0.4759  0.2765 -0.1360
 2040TIP3   OH227534   0.804   5.008  14.725 -0.4116 -0.4966 -0.1466
 2040TIP3    H127535   0.826   5.005  14.818 -0.3029  0.8338 -0.1188
 2040TIP3    H227536   0.886   4.987  14.681 -0.0288  0.5622  0.0375
 2041TIP3   OH227537   1.416   5.232  13.948 -0.1296  0.0188  0.0087
 2041TIP3    H127538   1.505   5.229  13.984  0.1026  0.8798 -0.4711
 2041TIP3    H227539   1.365   5.175  14.006  1.0364 -1.7469 -0.6217
 2042TIP3   OH227540   1.611   3.274   4.465  0.5787  0.2257  0.6980
 2042TIP3    H127541   1.530   3.299   4.508  0.2292 -1.6007  1.1915
 2042TIP3    H227542   1.650   3.208   4.523  1.8028  0.1945 -0.1221
 2043TIP3   OH227543   5.475   3.790   0.889  0.2343  0.4860 -0.3764
 2043TIP3    H127544   5.517   3.727   0.830 -1.0711  0.2741 -1.1166
 2043TIP3    H227545   5.547   3.825   0.941  1.1349 -0.8869 -0.6265
 2044TIP3   OH227546   5.298   4.760   0.683  0.0474  0.0294  0.0089
 2044TIP3    H127547   5.254   4.845   0.691 -0.6744 -0.3959  0.6136
 2044TIP3    H227548   5.249   4.714   0.615  0.6535  0.2186 -0.5681
 2045TIP3   OH227549   5.755   4.924  11.503  0.0430 -0.0415  0.3442
 2045TIP3    H127550   5.840   4.968  11.509  0.7239 -1.2803  0.0755
 2045TIP3    H227551   5.771   4.837  11.540 -1.4053  0.0940  1.3690
 2046TIP3   OH227552   1.200   2.616  15.839  0.1239 -0.5520  0.2298
 2046TIP3    H127553   1.177   2.571  15.920  0.3193 -0.9937  0.0406
 2046TIP3    H227554   1.189   2.549  15.771 -2.6065  0.4644 -0.4725
 2047TIP3   OH227555   1.605   3.717   3.888 -0.3176  0.6272  0.6952
 2047TIP3    H127556   1.554   3.662   3.828  0.9267  0.7647 -0.5399
 2047TIP3    H227557   1.597   3.674   3.973 -1.4324 -0.0508  0.2598
 2048TIP3   OH227558   4.060   4.638  14.295  0.1807  0.5485 -0.0160
 2048TIP3    H127559   4.011   4.634  14.378  1.4322  1.1448  0.7781
 2048TIP3    H227560   4.150   4.617  14.319  0.6958  1.4127 -1.1153
 2049TIP3   OH227561   1.034   2.287   6.288 -0.3026 -0.4399 -0.1615
 2049TIP3    H127562   1.049   2.296   6.382 -0.2995 -0.7206 -0.1337
 2049TIP3    H227563   0.943   2.258   6.281 -0.8375  1.1975 -0.3255
 2050TIP3   OH227564   4.032   3.619  11.927 -0.0711  0.1156 -0.8174
 2050TIP3    H127565   4.027   3.652  12.016  0.1863 -0.4717 -0.5844
 2050TIP3    H227566   4.111   3.658  11.891  1.0816 -1.4115 -0.0499
 2051TIP3   OH227567   4.270   5.861  14.622 -0.3403  0.6312  0.0955
 2051TIP3    H127568   4.308   5.949  14.626  0.2694  0.4523 -1.2226
 2051TIP3    H227569   4.251   5.839  14.713 -0.1174  1.9575  0.4867
 2052TIP3   OH227570   6.161   4.845  11.729  0.3434  0.5811  0.0089
 2052TIP3    H127571   6.236   4.831  11.671 -0.0782 -1.0179 -0.1847
 2052TIP3    H227572   6.161   4.770  11.788  0.2746  1.7671  1.5928
 2053TIP3   OH227573   3.154   4.273   1.750 -0.1276  0.1387 -0.4104
 2053TIP3    H127574   3.228   4.230   1.707 -1.7867 -2.7170 -0.6385
 2053TIP3    H227575   3.082   4.265   1.689 -1.8969 -1.7664  1.7279
 2054TIP3   OH227576   0.737   3.837  13.156 -0.5038  0.2380 -0.4428
 2054TIP3    H127577   0.644   3.813  13.158 -0.3911 -0.1573  0.4024
 2054TIP3    H227578   0.741   3.923  13.199 -0.2411 -0.6718  1.4830
 2055TIP3   OH227579   1.393   0.144   2.133 -0.0275 -0.1712 -0.2272
 2055TIP3    H127580   1.362   0.086   2.063  2.0856 -0.7746 -0.7069
 2055TIP3    H227581   1.476   0.178   2.101  1.6810 -1.4698  2.4784
 2056TIP3   OH227582   0.405   0.155  13.452  0.3699 -0.2319  0.8712
 2056TIP3    H127583   0.325   0.122  13.492 -1.1431  1.3828 -0.6518
 2056TIP3    H227584   0.425   0.236  13.500  0.0432  0.3162  0.1054
 2057TIP3   OH227585   4.230   5.704  10.785  0.5274  0.0600 -0.0241
 2057TIP3    H127586   4.157   5.649  10.814  1.3825 -2.6163 -2.5081
 2057TIP3    H227587   4.215   5.716  10.691  3.7034 -1.4863 -0.8761
 2058TIP3   OH227588   2.080   1.408   1.158 -0.2729  0.4294 -0.1705
 2058TIP3    H127589   1.991   1.444   1.158 -0.9300 -0.8937 -2.8444
 2058TIP3    H227590   2.124   1.451   1.085  0.0354 -1.5474 -1.2224
 2059TIP3   OH227591   4.305   2.083  13.904 -0.2676  0.1056 -1.5037
 2059TIP3    H127592   4.354   2.132  13.971 -0.6330  0.0422 -1.1840
 2059TIP3    H227593   4.364   2.078  13.829  0.1161  0.2511 -1.2120
 2060TIP3   OH227594   5.158   1.861   6.745  1.0385 -0.2194  0.5036
 2060TIP3    H127595   5.078   1.898   6.707  1.1744  0.3936  0.8100
 2060TIP3    H227596   5.128   1.781   6.788  0.5821  0.0121  0.6253
 2061TIP3   OH227597   6.621   1.214   0.100  0.0582  0.0928  0.8840
 2061TIP3    H127598   6.544   1.156   0.105 -1.0158  1.2982 -0.8269
 2061TIP3    H227599   6.587   1.301   0.120  1.0501  0.6103  0.3682
 2062TIP3   OH227600   6.079   2.009   5.940  0.0603 -0.3260 -0.9173
 2062TIP3    H127601   6.096   1.915   5.931 -0.1439 -0.6355  1.2972
 2062TIP3    H227602   6.060   2.021   6.033 -1.4700  1.6707 -1.4092
 2063TIP3   OH227603   5.343   4.795  14.175  0.0237  0.4984 -0.5250
 2063TIP3    H127604   5.327   4.885  14.201 -1.4182 -0.2527  1.4584
 2063TIP3    H227605   5.362   4.749  14.257 -0.2106 -1.1764 -1.3515
 2064TIP3   OH227606   4.916   3.238  16.757 -0.5272  0.1050 -0.3636
 2064TIP3    H127607   4.970   3.315  16.738 -2.4993  1.7406  0.3871
 2064TIP3    H227608   4.897   3.244  16.851 -0.2513 -1.6428 -0.1592
 2065TIP3   OH227609   1.448   4.494   1.130 -0.0921  0.4477  0.0030
 2065TIP3    H127610   1.516   4.450   1.079  0.3337 -0.3356  1.2171
 2065TIP3    H227611   1.462   4.464   1.220 -1.9633  0.3677  0.3012
 2066TIP3   OH227612   5.031   5.689   2.280  0.5372  0.2735  0.0857
 2066TIP3    H127613   5.044   5.783   2.293 -0.2383  0.6498 -1.6970
 2066TIP3    H227614   5.034   5.676   2.186 -1.5190 -1.1649  0.1559
 2067TIP3   OH227615   6.440   0.998   4.604  0.3618 -0.2256 -0.3496
 2067TIP3    H127616   6.413   1.038   4.521  1.0689  0.1510 -0.4039
 2067TIP3    H227617   6.500   1.062   4.643  3.4736 -2.2066 -1.5601
 2068TIP3   OH227618   3.786   4.807   5.295 -0.1110  0.1841  0.2050
 2068TIP3    H127619   3.875   4.843   5.297 -0.2905  1.1536 -2.8145
 2068TIP3    H227620   3.760   4.800   5.386  3.1831 -0.4818  1.2086
 2069TIP3   OH227621   3.558   4.079   1.662 -0.6581  0.1780  0.0965
 2069TIP3    H127622   3.594   4.029   1.734  0.1648  0.7325  0.0856
 2069TIP3    H227623   3.608   4.161   1.662 -0.6862  0.2111 -1.0615
 2070TIP3   OH227624   6.013   1.872  14.920 -0.0019  0.2777 -0.0583
 2070TIP3    H127625   5.969   1.794  14.952  3.5292 -1.0771  1.8982
 2070TIP3    H227626   6.053   1.845  14.837 -2.0589  1.3429 -1.5215
 2071TIP3   OH227627   4.489   6.710  14.385 -0.2875  0.6969  0.1233
 2071TIP3    H127628   4.442   6.737  14.306 -1.3902  1.2129  0.9308
 2071TIP3    H227629   4.545   6.785  14.406  1.2322 -0.0641 -1.0522
 2072TIP3   OH227630   2.115   3.524   1.364 -0.1473  0.1515 -0.5274
 2072TIP3    H127631   2.131   3.606   1.317  1.1425  0.4246  0.3424
 2072TIP3    H227632   2.183   3.464   1.332  0.8339  0.3788  1.0353
 2073TIP3   OH227633   5.455   4.887   1.599 -0.4510  0.1772 -0.3260
 2073TIP3    H127634   5.463   4.793   1.589  1.0200  0.1735  0.6572
 2073TIP3    H227635   5.419   4.917   1.516 -0.1163 -1.1465 -0.9702
 2074TIP3   OH227636   2.145   5.155   5.140 -0.1516  0.6486 -0.2330
 2074TIP3    H127637   2.200   5.182   5.067 -1.1749 -0.2341 -1.3635
 2074TIP3    H227638   2.205   5.111   5.201  0.7995  1.8667 -0.2696
 2075TIP3   OH227639   4.611   3.225  12.142 -0.1484 -0.3259 -0.9640
 2075TIP3    H127640   4.575   3.257  12.059 -3.2289  1.6229  0.9339
 2075TIP3    H227641   4.601   3.298  12.202  2.3814 -1.5306  1.1276
 2076TIP3   OH227642   4.632   3.602  14.652 -0.6503 -0.0691  0.5374
 2076TIP3    H127643   4.709   3.562  14.694  0.2524 -1.4844 -2.2170
 2076TIP3    H227644   4.638   3.695  14.676  1.1082 -0.3909  1.5824
 2077TIP3   OH227645   1.983   4.610   4.452  0.2811  0.0141  0.0602
 2077TIP3    H127646   2.068   4.653   4.449  0.4301 -0.2427  0.5687
 2077TIP3    H227647   1.970   4.575   4.364  0.6544  0.1368 -0.0426
 2078TIP3   OH227648   4.278   4.174  14.584  0.1217 -0.2982  0.1322
 2078TIP3    H127649   4.369   4.204  14.586 -0.3172  1.0775 -0.0776
 2078TIP3    H227650   4.284   4.080  14.603  1.6315 -0.3457 -0.4333
 2079TIP3   OH227651   3.024   4.071  15.148 -0.1373  0.8193  0.2062
 2079TIP3    H127652   3.002   4.004  15.213  0.3781  0.3219 -0.1230
 2079TIP3    H227653   2.947   4.076  15.091 -0.4244  0.9620  0.5995
 2080TIP3   OH227654   3.395   1.914   2.895 -0.5485 -0.4563  0.3798
 2080TIP3    H127655   3.349   1.998   2.892  0.4191  0.0825 -1.5989
 2080TIP3    H227656   3.330   1.852   2.927 -2.1822  0.5655 -0.8066
 2081TIP3   OH227657   6.553   3.977   2.271  0.9318 -0.3956  0.1467
 2081TIP3    H127658   6.492   3.987   2.344  0.6415 -0.5965 -0.0619
 2081TIP3    H227659   6.529   4.047   2.210 -1.8055 -2.7724 -1.8009
 2082TIP3   OH227660   3.256   6.446   1.690  0.4147 -0.3020 -0.0159
 2082TIP3    H127661   3.250   6.353   1.671  1.0078 -0.5216  0.8205
 2082TIP3    H227662   3.185   6.463   1.752  0.7773 -0.3620  0.4214
 2083TIP3   OH227663   0.897   1.480  15.080  0.2700 -0.5122 -0.4758
 2083TIP3    H127664   0.821   1.430  15.049 -0.6348 -0.7854  1.9945
 2083TIP3    H227665   0.860   1.544  15.141  1.6006  2.1027 -2.2085
 2084TIP3   OH227666   6.077   4.263   3.415 -0.2755  0.1282  0.6321
 2084TIP3    H127667   6.016   4.193   3.438  0.3936 -1.3326 -1.6265
 2084TIP3    H227668   6.022   4.337   3.391 -1.0997 -0.5223  0.5007
 2085TIP3   OH227669   3.869   5.813  15.152  0.2876 -0.1519  0.1806
 2085TIP3    H127670   3.877   5.761  15.072 -0.7724 -0.3359  0.1813
 2085TIP3    H227671   3.928   5.771  15.214 -1.1210 -1.8870  0.4329
 2086TIP3   OH227672   3.619   5.588   3.901 -0.1502 -0.1673  0.4194
 2086TIP3    H127673   3.633   5.502   3.863  1.1706 -0.7658  2.1621
 2086TIP3    H227674   3.701   5.635   3.886 -0.3679  0.3113  0.6993
 2087TIP3   OH227675   0.250   5.794  15.304 -0.7323  0.4213  0.2791
 2087TIP3    H127676   0.216   5.718  15.350 -2.0438  0.8759  0.1021
 2087TIP3    H227677   0.343   5.775  15.290 -0.9993 -1.0469  0.4178
 2088TIP3   OH227678   1.706   5.442  16.175  0.5315  0.2033 -0.2036
 2088TIP3    H127679   1.757   5.519  16.151  1.7060 -0.3377  0.4244
 2088TIP3    H227680   1.732   5.375  16.112  0.4588 -0.0196 -0.0013
 2089TIP3   OH227681   6.322   2.781  15.157  0.9651  0.5206 -0.0452
 2089TIP3    H127682   6.229   2.804  15.158 -0.0168 -2.8575 -1.1949
 2089TIP3    H227683   6.345   2.771  15.250 -1.0388 -2.4611  0.2633
 2090TIP3   OH227684   4.338   1.485  10.970  0.2223 -0.0010  0.0614
 2090TIP3    H127685   4.257   1.491  10.919  0.6527  1.5419 -0.5232
 2090TIP3    H227686   4.336   1.399  11.010 -1.5952 -0.0774 -0.1383
 2091TIP3   OH227687   4.086   4.367  15.817 -0.4735 -0.4653  0.0333
 2091TIP3    H127688   3.999   4.402  15.836 -0.4555 -0.1011 -0.5165
 2091TIP3    H227689   4.105   4.309  15.890 -0.6728  0.3765  0.7754
 2092TIP3   OH227690   0.055   5.362  16.747 -0.1188  0.3583  0.2331
 2092TIP3    H127691   0.066   5.268  16.738  2.3422  0.3996  1.9348
 2092TIP3    H227692   0.028   5.375  16.837 -1.0620  1.2844 -0.1558
 2093TIP3   OH227693   4.056   6.185  15.680 -0.3425  0.0831  0.3119
 2093TIP3    H127694   4.092   6.209  15.766 -1.1895  1.7712  0.2441
 2093TIP3    H227695   4.022   6.268  15.645 -1.3794 -0.8549 -0.9905
 2094TIP3   OH227696   0.908   0.038   4.339 -0.0880  0.5305 -0.4295
 2094TIP3    H127697   0.886   0.018   4.430  0.0967  1.0432 -0.2716
 2094TIP3    H227698   0.834   0.004   4.289 -2.0461  3.5245  0.1941
 2095TIP3   OH227699   5.474   5.709   3.676  0.2642  0.3510  0.1019
 2095TIP3    H127700   5.549   5.758   3.643 -1.1320  2.6610  0.2130
 2095TIP3    H227701   5.413   5.706   3.603  0.1814 -1.0409  0.1900
 2096TIP3   OH227702   4.451   3.892  16.559 -0.4227 -0.4628 -0.4393
 2096TIP3    H127703   4.431   3.829  16.490  1.0018 -0.4601 -0.8788
 2096TIP3    H227704   4.458   3.976  16.513  3.1404 -0.8154 -0.8514
 2097TIP3   OH227705   3.991   5.621  16.280 -0.3669 -0.3012 -0.4774
 2097TIP3    H127706   3.953   5.681  16.215 -0.2256  0.8636  0.4783
 2097TIP3    H227707   4.085   5.621  16.259 -0.1981  0.7065  0.1800
 2098TIP3   OH227708   2.843   2.150   3.043 -0.2459 -0.1729 -0.2707
 2098TIP3    H127709   2.816   2.143   2.951 -1.0937  3.0199 -0.3678
 2098TIP3    H227710   2.888   2.234   3.048  0.2876 -0.5329  2.1818
 2099TIP3   OH227711   4.005   6.783   1.263  0.0956 -0.0375 -0.2452
 2099TIP3    H127712   3.952   6.737   1.328 -0.4109  1.7951  0.7044
 2099TIP3    H227713   3.942   6.837   1.214  0.9742  1.9952  0.7402
 2100TIP3   OH227714   0.303   6.583   1.391  0.1663  0.1998  0.4880
 2100TIP3    H127715   0.255   6.563   1.471  0.5342  0.4626  0.7767
 2100TIP3    H227716   0.259   6.532   1.323 -1.4779  1.5607  0.4651
 2101TIP3   OH227717   2.730   4.487  17.139 -0.0431  0.0934  0.2363
 2101TIP3    H127718   2.782   4.412  17.168  0.7589 -0.0095 -1.3504
 2101TIP3    H227719   2.746   4.492  17.045 -0.1929  2.1928  0.2861
 2102TIP3   OH227720   3.638   2.692   0.189  0.4525 -0.5962  0.1337
 2102TIP3    H127721   3.728   2.663   0.177  0.7689 -0.3626  1.6951
 2102TIP3    H227722   3.646   2.774   0.238 -0.5947 -0.3484 -0.0884
 2103TIP3   OH227723   0.770   2.059  13.184  0.2772  0.5856  0.1369
 2103TIP3    H127724   0.709   2.132  13.198 -0.4703  0.0176 -0.0843
 2103TIP3    H227725   0.855   2.101  13.176 -0.2568  1.5474 -1.0190
 2104TIP3   OH227726   6.088   3.457  14.565 -0.1404  0.7835 -0.3387
 2104TIP3    H127727   6.164   3.443  14.622 -1.2367 -1.1917  0.7190
 2104TIP3    H227728   6.088   3.382  14.506  0.2318  2.1581 -2.1767
 2105TIP3   OH227729   4.603   2.340   5.494 -0.0859  0.2608  0.0240
 2105TIP3    H127730   4.509   2.353   5.480  0.3983  3.0174 -1.1868
 2105TIP3    H227731   4.626   2.403   5.562  1.0343  0.1674 -0.2561
 2106TIP3   OH227732   6.226   1.709   0.093 -0.6067 -0.1879  0.2322
 2106TIP3    H127733   6.276   1.770   0.148 -0.2780  0.0022 -0.2584
 2106TIP3    H227734   6.162   1.765   0.048  0.4973  0.0237 -1.1452
 2107TIP3   OH227735   6.321   2.454   1.246  0.4166 -0.5379 -0.0863
 2107TIP3    H127736   6.234   2.423   1.274 -0.8676  1.4143 -1.6315
 2107TIP3    H227737   6.304   2.503   1.166  2.2702  3.7201  1.8522
 2108TIP3   OH227738   0.953   3.740  14.013 -0.0324  0.0433 -0.4145
 2108TIP3    H127739   1.010   3.700  13.948  1.8583 -2.0176  2.2504
 2108TIP3    H227740   1.012   3.769  14.082 -1.9054  2.2581  0.3893
 2109TIP3   OH227741   0.391   4.842   3.220  0.0865  0.1612 -0.0377
 2109TIP3    H127742   0.316   4.891   3.254 -0.4480  1.5267 -2.8717
 2109TIP3    H227743   0.353   4.762   3.183 -0.0439  0.8087 -1.3881
 2110TIP3   OH227744   0.393   6.752   2.498  0.0966  0.3074  0.9210
 2110TIP3    H127745   0.419   6.741   2.590  0.7644 -1.0412  0.5934
 2110TIP3    H227746   0.308   6.709   2.492  1.0302 -1.5864  0.4648
 2111TIP3   OH227747   1.833   2.073   2.953  0.1091  0.2064  0.4405
 2111TIP3    H127748   1.809   2.064   2.861 -0.0274 -0.0950  0.5042
 2111TIP3    H227749   1.908   2.133   2.953  0.0006  0.3440  0.1508
 2112TIP3   OH227750   4.625   1.431  16.305 -0.1964  0.1318 -0.3645
 2112TIP3    H127751   4.686   1.499  16.275  0.0351 -0.4293 -1.1901
 2112TIP3    H227752   4.631   1.435  16.400  0.9157  0.2827 -0.4215
 2113TIP3   OH227753   4.838   2.500  17.223 -0.6700  0.1008  0.3919
 2113TIP3    H127754   4.932   2.489  17.237 -0.0039 -0.7381 -3.5085
 2113TIP3    H227755   4.797   2.442  17.287  1.5262 -0.8796  1.0188
 2114TIP3   OH227756   0.595   2.965  10.631 -1.1542 -0.3564 -0.3832
 2114TIP3    H127757   0.587   3.009  10.716 -0.9921  1.2198 -1.1352
 2114TIP3    H227758   0.641   2.883  10.650 -2.7601 -0.9374  1.2964
 2115TIP3   OH227759   4.908   0.993  11.293  0.4471  0.0704  0.1120
 2115TIP3    H127760   4.999   0.992  11.262  1.4616  2.1983  2.5799
 2115TIP3    H227761   4.867   1.064  11.245 -0.3082 -1.5443 -1.7547
 2116TIP3   OH227762   2.611   1.767   2.722  0.2547  0.1217 -0.3026
 2116TIP3    H127763   2.561   1.769   2.641  1.1322  1.0849 -0.8429
 2116TIP3    H227764   2.622   1.674   2.741 -1.5272 -0.1124 -0.2791
 2117TIP3   OH227765   4.572   6.465   0.168 -0.2874 -0.3588  0.0060
 2117TIP3    H127766   4.648   6.518   0.191 -1.0147  0.7990 -0.1719
 2117TIP3    H227767   4.518   6.466   0.248 -0.9117  0.2863 -0.4055
 2118TIP3   OH227768   3.616   6.701  10.538  0.1325 -0.2812 -0.4178
 2118TIP3    H127769   3.551   6.769  10.518  1.5396  0.9439 -1.0630
 2118TIP3    H227770   3.587   6.625  10.487 -0.4583  0.4342 -1.1891
 2119TIP3   OH227771   2.145   1.502  11.802  0.2389 -0.9224 -0.0343
 2119TIP3    H127772   2.103   1.560  11.866  0.7398 -2.3855  1.7004
 2119TIP3    H227773   2.233   1.538  11.791 -0.2071 -0.0094 -0.8242
 2120TIP3   OH227774   6.208   5.587   1.157 -0.1519  0.0801 -0.0868
 2120TIP3    H127775   6.144   5.516   1.164 -1.1115  1.0533  2.1968
 2120TIP3    H227776   6.205   5.614   1.065 -2.6807 -0.2657 -0.1671
 2121TIP3   OH227777   2.175   6.354   1.925  0.7925  0.0685 -0.3104
 2121TIP3    H127778   2.249   6.325   1.872  2.0354  1.3504  0.6667
 2121TIP3    H227779   2.202   6.439   1.960 -0.0828 -0.5673  2.1245
 2122TIP3   OH227780   6.430   5.338  16.699  0.2855  0.6838  0.1969
 2122TIP3    H127781   6.487   5.262  16.691 -0.7313 -0.3934  2.2778
 2122TIP3    H227782   6.342   5.303  16.691 -0.1965  1.6969  0.7957
 2123TIP3   OH227783   1.434   3.769  15.044 -0.1644 -0.0483 -0.1829
 2123TIP3    H127784   1.426   3.838  14.977 -0.3627 -0.0639 -0.1729
 2123TIP3    H227785   1.446   3.817  15.126 -1.0486 -0.0119 -0.0690
 2124TIP3   OH227786   2.377   6.107   0.552 -0.0648  0.5627 -0.2983
 2124TIP3    H127787   2.300   6.140   0.599  0.4308 -0.1835  1.0899
 2124TIP3    H227788   2.450   6.158   0.586  0.5599 -1.1550  1.1205
 2125TIP3   OH227789   4.973   4.896  15.552  0.1741  0.3852 -0.7888
 2125TIP3    H127790   5.060   4.896  15.591  0.2197 -0.0227 -0.8912
 2125TIP3    H227791   4.988   4.876  15.459  0.2763  3.2146 -1.4888
 2126TIP3   OH227792   3.425   6.780  13.129  0.4982 -0.1034 -0.3630
 2126TIP3    H127793   3.492   6.751  13.191  0.4664  0.5924  0.0039
 2126TIP3    H227794   3.368   6.704  13.119  0.6027 -0.2832  0.3283
 2127TIP3   OH227795   1.862   4.594  11.776  0.2397 -0.0990 -0.6735
 2127TIP3    H127796   1.769   4.610  11.760  0.4002  0.9520 -0.6330
 2127TIP3    H227797   1.869   4.499  11.784 -0.9311 -0.1466 -0.0125
 2128TIP3   OH227798   5.031   3.287   4.205 -0.1545  0.0103  0.2970
 2128TIP3    H127799   5.121   3.303   4.235  0.5020 -0.8230 -1.1139
 2128TIP3    H227800   4.995   3.227   4.269  0.2657  0.4019  0.9167
 2129TIP3   OH227801   6.656   3.206  16.265 -0.0713  0.3307  0.2472
 2129TIP3    H127802   6.718   3.206  16.338  0.7749  3.5379 -0.3322
 2129TIP3    H227803   6.613   3.291  16.269  0.1987  0.7586 -3.1135
 2130TIP3   OH227804   3.272   5.273   4.099 -0.6622  0.5753  0.3587
 2130TIP3    H127805   3.306   5.286   4.010  0.4976  2.0081  0.9722
 2130TIP3    H227806   3.198   5.213   4.087 -0.0162  0.0552 -1.4600
 2131TIP3   OH227807   4.377   5.564   0.718  0.0811  0.0768 -0.2701
 2131TIP3    H127808   4.441   5.587   0.786  0.6948 -0.7529 -0.5577
 2131TIP3    H227809   4.429   5.551   0.639 -0.2716 -1.8205 -0.2398
 2132TIP3   OH227810   4.031   4.675   0.181  0.1202 -0.3829 -0.1750
 2132TIP3    H127811   4.107   4.725   0.208 -0.0750  0.0042 -0.3400
 2132TIP3    H227812   3.957   4.719   0.222 -0.0476 -0.5699 -0.2741
 2133TIP3   OH227813   5.677   6.599  14.292  0.7132 -0.1407 -0.0049
 2133TIP3    H127814   5.670   6.510  14.326 -2.4299 -0.8951 -2.2760
 2133TIP3    H227815   5.753   6.597  14.233  1.1349 -1.0393  0.5485
 2134TIP3   OH227816   2.555   2.092   1.689 -0.0467  0.0234  0.1895
 2134TIP3    H127817   2.648   2.069   1.700  0.0848 -0.1845 -1.1933
 2134TIP3    H227818   2.521   2.095   1.778  1.3562  0.4062  0.7459
 2135TIP3   OH227819   3.740   0.185   1.897  0.4700  0.5117  0.0563
 2135TIP3    H127820   3.761   0.246   1.827  1.3270  1.4602  1.0878
 2135TIP3    H227821   3.704   0.108   1.853 -1.9344  2.2484 -1.2180
 2136TIP3   OH227822   4.111   4.232  13.736  0.6652 -0.1070  0.5644
 2136TIP3    H127823   4.126   4.156  13.793  2.5524  0.1492  0.4717
 2136TIP3    H227824   4.061   4.293  13.789  1.4363 -0.3377  1.5932
 2137TIP3   OH227825   5.584   5.280   2.919  0.4586  0.6212  0.8817
 2137TIP3    H127826   5.662   5.254   2.969  0.8643 -2.3412 -1.0634
 2137TIP3    H227827   5.617   5.294   2.830 -1.2999 -1.7807 -0.2472
 2138TIP3   OH227828   4.035   3.306   6.179 -0.3061 -0.2876  0.2876
 2138TIP3    H127829   4.094   3.341   6.112 -1.3698 -0.2393 -0.6500
 2138TIP3    H227830   4.029   3.376   6.244 -0.5174  0.3216 -0.3673
 2139TIP3   OH227831   3.969   6.504  13.394  0.4385 -0.1107 -0.3210
 2139TIP3    H127832   4.039   6.547  13.443  0.3589  1.3994 -1.4511
 2139TIP3    H227833   3.980   6.535  13.304 -0.0605 -1.9662 -1.0818
 2140TIP3   OH227834   6.808   5.567   2.467 -0.1155 -0.3962  0.2150
 2140TIP3    H127835   6.714   5.580   2.454 -0.3419 -2.5999 -0.6276
 2140TIP3    H227836   6.849   5.613   2.394 -0.7067 -1.4860 -0.8436
 2141TIP3   OH227837   3.086   6.480  14.320  0.2152  0.1130  0.3120
 2141TIP3    H127838   3.139   6.522  14.388 -0.5511  0.4139  0.7370
 2141TIP3    H227839   3.072   6.549  14.255 -1.0221  0.5327  0.9986
 2142TIP3   OH227840   1.692   6.068  16.068 -0.1653  0.1007  1.0486
 2142TIP3    H127841   1.771   6.120  16.051 -0.7243  0.5703 -0.2204
 2142TIP3    H227842   1.624   6.110  16.016 -0.7280 -1.6690  0.2856
 2143TIP3   OH227843   5.358   1.146  15.594  0.0450  0.1684  0.2990
 2143TIP3    H127844   5.366   1.106  15.681 -1.9716  0.0126  0.4781
 2143TIP3    H227845   5.414   1.223  15.598 -1.4667  1.2890  2.5050
 2144TIP3   OH227846   2.691   5.730  15.447 -0.2855 -0.4367  0.0439
 2144TIP3    H127847   2.770   5.777  15.421  0.5008 -0.7680  1.7292
 2144TIP3    H227848   2.661   5.688  15.366  1.5299 -0.6912 -0.5493
 2145TIP3   OH227849   1.483   4.265   6.009  0.0260 -0.4447 -0.3656
 2145TIP3    H127850   1.434   4.306   6.080 -0.2939 -0.7064 -0.4299
 2145TIP3    H227851   1.416   4.239   5.946  0.4293  1.3234 -1.5950
 2146TIP3   OH227852   2.506   5.866   5.746 -0.1391 -0.1026  0.3327
 2146TIP3    H127853   2.472   5.785   5.783 -1.1060  0.9323  1.8116
 2146TIP3    H227854   2.543   5.914   5.820  1.6967  0.2202 -0.7365
 2147TIP3   OH227855   0.011   2.631   4.792 -0.3469  0.1995 -0.0277
 2147TIP3    H127856  -0.003   2.707   4.736  0.6246 -0.4215 -1.1467
 2147TIP3    H227857   0.077   2.660   4.855  0.1486  0.2369 -0.5574
 2148TIP3   OH227858   4.112   6.797  11.223  0.5942 -0.9546 -0.1722
 2148TIP3    H127859   4.049   6.856  11.182 -0.1444 -0.4525  1.5851
 2148TIP3    H227860   4.067   6.712  11.225  0.0066 -0.6345  0.9276
 2149TIP3   OH227861   4.290   5.421  14.369 -1.0333  0.1799 -0.1719
 2149TIP3    H127862   4.320   5.497  14.420  1.6700 -2.2185  2.1859
 2149TIP3    H227863   4.346   5.420  14.292  0.8063 -0.7761  1.1073
 2150TIP3   OH227864   6.089   0.220  16.989 -0.0361 -0.1455  0.0124
 2150TIP3    H127865   6.169   0.232  17.040  0.1299  0.1104 -0.3064
 2150TIP3    H227866   6.024   0.193  17.054  0.0370  0.6931  0.4443
 2151TIP3   OH227867   6.614   2.553  11.911 -0.3935 -0.0162 -0.3517
 2151TIP3    H127868   6.673   2.618  11.949  2.6102 -1.5015 -2.0215
 2151TIP3    H227869   6.566   2.600  11.843 -0.7350  1.1099  0.6337
 2152TIP3   OH227870   5.666   4.874  12.492  0.2294 -0.0590  0.3627
 2152TIP3    H127871   5.633   4.836  12.574  0.4111  0.6099  0.7521
 2152TIP3    H227872   5.622   4.958  12.485 -0.6028 -0.5623 -0.7896
 2153TIP3   OH227873   0.260   1.241  14.451  0.2559  0.2285  0.6608
 2153TIP3    H127874   0.174   1.275  14.473  0.3851 -0.7095  2.9114
 2153TIP3    H227875   0.243   1.153  14.418  0.1613  1.2250 -2.2285
 2154TIP3   OH227876   6.277   1.576   2.114  0.4761  0.5210  0.3906
 2154TIP3    H127877   6.344   1.587   2.046  0.1183 -1.8393 -0.4346
 2154TIP3    H227878   6.327   1.562   2.194  0.9086  1.7486  0.3645
 2155TIP3   OH227879   2.455   2.324  15.375 -0.3105 -0.3472 -0.8033
 2155TIP3    H127880   2.421   2.363  15.294 -0.2703  1.8495  0.1621
 2155TIP3    H227881   2.376   2.304  15.426 -0.2961 -0.4767 -0.8318
 2156TIP3   OH227882   1.461   2.798   4.902  0.6372 -0.2911 -0.1940
 2156TIP3    H127883   1.379   2.821   4.945 -0.0646 -1.1997 -1.0045
 2156TIP3    H227884   1.525   2.793   4.974 -0.3210 -0.9855  0.6405
 2157TIP3   OH227885   1.104   3.722   2.158 -0.0536  0.1814  0.1203
 2157TIP3    H127886   1.021   3.704   2.114  0.3529  0.9532 -1.0172
 2157TIP3    H227887   1.168   3.730   2.087  0.7289  0.9409  0.8744
 2158TIP3   OH227888   3.933   6.561  11.230 -0.1339  0.1560  0.1572
 2158TIP3    H127889   3.975   6.475  11.238  0.4609  0.5408  1.4262
 2158TIP3    H227890   3.853   6.553  11.283  0.4564  0.6992  1.1428
 2159TIP3   OH227891   6.323   4.120   2.196 -0.9755 -0.2950 -0.2220
 2159TIP3    H127892   6.332   4.201   2.146 -0.6805  0.2549  0.6969
 2159TIP3    H227893   6.356   4.052   2.138 -1.0577  0.2590 -0.9389
 2160TIP3   OH227894   3.619   1.259   5.113  0.5696  0.5657 -0.1498
 2160TIP3    H127895   3.611   1.169   5.083  1.0925  0.8546 -1.1889
 2160TIP3    H227896   3.561   1.264   5.189 -0.9067 -0.1533 -1.1839
 2161TIP3   OH227897   0.785   4.603  13.372  0.1293  0.2101  1.3122
 2161TIP3    H127898   0.789   4.639  13.461 -0.1948  2.4127  0.4815
 2161TIP3    H227899   0.877   4.588  13.349  0.3123  1.0312  1.4817
 2162TIP3   OH227900   4.817   5.032  12.949  0.0656  0.2330 -0.0502
 2162TIP3    H127901   4.824   4.985  12.866 -2.0555  0.3665 -0.3654
 2162TIP3    H227902   4.802   5.123  12.923  0.9622  0.5453  0.5095
 2163TIP3   OH227903   1.630   4.752   0.222  0.1499 -0.1940 -0.3840
 2163TIP3    H127904   1.671   4.805   0.153  0.6158  0.7488  0.5847
 2163TIP3    H227905   1.592   4.816   0.282 -0.5085 -1.0053  0.0860
 2164TIP3   OH227906   4.158   5.403  12.542 -0.6397  0.0729  0.5739
 2164TIP3    H127907   4.213   5.397  12.620 -0.5096 -0.5346  0.4402
 2164TIP3    H227908   4.076   5.361  12.568 -0.1349 -1.3579 -0.0072
 2165TIP3   OH227909   4.569   6.542   3.680  0.2631  0.1698 -0.0047
 2165TIP3    H127910   4.523   6.472   3.726 -1.1863  2.5092  2.3916
 2165TIP3    H227911   4.647   6.499   3.644 -1.5191 -3.0411 -0.4685
 2166TIP3   OH227912   1.764   3.659   4.748  0.7704  0.0621 -0.1951
 2166TIP3    H127913   1.672   3.682   4.765  0.3374 -1.3866 -0.4583
 2166TIP3    H227914   1.787   3.712   4.671 -0.0796 -0.0916 -0.5729
 2167TIP3   OH227915   2.582   3.763  17.008  0.6684  0.0283  0.1962
 2167TIP3    H127916   2.538   3.814  17.076 -0.8486  1.1546 -1.5349
 2167TIP3    H227917   2.633   3.827  16.959 -1.6632  0.1654 -2.3242
 2168TIP3   OH227918   6.029   0.879   5.221  0.4781 -0.1823  0.0753
 2168TIP3    H127919   6.041   0.784   5.215 -0.6165 -0.3050 -0.5176
 2168TIP3    H227920   6.018   0.896   5.315 -0.1941 -0.7737  0.1156
 2169TIP3   OH227921   4.118   5.778  11.289 -0.0206  0.6329 -0.3255
 2169TIP3    H127922   4.079   5.782  11.376  0.9864  0.1898  0.1710
 2169TIP3    H227923   4.208   5.811  11.302  0.4356 -0.3023 -0.9986
 2170TIP3   OH227924   1.535   2.456  15.779 -0.2912 -0.2682  0.8733
 2170TIP3    H127925   1.501   2.534  15.822 -0.2148 -0.2724  0.9400
 2170TIP3    H227926   1.458   2.416  15.737  0.0283  1.1021 -1.1906
 2171TIP3   OH227927   3.011   2.064   4.970 -0.2868  0.1281  0.4276
 2171TIP3    H127928   2.959   2.039   4.894  1.8087  1.1006 -1.4078
 2171TIP3    H227929   3.054   1.982   4.996  0.9102  0.2801 -1.0079
 2172TIP3   OH227930   1.608   5.600   1.077  0.5654 -0.0511  0.8103
 2172TIP3    H127931   1.674   5.547   1.121  2.6262  0.1838 -1.6950
 2172TIP3    H227932   1.577   5.545   1.005  0.3769  0.9758  0.0798
 2173TIP3   OH227933   5.296   1.313   4.973 -0.1047  0.0738  0.6051
 2173TIP3    H127934   5.278   1.342   5.062  1.1630  0.0249  0.8968
 2173TIP3    H227935   5.354   1.238   4.983  2.9499  2.1160 -0.2438
 2174TIP3   OH227936   2.750   1.396  13.654  0.0964  0.1005 -0.0272
 2174TIP3    H127937   2.800   1.315  13.642  0.5845  0.4639 -0.4909
 2174TIP3    H227938   2.666   1.379  13.611 -0.0991 -0.4276  0.5475
 2175TIP3   OH227939   3.776   4.837  12.522 -0.0367 -0.2295 -0.2760
 2175TIP3    H127940   3.748   4.864  12.610 -0.2734  0.2224 -0.4883
 2175TIP3    H227941   3.822   4.913  12.487 -1.8515  0.4248 -1.3942
 2176TIP3   OH227942   4.002   1.219  13.648 -0.3035  0.2408 -0.4448
 2176TIP3    H127943   4.004   1.301  13.598  1.0976  0.6231  0.1854
 2176TIP3    H227944   3.948   1.240  13.725  0.4672  0.7532 -0.0255
 2177TIP3   OH227945   4.212   1.617   4.651  0.4511 -0.0226  0.3465
 2177TIP3    H127946   4.154   1.658   4.714  2.0825 -1.4768  2.9946
 2177TIP3    H227947   4.296   1.663   4.662  0.7174 -0.1497 -0.9685
 2178TIP3   OH227948   2.807   5.023   2.263 -0.1957  0.4822  0.4866
 2178TIP3    H127949   2.714   5.028   2.242 -0.5073 -0.3647  1.5559
 2178TIP3    H227950   2.848   4.986   2.185 -0.3309  3.1749 -0.9843
 2179TIP3   OH227951   1.287   1.556  16.375 -0.3425 -0.1000  0.2753
 2179TIP3    H127952   1.196   1.581  16.365  0.2636  1.7372 -1.2178
 2179TIP3    H227953   1.330   1.585  16.295  1.4932 -1.3138  0.7347
 2180TIP3   OH227954   2.528   4.220   5.175 -0.4717  0.1552 -0.3423
 2180TIP3    H127955   2.441   4.237   5.212 -1.4224  0.6476 -2.5995
 2180TIP3    H227956   2.533   4.125   5.166 -0.2021  0.0231  1.0027
 2181TIP3   OH227957   5.933   6.328  14.164  0.0036  0.3013  0.3263
 2181TIP3    H127958   5.952   6.381  14.242 -3.3187  0.8534  0.9185
 2181TIP3    H227959   5.902   6.391  14.099 -0.8179 -0.5317 -0.1215
 2182TIP3   OH227960   5.783   3.873   0.260 -0.4228  0.1462 -0.1531
 2182TIP3    H127961   5.869   3.832   0.252 -0.5645 -0.2793  0.4701
 2182TIP3    H227962   5.802   3.967   0.267  0.1797 -0.0908  2.4638
 2183TIP3   OH227963   1.459   0.179  11.888  0.3776 -0.0585  0.6288
 2183TIP3    H127964   1.370   0.191  11.921 -0.9815 -1.5068 -2.1751
 2183TIP3    H227965   1.492   0.268  11.874 -2.2279  0.6362 -2.0402
 2184TIP3   OH227966   5.938   2.792  17.114 -0.2415 -1.3097 -0.3056
 2184TIP3    H127967   5.914   2.716  17.061 -3.1861 -1.0670  0.5001
 2184TIP3    H227968   5.960   2.756  17.200  1.4187 -1.4412 -0.7520
 2185TIP3   OH227969   3.704   0.109   3.833  0.2296 -0.3954  0.5608
 2185TIP3    H127970   3.765   0.044   3.868 -0.3169 -0.5386  1.2680
 2185TIP3    H227971   3.724   0.113   3.740  1.4069 -0.3446  0.8039
 2186TIP3   OH227972   0.836   3.539  11.490  0.0928  0.5518  0.5279
 2186TIP3    H127973   0.752   3.584  11.494  0.9431  2.1862  0.5255
 2186TIP3    H227974   0.820   3.453  11.530 -2.6853 -1.0166 -3.3245
 2187TIP3   OH227975   1.784   0.047   5.483 -0.5911 -0.1065 -0.2992
 2187TIP3    H127976   1.698   0.007   5.495 -0.1204 -0.7845  1.1305
 2187TIP3    H227977   1.838  -0.023   5.446 -0.0837 -0.4663  1.0411
 2188TIP3   OH227978   1.112   3.647   0.877  0.0218 -0.6115 -0.0766
 2188TIP3    H127979   1.133   3.697   0.955 -0.1449  0.2295 -0.5621
 2188TIP3    H227980   1.196   3.627   0.837  0.0317  1.0124 -0.9395
 2189TIP3   OH227981   2.287   6.301  14.806  0.1348 -0.0779 -0.4088
 2189TIP3    H127982   2.362   6.284  14.750  0.3008 -2.2283  0.3625
 2189TIP3    H227983   2.298   6.393  14.833  2.6098 -0.3660 -0.1575
 2190TIP3   OH227984   1.891   6.104  11.693  0.1711  0.7976 -0.6845
 2190TIP3    H127985   1.813   6.059  11.660  1.3546 -1.7252 -0.3062
 2190TIP3    H227986   1.917   6.162  11.621 -1.2113  0.6305 -1.3694
 2191TIP3   OH227987   6.178   0.887   2.599  0.2542 -0.2528  0.3395
 2191TIP3    H127988   6.165   0.792   2.603 -1.4540 -0.0366  1.2868
 2191TIP3    H227989   6.089   0.923   2.609  0.5427  1.4259 -2.2544
 2192TIP3   OH227990   6.717   1.361  11.967 -0.7764  0.1675  0.6119
 2192TIP3    H127991   6.713   1.358  12.063 -2.5431 -0.5239  0.5538
 2192TIP3    H227992   6.663   1.436  11.943  1.4124  1.6852  0.1793
 2193TIP3   OH227993   6.208   6.684  11.128  0.3387 -0.0213  1.2989
 2193TIP3    H127994   6.158   6.608  11.160 -0.8184  0.2867  0.2809
 2193TIP3    H227995   6.187   6.689  11.035  1.1145  1.0288  1.1632
 2194TIP3   OH227996   1.501   6.625   0.296  0.3452  0.0090  0.3665
 2194TIP3    H127997   1.584   6.672   0.291  0.4316  0.0784  1.9410
 2194TIP3    H227998   1.438   6.682   0.253  0.9711  0.2802 -0.2095
 2195TIP3   OH227999   5.311   3.766  13.269  0.2284  0.2855  0.0824
 2195TIP3    H128000   5.399   3.755  13.233 -0.0478  0.9343 -0.8392
 2195TIP3    H228001   5.325   3.786  13.361  0.9096 -2.3512  0.6224
 2196TIP3   OH228002   4.229   6.684   2.227  0.5671 -0.1907  0.2109
 2196TIP3    H128003   4.177   6.750   2.182 -0.1190  0.9834  2.5552
 2196TIP3    H228004   4.226   6.608   2.169 -0.9223  0.9475 -1.3091
 2197TIP3   OH228005   1.136   3.716   3.969 -0.4903  0.2567  0.4767
 2197TIP3    H128006   1.196   3.787   3.946  0.1619 -0.4906 -0.1760
 2197TIP3    H228007   1.141   3.655   3.896 -1.0326 -0.4771  1.0333
 2198TIP3   OH228008   4.778   4.226  13.839  0.0129 -0.4273 -0.3326
 2198TIP3    H128009   4.777   4.220  13.744 -0.9919 -1.2671 -0.2970
 2198TIP3    H228010   4.694   4.187  13.866  0.2133 -0.0677  0.8833
 2199TIP3   OH228011   4.485   5.406  15.732 -0.1322  0.0629  0.1085
 2199TIP3    H128012   4.485   5.501  15.745  1.0746  0.0451  0.3588
 2199TIP3    H228013   4.509   5.371  15.818 -1.0953 -0.5033  0.1589
 2200TIP3   OH228014   3.685   1.760   3.069  0.0923 -0.1637 -0.2519
 2200TIP3    H128015   3.693   1.722   3.157  0.2727  0.0416 -0.1783
 2200TIP3    H228016   3.632   1.839   3.083  1.6583  0.8842 -0.0178
 2201TIP3   OH228017   5.969   6.052   4.463 -0.5944  0.5030  0.0788
 2201TIP3    H128018   5.932   5.965   4.451  0.5626  0.1371 -1.0997
 2201TIP3    H228019   5.996   6.054   4.555  0.9122 -1.0389 -0.2759
 2202TIP3   OH228020   6.754   0.254  13.982 -0.3398  0.9176  0.7007
 2202TIP3    H128021   6.738   0.348  13.980  0.3614  1.0740 -2.2877
 2202TIP3    H228022   6.677   0.216  13.939  0.6760  0.4343 -0.7718
 2203TIP3   OH228023   4.962   1.643   0.097  0.0473 -0.2416 -0.2554
 2203TIP3    H128024   4.946   1.550   0.084 -0.2984 -0.0876 -0.9697
 2203TIP3    H228025   4.883   1.686   0.065  0.0603  0.2842  0.3832
 2204TIP3   OH228026   4.088   4.360   6.657  0.3833 -0.5847  0.8476
 2204TIP3    H128027   4.109   4.445   6.617 -0.1262  0.8303  3.4117
 2204TIP3    H228028   4.098   4.297   6.585  0.7522  1.6179 -1.1571
 2205TIP3   OH228029   5.409   2.772   5.914  0.6016  0.4954 -0.0226
 2205TIP3    H128030   5.395   2.681   5.937 -0.9017  0.9140  0.8492
 2205TIP3    H228031   5.501   2.777   5.888  0.4708 -1.4464 -1.0372
 2206TIP3   OH228032   2.451   6.342   0.043 -0.6818  0.3398 -0.2997
 2206TIP3    H128033   2.441   6.356  -0.051 -1.1803  1.9744 -0.0462
 2206TIP3    H228034   2.368   6.305   0.071  0.0424 -1.7035 -0.7253
 2207TIP3   OH228035   1.586   0.984   5.305  0.2459  0.5658 -0.1609
 2207TIP3    H128036   1.516   0.919   5.310 -0.1745  0.9229 -1.0597
 2207TIP3    H228037   1.635   0.974   5.386  0.2428 -0.9391 -0.3213
 2208TIP3   OH228038   1.687   5.766  15.695  0.2645 -0.9665  0.3107
 2208TIP3    H128039   1.673   5.808  15.610  1.3442  0.7653  0.9511
 2208TIP3    H228040   1.758   5.815  15.735 -2.1710  0.2718  3.4955
 2209TIP3   OH228041   2.858   5.777   3.056 -0.1494 -0.3393  0.1766
 2209TIP3    H128042   2.945   5.796   3.022 -0.3400 -0.7912 -0.5965
 2209TIP3    H228043   2.836   5.853   3.109  0.5064  0.0118 -0.0385
 2210TIP3   OH228044   2.162   2.622  16.304 -0.5476  0.5532  0.8969
 2210TIP3    H128045   2.156   2.644  16.397 -0.8454  1.5514  0.6509
 2210TIP3    H228046   2.077   2.646  16.267 -0.6173 -0.3198  0.4560
 2211TIP3   OH228047   1.772   2.316  10.943  0.3608  0.9960 -0.0307
 2211TIP3    H128048   1.740   2.226  10.936  1.7247  0.5123 -0.3414
 2211TIP3    H228049   1.693   2.370  10.947 -0.4737 -0.2257  0.3303
 2212TIP3   OH228050   1.244   1.829   1.775 -0.2552 -0.2232 -0.4376
 2212TIP3    H128051   1.270   1.747   1.733  0.1033 -0.3905  0.1114
 2212TIP3    H228052   1.290   1.897   1.726  0.4981 -0.4509 -0.0516
 2213TIP3   OH228053   5.714   1.549  16.541  0.8066 -0.5597  0.5192
 2213TIP3    H128054   5.798   1.593  16.553  0.3179  0.8610 -0.8980
 2213TIP3    H228055   5.658   1.585  16.609  0.1338  1.8796 -1.1990
 2214TIP3   OH228056   1.952   0.410  10.493 -0.2046  0.1895 -0.8869
 2214TIP3    H128057   2.019   0.378  10.433  0.2955  2.1245 -1.4136
 2214TIP3    H228058   1.969   0.504  10.501 -2.8631  0.7661 -1.0789
 2215TIP3   OH228059   6.611   0.001  14.777 -0.0199 -0.6205 -0.6862
 2215TIP3    H128060   6.538  -0.040  14.823 -0.8115  1.3105 -0.1381
 2215TIP3    H228061   6.589  -0.008  14.684 -0.0780 -1.5933 -0.5807
 2216TIP3   OH228062   6.450   2.885  14.817 -0.4314  0.1020  0.2338
 2216TIP3    H128063   6.502   2.822  14.767 -0.2781  1.2828 -1.1512
 2216TIP3    H228064   6.377   2.906  14.759 -0.2788  1.4668  0.5185
 2217TIP3   OH228065   5.544   5.624   1.969 -0.1415 -0.7332 -0.3741
 2217TIP3    H128066   5.505   5.596   2.052  0.5831 -0.0226  0.2272
 2217TIP3    H228067   5.575   5.542   1.929  1.9197 -0.8763  1.3428
 2218TIP3   OH228068   5.943   4.935   1.592 -0.3860 -0.3417  0.5377
 2218TIP3    H128069   5.850   4.959   1.584 -0.3473 -0.5289 -0.7695
 2218TIP3    H228070   5.980   4.955   1.506  1.0266  0.6751  1.3440
 2219TIP3   OH228071   3.672   1.899  15.883 -0.4803 -0.4272  0.6188
 2219TIP3    H128072   3.653   1.830  15.820  1.7478 -0.1086 -0.4928
 2219TIP3    H228073   3.627   1.976  15.850  0.3815 -0.3535 -0.4463
 2220TIP3   OH228074   3.057   0.042  11.280  0.1030  0.3612 -0.2817
 2220TIP3    H128075   2.983   0.103  11.274  0.8565  1.1625 -2.0040
 2220TIP3    H228076   3.121   0.076  11.218  1.1694 -1.3646 -0.1829
 2221TIP3   OH228077   6.735   2.600   1.135  0.6219  0.1975  0.4495
 2221TIP3    H128078   6.769   2.610   1.046  0.6239 -0.2809  0.3927
 2221TIP3    H228079   6.812   2.601   1.190  0.7841 -1.3484  0.2809
 2222TIP3   OH228080   2.901   2.859  13.740 -0.2336  0.1716  0.5007
 2222TIP3    H128081   2.880   2.952  13.730  1.9890  0.8462  1.5823
 2222TIP3    H228082   2.993   2.852  13.718 -0.1960 -1.6873  1.0807
 2223TIP3   OH228083   0.299   3.043  12.608 -0.3703  0.0608 -0.0936
 2223TIP3    H128084   0.224   3.000  12.649 -0.1370 -0.3005 -0.0422
 2223TIP3    H228085   0.317   3.117  12.665  1.3858 -1.6985  1.8104
 2224TIP3   OH228086   3.867   2.016   6.236 -0.0809  0.0997  0.1110
 2224TIP3    H128087   3.800   2.064   6.285  1.5623 -0.6847  3.3965
 2224TIP3    H228088   3.945   2.071   6.243  0.4266 -0.4744 -0.8884
 2225TIP3   OH228089   0.066   3.210   5.249 -0.5042  0.1114  0.5341
 2225TIP3    H128090   0.002   3.171   5.307 -0.9011  1.5783  1.1125
 2225TIP3    H228091   0.061   3.304   5.266  0.1761  0.4739 -1.0515
 2226TIP3   OH228092   1.533   6.795   0.840  0.3886  0.3464 -0.2096
 2226TIP3    H128093   1.539   6.802   0.745  1.6936 -1.1375 -0.2691
 2226TIP3    H228094   1.450   6.749   0.855 -1.0480  2.6733 -0.4476
 2227TIP3   OH228095   2.315   3.626   2.011  0.0938  0.2307  0.4402
 2227TIP3    H128096   2.267   3.709   2.007 -0.7746 -0.2132  1.2709
 2227TIP3    H228097   2.308   3.590   1.923 -1.4033  0.0192  0.6158
 2228TIP3   OH228098   0.289   1.071   3.346  0.1520 -0.1579 -0.0024
 2228TIP3    H128099   0.347   1.013   3.297  0.7130 -0.6534  1.2049
 2228TIP3    H228100   0.315   1.159   3.318 -0.7092 -0.4468 -1.8407
 2229TIP3   OH228101   6.157   2.973  17.115  0.3672 -0.5357 -0.0795
 2229TIP3    H128102   6.075   2.927  17.100  0.4197 -0.5098 -0.4479
 2229TIP3    H228103   6.134   3.066  17.109  0.0661 -0.4660  1.6296
 2230TIP3   OH228104   1.103   0.608  15.847 -0.3809  0.3641 -0.1943
 2230TIP3    H128105   1.064   0.664  15.780 -0.9496  1.6124  1.1535
 2230TIP3    H228106   1.070   0.641  15.930 -0.9942 -2.1685  0.6731
 2231TIP3   OH228107   4.529   3.645   5.074  0.3028 -0.2141 -0.2095
 2231TIP3    H128108   4.532   3.574   5.138  2.2300 -0.1500 -0.1541
 2231TIP3    H228109   4.498   3.604   4.993  2.1953 -1.3741 -0.4076
 2232TIP3   OH228110   5.043   2.837  15.944  0.0733  0.0251 -0.1771
 2232TIP3    H128111   5.062   2.927  15.917 -0.5735  0.7606  1.6709
 2232TIP3    H228112   5.126   2.790  15.931  0.5344  0.9787 -0.7767
 2233TIP3   OH228113   4.374   5.947   3.533  0.1292  0.2336 -0.4978
 2233TIP3    H128114   4.300   5.887   3.524  0.2016  0.0513  0.0754
 2233TIP3    H228115   4.342   6.031   3.501 -0.5363  0.3199  0.3731
 2234TIP3   OH228116   0.040   6.515   4.971  0.3855 -0.5643  0.1928
 2234TIP3    H128117   0.110   6.469   4.923  1.3737 -1.6052  2.4737
 2234TIP3    H228118  -0.040   6.467   4.948  0.3222  0.7037 -2.5352
 2235TIP3   OH228119   1.048   1.325  15.996 -0.1749 -0.8082 -0.5454
 2235TIP3    H128120   1.033   1.256  15.932 -0.6555 -2.0676  0.8575
 2235TIP3    H228121   1.131   1.301  16.037 -0.7560 -1.0347  0.5241
 2236TIP3   OH228122   6.216   5.836   2.701  0.5601  0.6889  0.1385
 2236TIP3    H128123   6.297   5.822   2.751  1.4775  1.6210 -1.0382
 2236TIP3    H228124   6.199   5.930   2.710  0.7261  0.8660 -1.2455
 2237TIP3   OH228125   4.880   3.282  16.044  0.3537  0.1972  0.0030
 2237TIP3    H128126   4.960   3.333  16.051  0.8926 -0.7646  1.2773
 2237TIP3    H228127   4.890   3.232  15.963  0.7528  0.5425 -0.1632
 2238TIP3   OH228128   1.975   3.871  15.619  0.2132  0.4960 -0.2339
 2238TIP3    H128129   1.989   3.777  15.629  1.1668  0.3017 -2.7038
 2238TIP3    H228130   1.879   3.881  15.620  0.1085 -0.1788  2.0144
 2239TIP3   OH228131   1.247   0.034  14.202 -0.1089  0.1448  0.2360
 2239TIP3    H128132   1.297  -0.045  14.182 -1.2020 -0.1970 -1.2850
 2239TIP3    H228133   1.173   0.002  14.255 -0.8064  0.0525 -0.7697
 2240TIP3   OH228134   5.710   3.512   4.198 -0.1656 -0.1547  0.2723
 2240TIP3    H128135   5.635   3.545   4.248 -0.5059  0.4220 -0.5955
 2240TIP3    H228136   5.771   3.586   4.196  1.2075 -1.1449  2.4055
 2241TIP3   OH228137   0.019   5.060  16.982  0.2001 -0.0503  0.2517
 2241TIP3    H128138   0.025   5.003  16.906 -2.3671 -0.9270  0.6085
 2241TIP3    H228139   0.001   5.147  16.946  0.4014 -0.1967 -0.1981
 2242TIP3   OH228140   1.205   2.670   5.827  0.2823  0.0576  0.2462
 2242TIP3    H128141   1.221   2.764   5.816  0.4528  0.1741  1.3883
 2242TIP3    H228142   1.184   2.660   5.920 -0.1295 -0.9826  0.0524
 2243TIP3   OH228143   6.014   2.733  16.104 -0.0883 -0.1412  0.0158
 2243TIP3    H128144   6.040   2.682  16.181  0.6084  1.7811  1.1042
 2243TIP3    H228145   5.921   2.751  16.118  0.0776  0.3482  0.4946
 2244TIP3   OH228146   6.415   1.675  17.150  0.1629  0.2269  0.3026
 2244TIP3    H128147   6.342   1.722  17.191 -0.1968 -0.6055  0.6487
 2244TIP3    H228148   6.373   1.604  17.101  0.6866  0.3619 -0.3532
 2245TIP3   OH228149   2.380   4.424  16.646  1.4858  0.1788  0.5489
 2245TIP3    H128150   2.431   4.386  16.718  1.7684 -1.9107 -0.6755
 2245TIP3    H228151   2.354   4.349  16.593  0.6927  1.5948 -1.1571
 2246TIP3   OH228152   2.021   5.358   0.856  0.4464 -0.2710 -0.3313
 2246TIP3    H128153   2.105   5.321   0.883  0.5979 -0.0746 -0.5294
 2246TIP3    H228154   1.966   5.282   0.838  0.0960 -0.4244  1.2514
 2247TIP3   OH228155   6.030   3.781   4.690  0.0847  0.1918 -0.7515
 2247TIP3    H128156   6.006   3.691   4.712  0.2577  0.3453  0.1264
 2247TIP3    H228157   5.957   3.834   4.724 -0.6020  0.3083 -2.3216
 2248TIP3   OH228158   5.281   1.857   4.112 -0.1825  0.0063 -0.0071
 2248TIP3    H128159   5.240   1.914   4.178  1.8888  2.5172 -0.7042
 2248TIP3    H228160   5.218   1.855   4.040 -1.8599 -1.6378  1.4016
 2249TIP3   OH228161   4.811   1.649   1.723  0.1895 -0.3959 -0.4005
 2249TIP3    H128162   4.742   1.640   1.788  0.9545  1.7764  0.8332
 2249TIP3    H228163   4.869   1.574   1.738 -0.9051 -1.2414 -0.2607
 2250TIP3   OH228164   4.210   0.445  11.364  0.1630  0.0010  0.1640
 2250TIP3    H128165   4.138   0.409  11.312  0.3443 -0.5578  0.2912
 2250TIP3    H228166   4.274   0.476  11.299 -0.8684  1.9846  0.0127
 2251TIP3   OH228167   3.701   5.082  13.396  0.4858 -0.3304 -0.1393
 2251TIP3    H128168   3.787   5.080  13.437  0.9574 -0.3263 -1.0871
 2251TIP3    H228169   3.714   5.136  13.318  0.0342 -1.6561 -1.1656
 2252TIP3   OH228170   6.081   5.279   5.769  0.3274  0.2282  0.1724
 2252TIP3    H128171   6.030   5.326   5.835 -1.0747  0.0169 -0.7115
 2252TIP3    H228172   6.067   5.329   5.688  0.9018 -0.2744 -0.2442
 2253TIP3   OH228173   2.764   0.104  14.279 -0.4775 -0.1253 -0.2384
 2253TIP3    H128174   2.684   0.063  14.245 -1.5995  0.8975  1.0597
 2253TIP3    H228175   2.789   0.166  14.211 -0.2062 -1.1119 -1.0787
 2254TIP3   OH228176   2.197   3.075  16.081 -0.4330 -0.6445 -0.6528
 2254TIP3    H128177   2.149   3.025  16.015 -2.4772  0.0380  0.2125
 2254TIP3    H228178   2.128   3.118  16.133  1.1324  0.1018  0.9245
 2255TIP3   OH228179   0.360   1.581  10.697  0.0001  0.5365 -0.3362
 2255TIP3    H128180   0.407   1.657  10.731  0.4509  0.0100  0.2585
 2255TIP3    H228181   0.427   1.528  10.654  0.1848 -0.7022  1.3683
 2256TIP3   OH228182   6.585   1.314  12.414  0.0523 -0.1759 -0.0331
 2256TIP3    H128183   6.611   1.225  12.390  2.3864 -0.7875  3.8775
 2256TIP3    H228184   6.490   1.312  12.417 -0.0180 -1.9932 -1.6923
 2257TIP3   OH228185   2.911   2.627  14.758  0.8429  0.0019  0.3370
 2257TIP3    H128186   2.966   2.663  14.827  0.3328 -0.4865  1.0065
 2257TIP3    H228187   2.874   2.705  14.715  1.1345  0.3094  0.6354
 2258TIP3   OH228188   6.314   3.799  16.047  0.1878 -0.9073  0.0058
 2258TIP3    H128189   6.287   3.741  16.118  1.3669 -1.2722  0.1737
 2258TIP3    H228190   6.245   3.790  15.981 -0.3031 -1.4883  0.5852
 2259TIP3   OH228191   0.449   2.304  13.013 -0.4820 -0.2108 -0.3109
 2259TIP3    H128192   0.496   2.223  13.033 -0.4836 -0.0029  0.5823
 2259TIP3    H228193   0.465   2.360  13.089 -1.1724  0.3143 -0.5437
 2260TIP3   OH228194   3.615   4.699  12.813 -0.3934 -0.0480 -0.2197
 2260TIP3    H128195   3.532   4.747  12.808  0.0114  0.6932  0.0001
 2260TIP3    H228196   3.612   4.653  12.896 -0.9831 -0.7926 -0.6390
 2261TIP3   OH228197   3.634   4.456  13.526 -0.0025  0.1363 -0.4463
 2261TIP3    H128198   3.699   4.512  13.569  2.0097 -1.7815 -0.7893
 2261TIP3    H228199   3.590   4.410  13.598  1.3564 -0.9416 -0.2503
 2262TIP3   OH228200   1.254   4.596   0.182 -0.1247  0.4758 -0.3084
 2262TIP3    H128201   1.278   4.687   0.164  0.0582  0.2811 -1.1099
 2262TIP3    H228202   1.308   4.572   0.258  0.8761  0.6193 -0.9469
 2263TIP3   OH228203   2.958   1.156  11.761 -0.0654 -0.1711  0.6093
 2263TIP3    H128204   2.995   1.074  11.794  1.3253 -0.4191 -1.4175
 2263TIP3    H228205   3.012   1.224  11.801 -0.7952 -0.2346  1.7598
 2264TIP3   OH228206   5.995   1.540   1.469 -0.3027 -0.1021  0.4706
 2264TIP3    H128207   6.043   1.489   1.535  0.4514  0.3278  0.2693
 2264TIP3    H228208   5.981   1.625   1.510 -1.1366 -0.3088  0.6242
 2265TIP3   OH228209   6.226   6.253   5.453  0.3876 -0.0002 -0.1312
 2265TIP3    H128210   6.309   6.259   5.501  0.9276 -1.7761 -0.7942
 2265TIP3    H228211   6.219   6.338   5.408  2.3629 -0.1871 -0.8790
 2266TIP3   OH228212   3.618   4.245   2.663 -0.6599 -0.3188 -0.2216
 2266TIP3    H128213   3.650   4.179   2.725 -0.3551 -0.1838 -0.2373
 2266TIP3    H228214   3.537   4.206   2.628  0.4356 -1.5133 -1.5774
 2267TIP3   OH228215   6.682   4.410   1.552  0.0508 -0.4452  0.4006
 2267TIP3    H128216   6.735   4.337   1.584  2.0284  0.6595 -0.1422
 2267TIP3    H228217   6.746   4.472   1.517 -1.1984  3.0125  3.5901
 2268TIP3   OH228218   4.012   4.265   5.605  0.2750  0.1431  0.1835
 2268TIP3    H128219   4.079   4.210   5.645 -0.3214 -0.3806  0.4888
 2268TIP3    H228220   3.954   4.288   5.678 -1.4138 -1.6682 -0.4870
 2269TIP3   OH228221   5.933   4.802   6.473 -0.2791 -0.5838 -0.2760
 2269TIP3    H128222   5.975   4.850   6.544 -0.7318  1.0115 -1.0332
 2269TIP3    H228223   5.956   4.710   6.488 -0.2005 -0.2592  1.7878
 2270TIP3   OH228224   1.565   2.539  16.244 -0.0075  0.0156  0.1170
 2270TIP3    H128225   1.561   2.588  16.162  0.9460  1.2457  0.7689
 2270TIP3    H228226   1.480   2.496  16.251 -0.8429  1.4873 -0.5570
 2271TIP3   OH228227   6.012   4.549   1.598 -0.0741  0.1758  0.0499
 2271TIP3    H128228   6.048   4.478   1.545  2.1040  2.8014 -2.3424
 2271TIP3    H228229   6.070   4.553   1.675  1.1811  0.6182 -0.8728
 2272TIP3   OH228230   5.784   3.019   1.738  0.1735  0.0750 -0.7253
 2272TIP3    H128231   5.841   2.946   1.717 -0.0885 -0.5398  0.5848
 2272TIP3    H228232   5.698   2.979   1.754 -0.2874  0.8183 -1.2520
 2273TIP3   OH228233   3.307   1.417  11.182 -0.1888  0.3385  0.6726
 2273TIP3    H128234   3.249   1.420  11.258 -1.4740  2.2264 -0.2988
 2273TIP3    H228235   3.342   1.505  11.175  0.7636 -0.0911 -0.3081
 2274TIP3   OH228236   1.829   5.131   2.573 -0.6754  0.3321  0.3727
 2274TIP3    H128237   1.781   5.212   2.591 -0.3012  0.2403  1.9419
 2274TIP3    H228238   1.894   5.126   2.643 -0.3656 -1.0778  0.0125
 2275TIP3   OH228239   0.178   0.604  16.385  0.3445 -0.0102  0.1496
 2275TIP3    H128240   0.245   0.671  16.375  0.4492  0.2065  1.8958
 2275TIP3    H228241   0.157   0.606  16.479  0.6208 -2.6463  0.3383
 2276TIP3   OH228242   5.216   6.101   5.667 -0.2909 -0.0257  0.1275
 2276TIP3    H128243   5.191   6.009   5.672  0.6657 -0.2651  0.9762
 2276TIP3    H228244   5.155   6.140   5.604 -1.3562 -1.0117  0.5177
 2277TIP3   OH228245   3.750   1.944  16.840  0.1386 -0.2753  0.0131
 2277TIP3    H128246   3.675   1.904  16.885  0.1657 -1.8741 -1.2860
 2277TIP3    H228247   3.761   2.029  16.884 -2.7244  0.2414 -0.0768
 2278TIP3   OH228248   5.752   3.824  16.452 -0.6815  0.3193 -0.0357
 2278TIP3    H128249   5.659   3.808  16.437 -1.0151  0.8956  1.2442
 2278TIP3    H228250   5.768   3.791  16.540  0.8430 -1.7308 -1.0038
 2279TIP3   OH228251   2.167   2.673   0.413 -0.1527 -0.2133  0.1451
 2279TIP3    H128252   2.098   2.732   0.382  0.0833 -0.0262 -0.0341
 2279TIP3    H228253   2.141   2.650   0.502 -2.1095 -2.6270 -0.9200
 2280TIP3   OH228254   5.599   6.263   4.171  0.4581  0.6551 -0.0587
 2280TIP3    H128255   5.527   6.300   4.120  1.5162  0.9850 -1.3716
 2280TIP3    H228256   5.615   6.177   4.132 -0.8269 -0.5401  1.8556
 2281TIP3   OH228257   2.607   0.139  12.313 -0.1978  0.2443  0.2212
 2281TIP3    H128258   2.669   0.212  12.305 -2.1684  1.9747 -0.3159
 2281TIP3    H228259   2.641   0.071  12.256  1.9803  0.4896  1.1191
 2282TIP3   OH228260   4.898   4.403   2.207 -0.7540  0.0338 -0.0693
 2282TIP3    H128261   4.893   4.498   2.194 -1.5123  0.1207  0.7415
 2282TIP3    H228262   4.869   4.365   2.124  0.3138  0.4969 -0.6670
 2283TIP3   OH228263   3.172   3.622  12.915  0.7238 -0.3414  0.3779
 2283TIP3    H128264   3.130   3.568  12.981  0.0478 -0.3024 -0.0128
 2283TIP3    H228265   3.265   3.601  12.923  0.6975 -0.0480  1.5887
 2284TIP3   OH228266   1.237   1.910   2.066  0.2806 -0.1412  0.0890
 2284TIP3    H128267   1.277   1.843   2.121  2.1720  0.8190 -0.0628
 2284TIP3    H228268   1.247   1.875   1.977  0.5592 -0.0108  0.0695
 2285TIP3   OH228269   5.777   6.009  16.431  0.4610 -0.4489  0.2344
 2285TIP3    H128270   5.755   5.942  16.496 -0.9024 -0.5916 -0.3255
 2285TIP3    H228271   5.733   6.088  16.461  0.1078 -0.4275 -0.3133
 2286TIP3   OH228272   0.798   0.857  16.304 -0.7918 -0.5006  0.2256
 2286TIP3    H128273   0.890   0.867  16.283 -0.7219 -2.2444 -0.4600
 2286TIP3    H228274   0.796   0.847  16.399 -0.2703 -0.5635  0.2307
 2287TIP3   OH228275   0.845   4.242  11.442  0.4520  0.2304  0.1479
 2287TIP3    H128276   0.825   4.183  11.515 -0.4043  0.7652  0.3460
 2287TIP3    H228277   0.788   4.317  11.454 -1.4436 -0.6682 -2.3585
 2288TIP3   OH228278   4.311   3.754  17.013  0.0309  0.0041 -0.1633
 2288TIP3    H128279   4.396   3.791  17.035  0.7630 -1.1670 -0.8670
 2288TIP3    H228280   4.260   3.827  16.979  0.0098  1.1532  2.1989
 2289TIP3   OH228281   3.631   6.762   4.163 -0.0430 -0.7076 -0.1979
 2289TIP3    H128282   3.621   6.855   4.186  0.0672 -0.6527 -0.3682
 2289TIP3    H228283   3.708   6.760   4.106  0.0415 -0.9249 -0.0749
 2290TIP3   OH228284   5.693   2.885   5.439  0.6765  0.2474  0.7117
 2290TIP3    H128285   5.733   2.809   5.480 -1.2005 -1.5922 -0.6456
 2290TIP3    H228286   5.765   2.930   5.395  1.8396 -0.6821  1.5962
 2291TIP3   OH228287   1.436   6.174   4.182 -0.0036 -0.5115  0.0054
 2291TIP3    H128288   1.521   6.214   4.162  0.6013 -0.2796  2.7045
 2291TIP3    H228289   1.372   6.240   4.156  0.7571  0.2541  0.0298
 2292TIP3   OH228290   2.258   1.247  16.839 -0.2398  0.2442  0.3224
 2292TIP3    H128291   2.267   1.292  16.755 -0.4163  2.5602  1.4662
 2292TIP3    H228292   2.318   1.173  16.833  1.7623  1.8720 -0.8754
 2293TIP3   OH228293   0.783   5.287  14.432 -0.1109 -0.0979 -1.0360
 2293TIP3    H128294   0.831   5.242  14.501  2.7328  2.3089 -1.2384
 2293TIP3    H228295   0.738   5.359  14.476 -2.1766 -1.2670 -1.1230
 2294TIP3   OH228296   4.418   6.776   3.531 -0.3709 -0.2078 -0.7572
 2294TIP3    H128297   4.463   6.860   3.543 -0.7023  0.1412 -1.8875
 2294TIP3    H228298   4.474   6.712   3.577 -0.3875  0.6958  0.5698
 2295TIP3   OH228299   1.976   4.877   3.052 -0.0873 -0.0427  0.3439
 2295TIP3    H128300   1.907   4.871   3.118  0.7838 -1.2606  1.1919
 2295TIP3    H228301   1.934   4.919   2.977 -1.4406  0.2366  1.2255
 2296TIP3   OH228302   2.179   4.427   0.560  0.2744  0.2322 -0.2484
 2296TIP3    H128303   2.105   4.436   0.621  0.4758 -0.7241  0.1646
 2296TIP3    H228304   2.251   4.394   0.615  1.0898  1.3597 -0.5965
 2297TIP3   OH228305   2.747   5.799   6.116 -0.1533  0.2783  0.0775
 2297TIP3    H128306   2.801   5.866   6.157 -1.2500  0.9769  0.4541
 2297TIP3    H228307   2.674   5.848   6.077 -1.7797 -0.7393  1.6254
 2298TIP3   OH228308   1.232   5.386   5.436  0.6751  0.7237 -0.0509
 2298TIP3    H128309   1.194   5.463   5.479  1.2238 -0.3150  2.4578
 2298TIP3    H228310   1.166   5.317   5.448  2.3468 -0.5706  2.6060
 2299TIP3   OH228311   3.073   5.933  16.201  0.0752  0.2652  0.2046
 2299TIP3    H128312   3.153   5.986  16.201  0.6099 -0.4749  2.0853
 2299TIP3    H228313   3.073   5.891  16.115  1.9394 -0.0188  0.2861
 2300TIP3   OH228314   6.400   0.441   6.391 -0.2971  0.1652 -0.3450
 2300TIP3    H128315   6.440   0.455   6.305 -1.2140  0.1780 -0.7831
 2300TIP3    H228316   6.317   0.398   6.371 -0.1638 -0.5464  0.5970
 2301TIP3   OH228317   5.779   3.859  13.213 -0.5187 -0.1291 -0.3413
 2301TIP3    H128318   5.805   3.951  13.216 -2.8425  0.5838 -0.1538
 2301TIP3    H228319   5.839   3.816  13.274 -0.7914  1.6853  1.3453
 2302TIP3   OH228320   1.686   3.473  14.744  0.0004  0.1706 -0.2335
 2302TIP3    H128321   1.731   3.408  14.799  1.1135  1.1824  0.1008
 2302TIP3    H228322   1.757   3.524  14.705 -0.8452  1.7858  0.2637
 2303TIP3   OH228323   1.788   0.667   0.391  0.2679  0.2198  0.2315
 2303TIP3    H128324   1.860   0.692   0.333 -0.1737  4.4096  1.1765
 2303TIP3    H228325   1.714   0.721   0.363 -0.7428  0.4284  2.9785
 2304TIP3   OH228326   3.695   4.673  14.874  0.1876 -0.4476 -0.0928
 2304TIP3    H128327   3.750   4.733  14.924  1.0370  0.5705 -2.1349
 2304TIP3    H228328   3.751   4.597  14.857 -0.5115 -1.3845  1.4843
 2305TIP3   OH228329   2.169   0.402   4.337 -0.3461  0.2775 -0.1869
 2305TIP3    H128330   2.224   0.327   4.312 -0.2486  0.4161 -0.3971
 2305TIP3    H228331   2.085   0.363   4.362  0.1591 -0.0148  1.0996
 2306TIP3   OH228332   5.742   3.049   2.721  0.0795  0.3237  0.5203
 2306TIP3    H128333   5.798   3.047   2.643 -0.7624  1.4387 -0.1493
 2306TIP3    H228334   5.730   2.957   2.744 -2.5139 -0.4014 -2.8658
 2307TIP3   OH228335   3.216   3.909   2.007 -0.1397  0.6155 -0.4385
 2307TIP3    H128336   3.135   3.958   1.989 -0.9195 -0.6686 -0.5393
 2307TIP3    H228337   3.284   3.957   1.960 -0.7513  1.9891  0.0246
 2308TIP3   OH228338   6.174   2.288   4.118 -0.3227  0.0240  0.1236
 2308TIP3    H128339   6.096   2.252   4.160  0.9195 -2.8398  0.1934
 2308TIP3    H228340   6.140   2.339   4.044 -2.2417 -1.4554 -0.0827
 2309TIP3   OH228341   3.868   2.914  16.310 -0.2105  0.4549  0.4178
 2309TIP3    H128342   3.818   2.967  16.248 -0.3652  1.1799  1.1612
 2309TIP3    H228343   3.934   2.973  16.346 -0.2755  0.1092  1.1242
 2310TIP3   OH228344   0.747   1.788  16.216 -0.1649 -0.1388  0.6019
 2310TIP3    H128345   0.684   1.846  16.259 -1.2864 -1.0903  0.2931
 2310TIP3    H228346   0.763   1.827  16.130 -1.4861 -0.6645  0.1046
 2311TIP3   OH228347   1.868   6.633  13.533 -0.1781 -1.1591 -0.0253
 2311TIP3    H128348   1.797   6.694  13.554 -0.3173 -1.5047  0.5313
 2311TIP3    H228349   1.935   6.650  13.599  0.3864 -0.6447 -0.7119
 2312TIP3   OH228350   1.348   3.823  12.534 -0.0209  0.0607 -0.4045
 2312TIP3    H128351   1.296   3.844  12.456 -1.1699  1.1596  0.6277
 2312TIP3    H228352   1.416   3.890  12.537  0.1384 -0.0915 -0.5453
 2313TIP3   OH228353   4.450   0.747   1.363  0.1979 -0.1232 -0.2049
 2313TIP3    H128354   4.489   0.680   1.419 -0.3601 -0.8190 -0.6352
 2313TIP3    H228355   4.519   0.813   1.354  0.3970 -0.1409  1.0466
 2314TIP3   OH228356   4.804   1.637   3.555 -0.0858  0.4837  0.3092
 2314TIP3    H128357   4.772   1.703   3.493 -1.0333 -1.3375 -1.2261
 2314TIP3    H228358   4.892   1.616   3.524  0.7190  1.8215  1.5282
 2315TIP3   OH228359   1.599   1.226   1.027 -0.1633 -0.0274 -0.0133
 2315TIP3    H128360   1.640   1.311   1.044  0.0768 -0.2199  0.3854
 2315TIP3    H228361   1.621   1.173   1.104 -0.8250 -0.2582  0.0211
 2316TIP3   OH228362   1.165   4.504   0.521 -0.2849 -0.0699  0.0141
 2316TIP3    H128363   1.142   4.438   0.586 -1.2128  0.3341  0.1213
 2316TIP3    H228364   1.096   4.498   0.455 -0.8358  1.3170  0.4328
 2317TIP3   OH228365   6.575   6.469   4.386  0.4835 -0.0855 -0.0020
 2317TIP3    H128366   6.503   6.490   4.446  0.5194  0.9637 -0.2979
 2317TIP3    H228367   6.644   6.434   4.442  1.5273  3.2599  1.0787
 2318TIP3   OH228368   2.252   4.121  14.451 -0.4408  0.4620  0.1454
 2318TIP3    H128369   2.189   4.151  14.386 -2.1975 -2.1418  0.5299
 2318TIP3    H228370   2.334   4.113  14.403 -0.7367  2.2654 -0.7578
 2319TIP3   OH228371   4.997   2.448  13.235 -0.0875  0.2083 -0.6839
 2319TIP3    H128372   5.055   2.376  13.260  0.3611  0.8532  0.1893
 2319TIP3    H228373   4.960   2.422  13.150 -2.0848 -2.3359  0.8162
 2320TIP3   OH228374   5.046   3.333   5.687 -0.0100 -0.1483  0.2204
 2320TIP3    H128375   4.991   3.411   5.676  1.3198  1.2384  2.6042
 2320TIP3    H228376   5.031   3.306   5.778  1.7332 -0.9136  0.3199
 2321TIP3   OH228377   1.842   4.021  11.742 -0.5412 -0.0095  0.1008
 2321TIP3    H128378   1.906   4.018  11.671 -0.4172  1.5745  0.0972
 2321TIP3    H228379   1.890   4.060  11.815 -0.7337 -1.3887  1.0130
 2322TIP3   OH228380   0.778   1.532  13.914 -0.2250  0.2581 -0.2093
 2322TIP3    H128381   0.834   1.574  13.979 -0.6884 -0.4524  0.6560
 2322TIP3    H228382   0.808   1.441  13.911 -1.5746 -0.2340  0.5643
 2323TIP3   OH228383   6.397   3.694  11.186 -0.4317 -0.0444  0.1019
 2323TIP3    H128384   6.398   3.786  11.214  0.8750 -0.5606  1.8890
 2323TIP3    H228385   6.461   3.690  11.115 -0.4299  0.4094  0.0733
 2324TIP3   OH228386   2.178   3.374  14.311 -0.2350  0.2034  0.1651
 2324TIP3    H128387   2.191   3.298  14.253 -0.0998 -0.0902  0.5798
 2324TIP3    H228388   2.091   3.407  14.286  0.6997  1.3843 -1.6906
 2325TIP3   OH228389   3.985   1.990  14.736 -0.4063  0.3804  0.0904
 2325TIP3    H128390   4.008   1.953  14.822 -3.0676 -1.9230 -0.0489
 2325TIP3    H228391   4.006   1.921  14.674 -1.8919  0.5978 -0.6820
 2326TIP3   OH228392   4.032   5.791   0.959 -0.4803 -0.2164  0.4799
 2326TIP3    H128393   4.046   5.831   1.044 -2.1978  2.1194 -0.2403
 2326TIP3    H228394   3.974   5.716   0.977  0.7994 -0.9850  1.5556
 2327TIP3   OH228395   3.225   2.530  14.494 -0.1163 -0.2314 -0.5491
 2327TIP3    H128396   3.183   2.615  14.482 -1.1786 -0.9675 -2.5362
 2327TIP3    H228397   3.210   2.509  14.586  0.1320  1.6830 -0.0200
 2328TIP3   OH228398   4.754   5.577   2.193  0.2562  0.2908  0.3607
 2328TIP3    H128399   4.838   5.583   2.237  2.0873 -2.2397 -2.3943
 2328TIP3    H228400   4.721   5.667   2.192  3.6008  1.6609  0.3291
 2329TIP3   OH228401   1.070   2.262   4.943 -0.1774  0.0547 -0.0061
 2329TIP3    H128402   0.984   2.237   4.975 -0.4339  1.4294  0.4318
 2329TIP3    H228403   1.079   2.215   4.860 -1.1489 -0.4630  0.1663
 2330TIP3   OH228404   0.649   4.599   2.447 -0.5229  0.2031 -0.7222
 2330TIP3    H128405   0.645   4.506   2.471  1.0045  0.0288 -1.0491
 2330TIP3    H228406   0.599   4.604   2.365 -0.7290 -0.2959 -0.6350
 2331TIP3   OH228407   4.262   3.406  12.173  0.0053 -0.5914 -0.1030
 2331TIP3    H128408   4.320   3.473  12.136  1.0847 -0.3196  1.9248
 2331TIP3    H228409   4.179   3.451  12.187  0.0850 -0.2624 -0.6547
 2332TIP3   OH228410   6.116   3.643  14.329 -0.0580  0.3809  0.0116
 2332TIP3    H128411   6.146   3.581  14.396 -1.2412  2.4005  2.6029
 2332TIP3    H228412   6.102   3.589  14.251  0.9463 -2.2156  1.4977
 2333TIP3   OH228413   6.512   0.942  11.627 -0.2404  0.1054  0.0425
 2333TIP3    H128414   6.455   0.932  11.550 -1.2340  1.2950  0.5913
 2333TIP3    H228415   6.499   1.033  11.654  0.7013 -0.0776  1.1548
 2334TIP3   OH228416   0.556   5.621   5.122  0.7255  0.0444 -0.3288
 2334TIP3    H128417   0.586   5.544   5.171  0.3840  1.1923  1.8490
 2334TIP3    H228418   0.590   5.696   5.172 -0.7300  1.3236 -1.1380
 2335TIP3   OH228419   2.958   2.256   2.123 -0.3246  0.1815 -0.7932
 2335TIP3    H128420   2.942   2.175   2.172  0.6320  1.2773  1.5257
 2335TIP3    H228421   3.047   2.282   2.149 -0.5428  1.8735 -1.5827
 2336TIP3   OH228422   3.379   0.295   2.218 -0.0289 -0.0782  0.0318
 2336TIP3    H128423   3.334   0.361   2.165  0.1920  0.6299  0.7144
 2336TIP3    H228424   3.309   0.253   2.268 -0.0294  0.5055  0.5297
 2337TIP3   OH228425   6.206   4.155  15.906  0.4626  0.5900  0.4915
 2337TIP3    H128426   6.134   4.195  15.955  0.2301  2.2316 -1.0707
 2337TIP3    H228427   6.269   4.129  15.973  0.2786  2.9513  1.6770
 2338TIP3   OH228428   4.400   5.884  11.281  0.0013  0.1148 -0.0044
 2338TIP3    H128429   4.475   5.825  11.272 -1.8919 -2.6868  1.1302
 2338TIP3    H228430   4.366   5.894  11.192  0.8290  0.1434 -0.3188
 2339TIP3   OH228431   3.751   5.978   2.115 -0.3121 -0.1720  0.7053
 2339TIP3    H128432   3.812   5.982   2.041 -0.7225  1.8762  0.4240
 2339TIP3    H228433   3.672   5.939   2.078  0.5561 -2.2882  0.9294
 2340TIP3   OH228434   1.067   4.036  17.134  0.6861 -0.3640 -0.3895
 2340TIP3    H128435   1.071   3.963  17.073 -2.2438  0.7801 -2.1662
 2340TIP3    H228436   0.993   4.015  17.192 -0.1908  1.0967 -0.9144
 2341TIP3   OH228437   6.674   0.632   3.836  0.6397 -0.4591  0.4189
 2341TIP3    H128438   6.681   0.544   3.874  1.5834 -0.1356  1.0233
 2341TIP3    H228439   6.691   0.619   3.743 -3.5974 -1.5647 -0.4172
 2342TIP3   OH228440   5.492   1.297   1.776 -0.0204  0.0407  0.1272
 2342TIP3    H128441   5.491   1.353   1.698 -0.4768  0.9519  0.7608
 2342TIP3    H228442   5.583   1.269   1.785  0.5528  1.9358  0.6335
 2343TIP3   OH228443   1.646   2.222  14.214 -0.1543  0.1705  0.3744
 2343TIP3    H128444   1.562   2.176  14.221 -0.3707  0.5330  0.2151
 2343TIP3    H228445   1.651   2.274  14.294  0.1421 -0.2194  0.6065
 2344TIP3   OH228446   6.387   4.292  15.559 -0.4167  0.0748 -0.9433
 2344TIP3    H128447   6.451   4.358  15.533  1.5388 -0.6293  1.6572
 2344TIP3    H228448   6.323   4.339  15.611  0.2532  0.1722 -0.1877
 2345TIP3   OH228449   1.246   2.667   0.270  0.0822  0.1687  0.0208
 2345TIP3    H128450   1.295   2.587   0.252  0.7960  0.9250 -1.6472
 2345TIP3    H228451   1.166   2.658   0.218  0.1675  0.5381 -0.1744
 2346TIP3   OH228452   2.957   6.674   1.075 -0.5837 -0.4288  0.2006
 2346TIP3    H128453   2.906   6.749   1.106 -2.0732 -1.2360 -0.2080
 2346TIP3    H228454   3.003   6.708   0.998  0.3325  0.5864  1.1588
 2347TIP3   OH228455   5.259   1.698  13.520 -0.8426 -0.0053  0.2173
 2347TIP3    H128456   5.281   1.689  13.428  1.4763  2.3660  0.4085
 2347TIP3    H228457   5.266   1.609  13.555  1.4021 -0.5065 -1.3039
 2348TIP3   OH228458   2.882   1.062  12.947 -0.2356  0.5554 -0.2476
 2348TIP3    H128459   2.978   1.065  12.942 -0.1056 -0.5650  1.1116
 2348TIP3    H228460   2.863   1.031  13.035 -1.8109 -0.9445 -1.0454
 2349TIP3   OH228461   2.123   4.037  16.972 -0.6796 -0.4001  0.0290
 2349TIP3    H128462   2.167   4.029  17.056 -0.9023  0.0940  0.1969
 2349TIP3    H228463   2.087   4.126  16.972 -1.1572 -0.5891 -0.3546
 2350TIP3   OH228464   3.042   3.859   1.116  0.5790 -0.3601  0.6360
 2350TIP3    H128465   3.005   3.842   1.029 -0.1951  0.9390  0.6849
 2350TIP3    H228466   3.101   3.785   1.131  1.3228 -0.2277 -1.3014
 2351TIP3   OH228467   1.001   0.539   0.876  0.1916  0.0521 -0.1296
 2351TIP3    H128468   1.081   0.516   0.829  0.7682  1.0774  0.3060
 2351TIP3    H228469   0.967   0.615   0.828 -0.0087  0.2016  0.2506
 2352TIP3   OH228470   5.323   3.988  12.537 -0.2634  0.7052  0.2366
 2352TIP3    H128471   5.379   4.066  12.532 -1.1891  1.3030 -1.8233
 2352TIP3    H228472   5.375   3.919  12.495 -0.3336  0.7707  0.0443
 2353TIP3   OH228473   0.067   3.745   1.777 -0.3338  0.0389 -0.0166
 2353TIP3    H128474   0.143   3.799   1.800 -1.5630  1.8897 -0.0422
 2353TIP3    H228475   0.025   3.793   1.705 -3.0806  0.6549  1.8563
 2354TIP3   OH228476   2.432   1.108   5.214  0.1902 -0.2331  0.3297
 2354TIP3    H128477   2.416   1.020   5.249 -0.2357 -0.0495  0.6115
 2354TIP3    H228478   2.516   1.101   5.169 -1.0052 -1.5042 -1.9686
 2355TIP3   OH228479   0.551   2.346  11.707  0.9727 -0.0647 -0.0679
 2355TIP3    H128480   0.519   2.363  11.796  1.7734  0.7260  0.0823
 2355TIP3    H228481   0.563   2.432  11.668  1.3775 -0.3815 -0.6698
 2356TIP3   OH228482   4.870   0.276  16.237 -0.7854  0.0814 -0.9349
 2356TIP3    H128483   4.842   0.366  16.257 -1.7135 -0.3106 -0.4133
 2356TIP3    H228484   4.966   0.282  16.231 -0.6669  0.7984  0.8272
 2357TIP3   OH228485   6.545   6.102   0.767 -0.1013  0.0459  0.3777
 2357TIP3    H128486   6.579   6.181   0.725 -2.9576 -0.1930 -2.8248
 2357TIP3    H228487   6.585   6.030   0.718 -0.8498 -0.3507  0.3370
 2358TIP3   OH228488   2.810   2.784   1.888 -0.6230 -0.1572  0.1627
 2358TIP3    H128489   2.730   2.827   1.918 -0.6994 -1.0731  1.3181
 2358TIP3    H228490   2.871   2.794   1.961 -0.0874 -0.5687 -0.2194
 2359TIP3   OH228491   0.445   5.252   4.704  0.3640  0.0151  0.2550
 2359TIP3    H128492   0.391   5.201   4.765 -0.4544  0.7383  0.1517
 2359TIP3    H228493   0.513   5.291   4.759 -0.3731  0.6745  0.7241
 2360TIP3   OH228494   2.926   5.579  12.511 -0.0087  0.7265  0.2439
 2360TIP3    H128495   2.979   5.535  12.444  1.1904  1.9355  0.3607
 2360TIP3    H228496   2.836   5.564  12.484  0.4215 -0.1712 -0.7587
 2361TIP3   OH228497   2.511   5.523   1.691  0.3179  0.0084 -0.0412
 2361TIP3    H128498   2.550   5.502   1.776  0.5484  0.5116 -0.0215
 2361TIP3    H228499   2.418   5.504   1.702  0.3888 -0.1736  0.2446
 2362TIP3   OH228500   5.885   5.465   5.542 -0.0983 -0.6614  0.0207
 2362TIP3    H128501   5.955   5.402   5.526  0.3366  0.0473 -0.9710
 2362TIP3    H228502   5.868   5.505   5.456 -0.3568  0.5707  0.6179
 2363TIP3   OH228503   4.208   2.585   1.991  0.3737 -0.5081 -0.3722
 2363TIP3    H128504   4.210   2.665   1.939  1.0972 -0.4425 -0.2589
 2363TIP3    H228505   4.225   2.614   2.081 -0.6330 -0.6451 -0.1210
 2364TIP3   OH228506   1.294   5.347   0.590  0.5735  0.7483 -0.3604
 2364TIP3    H128507   1.298   5.438   0.619  1.2732  0.5602  0.1764
 2364TIP3    H228508   1.278   5.298   0.670 -0.8428  0.4737 -0.7975
 2365TIP3   OH228509   5.215   1.790   5.117  0.4250  0.0186  0.0825
 2365TIP3    H128510   5.245   1.841   5.042 -0.5391  0.6163  0.0882
 2365TIP3    H228511   5.124   1.767   5.095 -0.0318  0.6295  1.2812
 2366TIP3   OH228512   2.590   4.033  11.198 -0.5700  0.1593 -0.2192
 2366TIP3    H128513   2.547   4.040  11.113 -1.6475 -1.9339  0.0997
 2366TIP3    H228514   2.620   3.942  11.204  3.6212  1.3130 -0.2038
 2367TIP3   OH228515   5.803   5.564  16.981 -0.2083  0.3156 -0.5758
 2367TIP3    H128516   5.890   5.553  17.020 -1.3813  1.1796  2.5544
 2367TIP3    H228517   5.752   5.490  17.014 -1.9457  2.4291  1.8685
 2368TIP3   OH228518   1.767   3.568  12.638  0.4811 -0.1441 -0.1780
 2368TIP3    H128519   1.797   3.487  12.596  0.0787  0.2775 -1.3280
 2368TIP3    H228520   1.674   3.573  12.615  0.8857  1.5231 -1.6408
 2369TIP3   OH228521   0.526   2.437  11.105  0.1279  0.3407 -0.1903
 2369TIP3    H128522   0.494   2.491  11.177  0.6982  0.6283 -0.1404
 2369TIP3    H228523   0.448   2.405  11.061 -0.2354 -0.1498  0.7854
 2370TIP3   OH228524   2.793   4.294   5.313  0.6000 -0.0603  0.1699
 2370TIP3    H128525   2.753   4.224   5.262 -2.0538  1.3678  0.1249
 2370TIP3    H228526   2.758   4.375   5.275  1.1812  1.1710  2.0962
 2371TIP3   OH228527   0.227   3.428  14.218  0.1002 -0.6426  0.2351
 2371TIP3    H128528   0.204   3.519  14.240 -0.0904 -0.2007 -1.6232
 2371TIP3    H228529   0.298   3.407  14.277 -0.5460  0.3554  1.4227
 2372TIP3   OH228530   5.638   3.718  12.724 -0.4103  0.2605  0.1510
 2372TIP3    H128531   5.615   3.764  12.804 -1.3044  2.2628 -1.1595
 2372TIP3    H228532   5.706   3.773  12.684 -0.0781 -0.6222 -0.5415
 2373TIP3   OH228533   2.066   3.144  13.552 -0.4304  0.1182 -0.0262
 2373TIP3    H128534   2.085   3.132  13.459 -0.0197  0.4737  0.0041
 2373TIP3    H228535   2.042   3.237  13.559  0.5829  0.3605  0.3823
 2374TIP3   OH228536   2.973   6.330   4.995  0.0915 -0.9399  0.2486
 2374TIP3    H128537   2.986   6.357   5.086  1.3310 -1.3913  0.2255
 2374TIP3    H228538   2.887   6.290   4.994 -0.2180 -0.3279  1.0815
 2375TIP3   OH228539   2.627   6.283   1.230 -0.2162  0.5147 -0.2006
 2375TIP3    H128540   2.677   6.364   1.213  0.0230  0.7109  1.2957
 2375TIP3    H228541   2.563   6.308   1.296 -0.9948 -0.2266 -0.6651
 2376TIP3   OH228542   5.057   0.605   4.379 -0.7121  0.0667 -0.0448
 2376TIP3    H128543   5.087   0.524   4.338  0.7214  0.5037  0.0752
 2376TIP3    H228544   5.046   0.583   4.472  0.7522  0.2478  0.1980
 2377TIP3   OH228545   1.979   3.909  12.073  0.0894  0.8454 -0.1433
 2377TIP3    H128546   1.896   3.883  12.111  0.3980  2.1813  1.6156
 2377TIP3    H228547   1.963   3.997  12.038  0.2324  0.2635 -1.7262
 2378TIP3   OH228548   0.750   5.503   0.526  0.5362  0.2306  0.2020
 2378TIP3    H128549   0.776   5.461   0.608  3.1422  1.8774  0.3560
 2378TIP3    H228550   0.659   5.530   0.540  0.8005  0.1177  2.4161
 2379TIP3   OH228551   3.205   1.086   4.970  0.3556  0.7329  0.2691
 2379TIP3    H128552   3.287   1.070   4.924 -0.1397 -1.8320  0.1117
 2379TIP3    H228553   3.138   1.080   4.902 -0.0662  1.5537  0.5996
 2380TIP3   OH228554   0.659   3.412  11.250 -0.2217 -0.4145 -0.2872
 2380TIP3    H128555   0.685   3.322  11.229 -0.3492 -0.1670 -1.6332
 2380TIP3    H228556   0.635   3.410  11.342  0.7598 -1.5352 -0.0339
 2381TIP3   OH228557   2.601   2.678   0.375 -0.7953 -0.3338  0.8248
 2381TIP3    H128558   2.555   2.683   0.458 -2.3483 -1.2033  0.0620
 2381TIP3    H228559   2.557   2.608   0.327  0.5513 -0.3727 -0.4386
 2382TIP3   OH228560   0.419   2.625  14.769  0.4634 -0.0737  0.4914
 2382TIP3    H128561   0.369   2.659  14.844  1.5535  1.0384  0.7408
 2382TIP3    H228562   0.406   2.530  14.773 -0.7126  0.0952  1.1952
 2383TIP3   OH228563   6.440   5.441  15.055  0.0361  0.2082 -0.6467
 2383TIP3    H128564   6.357   5.483  15.078 -1.3501 -1.9580 -1.3529
 2383TIP3    H228565   6.491   5.444  15.136 -0.3882  2.2611 -0.4079
 2384TIP3   OH228566   5.542   3.080   4.260  0.6377  0.1364 -0.0899
 2384TIP3    H128567   5.577   3.036   4.337  0.5148 -1.1592 -0.7506
 2384TIP3    H228568   5.500   3.010   4.209 -3.2004  1.5696  0.7714
 2385TIP3   OH228569   0.922   2.881   0.334 -0.4198  0.1781 -0.6439
 2385TIP3    H128570   0.853   2.829   0.374 -0.5062 -1.0655 -2.3221
 2385TIP3    H228571   0.979   2.905   0.408 -1.1485 -1.0938  0.3760
 2386TIP3   OH228572   0.677   0.878  13.931 -0.5430 -0.3346  0.2611
 2386TIP3    H128573   0.598   0.873  13.878 -1.1166 -0.0317  1.0673
 2386TIP3    H228574   0.680   0.968  13.962 -0.5773 -0.6584  1.2582
 2387TIP3   OH228575   4.614   0.156  13.079  0.2583 -0.1678 -0.0104
 2387TIP3    H128576   4.710   0.159  13.070  0.2461  1.6878  0.0273
 2387TIP3    H228577   4.586   0.089  13.016  1.5936 -0.9254  0.1666
 2388TIP3   OH228578   1.675   4.334  16.880 -0.0203  0.3012 -0.0225
 2388TIP3    H128579   1.677   4.251  16.833  2.5169  0.4813 -0.3847
 2388TIP3    H228580   1.709   4.314  16.967 -0.9966  0.6736  0.4564
 2389TIP3   OH228581   4.666   0.112  11.674  0.1783  0.2343 -0.1437
 2389TIP3    H128582   4.746   0.058  11.673 -0.8067 -1.4183  1.8639
 2389TIP3    H228583   4.638   0.111  11.766 -2.4745  0.2227 -0.8640
 2390TIP3   OH228584   0.514   3.554  13.078 -0.0783  0.0725  0.5585
 2390TIP3    H128585   0.446   3.487  13.072 -0.7066  0.5879  1.6364
 2390TIP3    H228586   0.577   3.530  13.010 -1.1865 -0.5785 -0.2864
 2391TIP3   OH228587   2.471   2.858  10.312 -0.2106 -0.3348 -0.3996
 2391TIP3    H128588   2.405   2.789  10.312  1.0400 -1.6500  2.2087
 2391TIP3    H228589   2.540   2.825  10.254 -0.1133 -0.7765 -0.0374
 2392TIP3   OH228590   4.623   3.505   1.350 -0.3636 -0.0654 -0.9359
 2392TIP3    H128591   4.560   3.577   1.360  0.2469  0.3799 -0.1012
 2392TIP3    H228592   4.635   3.496   1.255 -1.4314  0.0551 -1.0877
 2393TIP3   OH228593   5.400   5.670  13.244 -0.0325  0.1584 -0.0606
 2393TIP3    H128594   5.402   5.649  13.337  1.3841  2.7583  0.5862
 2393TIP3    H228595   5.401   5.766  13.241  0.8446  0.1460 -2.7493
 2394TIP3   OH228596   0.907   4.817  15.618 -0.5711 -0.1742 -0.3104
 2394TIP3    H128597   0.816   4.844  15.630 -1.0531 -1.7954 -0.0541
 2394TIP3    H228598   0.903   4.722  15.610  1.1965 -0.3707  0.6211
 2395TIP3   OH228599   2.536   1.224  11.423  0.2223  0.4256  1.0891
 2395TIP3    H128600   2.545   1.287  11.494 -1.6209  0.5532  1.2498
 2395TIP3    H228601   2.506   1.276  11.348  0.7014  0.0617  0.6419
 2396TIP3   OH228602   4.684   4.572   4.229 -0.2316 -0.9467 -0.4221
 2396TIP3    H128603   4.649   4.647   4.277  0.5671 -1.2381  0.6522
 2396TIP3    H228604   4.608   4.516   4.213 -0.5938 -0.5926  0.0381
 2397TIP3   OH228605   5.148   6.508  14.076  0.6040 -0.5207 -0.0837
 2397TIP3    H128606   5.130   6.590  14.124  3.1519  0.2085 -0.2231
 2397TIP3    H228607   5.149   6.534  13.984  0.2891 -0.9560 -0.2104
 2398TIP3   OH228608   3.174   5.024   3.321  0.2687 -0.9892  0.5956
 2398TIP3    H128609   3.230   4.954   3.288 -0.5865 -1.4525  0.0844
 2398TIP3    H228610   3.092   4.981   3.344 -0.2026 -0.1933  0.4654
 2399TIP3   OH228611   5.356   0.765   6.458  0.2996  0.6985  0.0975
 2399TIP3    H128612   5.429   0.726   6.505  1.1398  1.3834 -0.6066
 2399TIP3    H228613   5.296   0.795   6.527  0.2312 -0.6730  0.6602
 2400TIP3   OH228614   3.324   4.261  14.746 -0.0876 -0.2127  0.3735
 2400TIP3    H128615   3.284   4.257  14.833 -0.2302 -0.9918  0.2776
 2400TIP3    H228616   3.273   4.327  14.699  0.7204  1.0677  1.2369
 2401TIP3   OH228617   5.726   4.650   5.577  0.6841  0.2433 -0.5068
 2401TIP3    H128618   5.667   4.680   5.508  0.7066  2.1149  0.2088
 2401TIP3    H228619   5.670   4.637   5.654  0.9474  0.2882 -0.3038
 2402TIP3   OH228620   3.127   6.287   3.887  0.0365  0.1103  0.3265
 2402TIP3    H128621   3.122   6.355   3.954 -1.1529  1.3948 -1.0101
 2402TIP3    H228622   3.165   6.212   3.933 -1.1431  0.7762  2.5508
 2403TIP3   OH228623   4.012   3.071   4.299  0.0972 -0.5872  0.1388
 2403TIP3    H128624   4.042   3.134   4.365 -1.6228  1.4013 -0.8285
 2403TIP3    H228625   4.040   3.109   4.216 -1.7072 -0.6221 -0.5285
 2404TIP3   OH228626   5.101   5.951   3.991 -0.4228 -1.1205 -0.0467
 2404TIP3    H128627   5.151   6.020   4.034 -1.0867 -1.4703  1.3382
 2404TIP3    H228628   5.167   5.899   3.946  0.0246  0.9045 -1.9340
 2405TIP3   OH228629   5.020   3.780   5.884 -0.2061  0.0822  0.1649
 2405TIP3    H128630   5.007   3.692   5.921  0.2328 -0.0534  0.0038
 2405TIP3    H228631   5.007   3.839   5.958 -2.0808 -0.0057 -0.0405
 2406TIP3   OH228632   4.795   5.492  15.599 -0.7385  0.0162  0.0630
 2406TIP3    H128633   4.729   5.549  15.559 -1.3561 -0.3754  0.5260
 2406TIP3    H228634   4.767   5.481  15.689 -0.6179 -1.0206 -0.0169
 2407TIP3   OH228635   4.625   4.145   2.220  0.4773  0.3609  0.6495
 2407TIP3    H128636   4.719   4.145   2.238  0.2459  0.1926  1.9757
 2407TIP3    H228637   4.619   4.164   2.127  1.7658  2.2787  0.8773
 2408TIP3   OH228638   5.938   6.341   0.881 -0.4536 -0.2083 -0.3079
 2408TIP3    H128639   6.016   6.345   0.826 -0.8985  0.2014 -0.9294
 2408TIP3    H228640   5.890   6.265   0.849 -0.6066 -0.1001 -0.3354
 2409TIP3   OH228641   2.914   4.216   1.621 -0.5020  0.2366 -0.3561
 2409TIP3    H128642   2.857   4.252   1.689 -3.0452 -0.3945 -2.0247
 2409TIP3    H228643   2.950   4.136   1.660  0.0849  1.1579  1.0744
 2410TIP3   OH228644   6.377   3.439  12.300  0.0237  0.1596  0.2585
 2410TIP3    H128645   6.288   3.423  12.333  0.2852 -0.2633  0.7686
 2410TIP3    H228646   6.364   3.501  12.227 -0.6774  0.1710  0.3798
 2411TIP3   OH228647   0.846   3.421   2.069 -0.4049  0.3124 -0.2833
 2411TIP3    H128648   0.878   3.505   2.035 -1.2425  0.2470 -1.2775
 2411TIP3    H228649   0.760   3.411   2.029  0.0933 -1.5024 -0.9893
 2412TIP3   OH228650   3.353   5.343  14.525 -0.6416  0.0735  1.2638
 2412TIP3    H128651   3.354   5.340  14.620  1.5102  3.0149  1.4719
 2412TIP3    H228652   3.343   5.436  14.504 -2.3545 -0.6214 -1.4337
 2413TIP3   OH228653   0.228   2.378   4.439 -0.2061 -0.1927  0.1849
 2413TIP3    H128654   0.220   2.286   4.466 -1.1390 -0.0934  0.2926
 2413TIP3    H228655   0.309   2.381   4.389 -0.7180 -1.3255 -0.7752
 2414TIP3   OH228656   4.643   0.508   0.160 -0.1006  0.1723  0.1597
 2414TIP3    H128657   4.578   0.445   0.192  0.4517 -0.3195  0.3384
 2414TIP3    H228658   4.645   0.577   0.226 -1.7770  1.1518 -0.7558
 2415TIP3   OH228659   1.986   6.272   5.650  0.3842 -0.0876  0.4386
 2415TIP3    H128660   2.054   6.334   5.677  0.0811 -0.3548  1.8982
 2415TIP3    H228661   2.019   6.234   5.568  1.9551 -0.1810  1.0852
 2416TIP3   OH228662   1.586   1.351   2.102  0.3638 -0.1173 -0.0368
 2416TIP3    H128663   1.627   1.265   2.115  1.5197  0.6309  1.6657
 2416TIP3    H228664   1.493   1.335   2.113  0.6546 -0.9845  1.6469
 2417TIP3   OH228665   3.865   6.573   5.914 -0.1361 -0.2029  0.4460
 2417TIP3    H128666   3.862   6.543   5.824  2.6635 -0.5229  0.3600
 2417TIP3    H228667   3.918   6.508   5.959 -0.6119  0.4921  2.0971
 2418TIP3   OH228668   0.045   0.071   3.480 -0.1632 -0.8155 -0.5549
 2418TIP3    H128669   0.133   0.092   3.447  0.6745 -1.3406  1.2567
 2418TIP3    H228670   0.029   0.135   3.549 -1.1593 -0.8126 -0.7723
 2419TIP3   OH228671   5.320   0.837   1.100 -0.3927  0.8955 -0.0675
 2419TIP3    H128672   5.270   0.837   1.182 -0.1460  1.1113  0.0868
 2419TIP3    H228673   5.406   0.804   1.125 -0.6172  0.0069 -0.4338
 2420TIP3   OH228674   2.877   3.003  11.830 -0.0201 -1.0389  0.0470
 2420TIP3    H128675   2.832   3.028  11.911 -0.1341 -1.3212  0.0728
 2420TIP3    H228676   2.969   2.991  11.856  0.0898 -0.3669 -0.0253
 2421TIP3   OH228677   3.902   2.580   0.573 -0.5598  0.7787  0.0526
 2421TIP3    H128678   3.931   2.501   0.527  1.3696  0.0826  2.2875
 2421TIP3    H228679   3.827   2.551   0.625 -1.2281  0.9940 -0.7620
 2422TIP3   OH228680   6.509   6.109   0.276  0.0016  0.3082 -0.4109
 2422TIP3    H128681   6.542   6.035   0.326 -1.1224 -0.2878 -0.5479
 2422TIP3    H228682   6.567   6.114   0.199  0.2019 -0.2851 -0.2981
 2423TIP3   OH228683   0.897   2.792  16.964 -0.0811 -0.2278 -0.4140
 2423TIP3    H128684   0.850   2.762  17.041 -1.4669 -0.0761 -1.1597
 2423TIP3    H228685   0.838   2.774  16.891  1.4836 -1.0545 -1.5548
 2424TIP3   OH228686   6.000   0.061  15.140 -0.2246  0.7446  1.0279
 2424TIP3    H128687   6.001   0.157  15.140  0.6288  0.7523  0.2825
 2424TIP3    H228688   5.984   0.037  15.049 -0.5584  0.1719  1.2298
 2425TIP3   OH228689   2.851   5.277   4.900  0.3523  0.4097 -0.4543
 2425TIP3    H128690   2.854   5.182   4.890 -0.6217  0.3250 -0.0849
 2425TIP3    H228691   2.869   5.312   4.813  1.3631 -0.0931 -0.4572
 2426TIP3   OH228692   4.291   3.912  13.225 -0.3362 -0.4099 -0.1726
 2426TIP3    H128693   4.377   3.952  13.217 -0.1250 -0.6440  0.7433
 2426TIP3    H228694   4.279   3.901  13.320 -0.1974 -2.8709 -0.3660
 2427TIP3   OH228695   2.302   3.103  14.515  0.1145  0.3001 -0.6994
 2427TIP3    H128696   2.394   3.079  14.526 -0.1423 -0.1502  0.7292
 2427TIP3    H228697   2.286   3.096  14.421  1.4214 -0.0449 -0.9160
 2428TIP3   OH228698   4.152   6.759  12.911  0.2909 -0.0178  0.1535
 2428TIP3    H128699   4.231   6.713  12.884  1.3237  1.3880  0.6224
 2428TIP3    H228700   4.152   6.839  12.858 -0.9130 -0.0813  0.0402
 2429TIP3   OH228701   4.749   1.500   2.222 -0.6530  0.0759  0.5493
 2429TIP3    H128702   4.692   1.423   2.223  0.2675 -0.6726 -1.1078
 2429TIP3    H228703   4.700   1.566   2.173 -1.6449  0.7895  2.3684
 2430TIP3   OH228704   1.014   2.282   0.773 -0.3497 -0.0847  0.1270
 2430TIP3    H128705   0.972   2.196   0.771  0.9235 -0.8226  1.8386
 2430TIP3    H228706   1.079   2.278   0.703  0.2727 -0.8738  0.7247
 2431TIP3   OH228707   4.963   0.431  13.235 -0.2234  0.1987  0.0175
 2431TIP3    H128708   4.879   0.402  13.269 -0.3796  0.5811 -0.0343
 2431TIP3    H228709   5.026   0.365  13.265 -0.4626  0.1725  0.4718
 2432TIP3   OH228710   5.658   4.687  13.689 -0.0987  0.0835  0.1409
 2432TIP3    H128711   5.641   4.750  13.758  0.8718  0.4136  0.1021
 2432TIP3    H228712   5.580   4.632  13.685 -0.5657  0.6973  0.8092
 2433TIP3   OH228713   4.999   4.869   0.001 -0.0245  0.0939 -0.0738
 2433TIP3    H128714   4.939   4.834  -0.065 -1.4874 -0.1522  1.3369
 2433TIP3    H228715   4.966   4.957   0.020  0.8084  0.4382 -0.1525
 2434TIP3   OH228716   2.373   1.271  11.762 -0.0963  0.0513  0.6624
 2434TIP3    H128717   2.333   1.293  11.678 -1.1143  0.4342  1.2329
 2434TIP3    H228718   2.405   1.355  11.796 -0.2740  0.0010  0.9543
 2435TIP3   OH228719   2.363   4.855   0.353  0.2057  0.2736  0.9746
 2435TIP3    H128720   2.288   4.900   0.316  0.9229 -0.3286 -1.3852
 2435TIP3    H228721   2.327   4.802   0.424 -1.3063  1.3118  1.0182
 2436TIP3   OH228722   4.573   6.739  12.920  0.4003  0.0515  0.3348
 2436TIP3    H128723   4.490   6.706  12.884 -0.5294  2.3901  0.1829
 2436TIP3    H228724   4.613   6.662  12.959 -1.4133 -1.3541 -0.3939
 2437TIP3   OH228725   2.112   5.131  13.414 -0.5588 -0.2690 -0.4461
 2437TIP3    H128726   2.177   5.193  13.381  0.2080 -0.9533 -0.2427
 2437TIP3    H228727   2.153   5.090  13.490 -1.0275 -1.0662 -0.6104
 2438TIP3   OH228728   5.048   3.084   1.373 -0.6540  0.3028  0.3939
 2438TIP3    H128729   5.102   3.125   1.441 -0.0277 -0.9574  0.6981
 2438TIP3    H228730   5.049   3.147   1.301 -2.2257  2.1615  1.8937
 2439TIP3   OH228731   3.877   5.229  12.107  0.2498  0.6216  0.2035
 2439TIP3    H128732   3.959   5.210  12.154 -1.1323  0.2649  2.6375
 2439TIP3    H228733   3.808   5.215  12.172 -1.7054  1.9191 -1.4550
 2440TIP3   OH228734   0.259   0.761   0.709  0.1800 -0.4310  0.0059
 2440TIP3    H128735   0.243   0.855   0.700  0.3069 -0.4058  0.0438
 2440TIP3    H228736   0.239   0.725   0.623 -0.3904 -0.4429  0.1425
 2441TIP3   OH228737   2.296   1.721  11.744 -0.0789 -0.3301 -0.2857
 2441TIP3    H128738   2.284   1.784  11.816 -0.3137 -0.3326 -0.3229
 2441TIP3    H228739   2.356   1.765  11.684 -0.7382  0.1235 -0.6234
 2442TIP3   OH228740   2.465   2.433  14.418 -0.5376 -0.0659  0.0255
 2442TIP3    H128741   2.517   2.354  14.405  0.5949  0.7582 -0.7302
 2442TIP3    H228742   2.529   2.499  14.446 -0.6847  1.5352 -2.8959
 2443TIP3   OH228743   4.338   2.012   6.345 -0.4230 -0.0474  0.2557
 2443TIP3    H128744   4.285   1.941   6.306  0.0525 -0.4379  0.3128
 2443TIP3    H228745   4.412   2.022   6.285  0.3472 -0.6912  1.0656
 2444TIP3   OH228746   5.255   2.644   1.920  0.2250  0.7964 -0.2786
 2444TIP3    H128747   5.180   2.599   1.958  0.1205  1.0211 -0.2192
 2444TIP3    H228748   5.324   2.635   1.985  1.3438 -2.3684 -1.6883
 2445TIP3   OH228749   3.969   6.052  14.140 -0.0575 -0.0483 -0.5024
 2445TIP3    H128750   3.938   6.086  14.224  0.9340  0.6238 -0.3952
 2445TIP3    H228751   4.047   6.001  14.162 -0.5423 -0.9853 -0.8723
 2446TIP3   OH228752   1.966   3.893  12.455 -0.3282  0.3611  0.0627
 2446TIP3    H128753   1.871   3.880  12.454 -0.1976 -0.8153 -1.7139
 2446TIP3    H228754   2.001   3.812  12.419  1.3728  0.7775  0.7040
 2447TIP3   OH228755   1.116   1.695   1.055 -0.5797  0.1350 -0.3605
 2447TIP3    H128756   1.171   1.643   1.114 -0.0038  0.1716 -0.8531
 2447TIP3    H228757   1.050   1.634   1.023 -0.7506  0.0560  0.1256
 2448TIP3   OH228758   4.062   2.581   1.415 -0.2188 -0.1980 -0.2029
 2448TIP3    H128759   4.063   2.512   1.349  0.2757 -0.5117  0.1363
 2448TIP3    H228760   4.004   2.548   1.483 -1.1960  0.3711 -0.7320
 2449TIP3   OH228761   4.083   1.419   1.568 -0.6565 -0.3381 -0.3292
 2449TIP3    H128762   4.150   1.469   1.521  0.0311 -0.7389  0.2095
 2449TIP3    H228763   4.012   1.482   1.580 -1.0879 -0.3741 -2.3603
 2450TIP3   OH228764   1.602   6.097  12.629  0.3027 -0.5058  0.3218
 2450TIP3    H128765   1.654   6.156  12.575  0.1679 -0.6766  0.0035
 2450TIP3    H228766   1.573   6.028  12.570 -3.8133  1.6992 -0.6558
 2451TIP3   OH228767   3.627   4.669   0.853 -0.1651  0.7477  0.2274
 2451TIP3    H128768   3.684   4.742   0.877 -0.2621  1.6445 -2.0795
 2451TIP3    H228769   3.538   4.704   0.864 -0.2219  1.5032 -2.1136
 2452TIP3   OH228770   4.696   5.793  12.426 -0.0286  0.0179  0.1122
 2452TIP3    H128771   4.788   5.767  12.424 -0.1166 -0.2734 -0.8247
 2452TIP3    H228772   4.689   5.859  12.357 -0.2411  1.0689  1.1037
 2453TIP3   OH228773   2.264   5.428  11.443  0.3708  0.9540  0.0111
 2453TIP3    H128774   2.249   5.386  11.358 -2.8661  0.0287  0.9110
 2453TIP3    H228775   2.324   5.368  11.489 -0.8407 -0.5512 -0.2852
 2454TIP3   OH228776   1.048   0.243   1.878 -0.2209 -0.2072 -0.2607
 2454TIP3    H128777   1.000   0.212   1.801  0.0260  0.6217 -0.7632
 2454TIP3    H228778   0.980   0.282   1.933 -0.2370  0.3896 -0.6807
 2455TIP3   OH228779   3.797   6.032  14.679 -0.5339 -0.0709 -0.4381
 2455TIP3    H128780   3.811   6.103  14.742 -0.1173 -1.6720  1.3605
 2455TIP3    H228781   3.707   6.043  14.650 -0.7359  0.7363  0.4336
 2456TIP3   OH228782   3.280   0.305  16.048  0.0858 -0.5243  0.2185
 2456TIP3    H128783   3.357   0.354  16.078 -2.0435  2.7559  0.8676
 2456TIP3    H228784   3.233   0.282  16.128  0.2070 -2.3401 -0.1829
 2457TIP3   OH228785   4.912   3.360  13.841  0.4352  0.5012 -0.6114
 2457TIP3    H128786   4.891   3.441  13.795 -0.1106  1.4548  1.1936
 2457TIP3    H228787   4.828   3.329  13.875  1.0871  1.3801  2.0708
 2458TIP3   OH228788   1.367   5.301  14.683  0.1155 -0.0295 -0.0560
 2458TIP3    H128789   1.329   5.298  14.595 -2.0315  0.3825  0.7870
 2458TIP3    H228790   1.412   5.386  14.687 -1.5010  0.8667 -0.1380
 2459TIP3   OH228791   5.484   4.060  13.064  0.2037  0.3258  0.0388
 2459TIP3    H128792   5.491   3.967  13.044 -0.7619  0.5218 -1.3407
 2459TIP3    H228793   5.446   4.063  13.151 -1.1519 -0.5888 -0.4931
 2460TIP3   OH228794   6.097   3.903  16.967  0.3498 -0.0252  0.1636
 2460TIP3    H128795   6.067   3.870  16.883 -0.1791  1.2587 -0.1821
 2460TIP3    H228796   6.120   3.825  17.017 -0.8556 -0.9094 -0.6045
 2461TIP3   OH228797   3.174   2.161   3.162  0.3259 -0.1368 -0.2183
 2461TIP3    H128798   3.110   2.123   3.223 -1.7672  1.9420 -0.9444
 2461TIP3    H228799   3.259   2.143   3.202 -0.8484 -0.5112  2.3409
 2462TIP3   OH228800   0.058   2.054  16.855  0.7469  0.4928 -0.2355
 2462TIP3    H128801   0.036   1.976  16.803  0.7351  0.7898 -0.6851
 2462TIP3    H228802   0.028   2.128  16.801 -3.5975  0.7822  2.1129
 2463TIP3   OH228803   0.772   3.773  12.797  0.0734  0.1880  0.3747
 2463TIP3    H128804   0.681   3.805  12.800 -0.1143 -0.1952 -0.7722
 2463TIP3    H228805   0.823   3.843  12.839 -0.5824  1.0637 -0.2483
 2464TIP3   OH228806   4.001   5.540  11.159  0.3226  0.0706 -0.7107
 2464TIP3    H128807   4.042   5.613  11.205 -0.5290 -0.4988  1.0591
 2464TIP3    H228808   3.953   5.580  11.087  1.5686  1.0221 -1.0378
 2465TIP3   OH228809   6.275   3.587   3.749 -0.4725  0.2817 -0.2043
 2465TIP3    H128810   6.239   3.660   3.800  0.0574 -0.3588  1.1012
 2465TIP3    H228811   6.239   3.509   3.791 -0.7980 -0.2435 -1.4169
 2466TIP3   OH228812   2.581   1.081   0.092  0.4253 -0.2628  0.2224
 2466TIP3    H128813   2.676   1.091   0.085  0.4201 -0.4766 -0.1246
 2466TIP3    H228814   2.568   0.992   0.123  0.3328 -0.2681  0.1695
 2467TIP3   OH228815   2.420   4.917  15.084  0.1435 -0.1515  0.5749
 2467TIP3    H128816   2.362   4.974  15.135 -0.5874 -0.9732  0.6934
 2467TIP3    H228817   2.439   4.844  15.143 -1.5487 -1.6440 -0.6218
 2468TIP3   OH228818   1.260   5.097  12.709 -0.8130 -0.4303 -0.0148
 2468TIP3    H128819   1.279   5.041  12.634 -0.5879 -1.1215  0.5428
 2468TIP3    H228820   1.224   5.177  12.672 -1.9419 -1.2697 -0.7838
 2469TIP3   OH228821   2.835   1.571  12.978  0.4541 -0.3138 -0.0803
 2469TIP3    H128822   2.854   1.539  13.066  1.2573  0.9690  0.2445
 2469TIP3    H228823   2.760   1.519  12.948 -1.8430  1.2216  2.5410
 2470TIP3   OH228824   1.061   1.770  13.258  0.2647  0.5122  0.3403
 2470TIP3    H128825   1.149   1.746  13.228  0.6901  1.7625  0.5234
 2470TIP3    H228826   1.076   1.843  13.318 -0.8226  0.0182  1.2318
 2471TIP3   OH228827   2.463   4.160  14.275 -0.6484 -0.0943  0.1057
 2471TIP3    H128828   2.440   4.122  14.190  0.9268  2.8118 -1.8235
 2471TIP3    H228829   2.558   4.156  14.278 -0.4848  2.3518  0.3553
 2472TIP3   OH228830   3.066   5.430  12.285 -0.1793 -0.0204 -0.0619
 2472TIP3    H128831   3.105   5.445  12.199  0.4190 -0.4686  0.1276
 2472TIP3    H228832   2.998   5.365  12.270  1.1061 -1.4464  0.0820
 2473TIP3   OH228833   2.856   0.651   5.505 -0.1615 -1.1217  0.2463
 2473TIP3    H128834   2.859   0.679   5.597 -0.0302 -1.2486  0.2814
 2473TIP3    H228835   2.931   0.694   5.464 -1.0161  0.0553 -0.1255
 2474TIP3   OH228836   2.288   5.823  10.595 -0.2177  0.3246 -0.5015
 2474TIP3    H128837   2.210   5.769  10.608 -0.5568  1.1280  1.0388
 2474TIP3    H228838   2.337   5.815  10.677  0.8718  0.5633 -1.1068
 2475TIP3   OH228839   0.495   3.807  16.651  0.1480 -0.1888 -0.6849
 2475TIP3    H128840   0.419   3.785  16.704  0.1167 -1.8791 -1.3567
 2475TIP3    H228841   0.510   3.729  16.597 -0.5854  1.8300 -4.1064
 2476TIP3   OH228842   2.404   4.438   3.940 -0.6396  0.0731 -0.2043
 2476TIP3    H128843   2.402   4.353   3.895  0.2134 -0.5804  0.9414
 2476TIP3    H228844   2.392   4.502   3.870 -1.4942 -0.9863 -1.0735
 2477TIP3   OH228845   2.718   0.194   3.018 -0.2542 -0.5191  0.4210
 2477TIP3    H128846   2.773   0.197   2.940 -0.0373 -0.4684  0.5762
 2477TIP3    H228847   2.699   0.101   3.030  0.8644 -0.6697  1.1142
 2478TIP3   OH228848   1.379   0.495  15.658 -0.3056  0.1151 -0.2022
 2478TIP3    H128849   1.328   0.569  15.627 -2.7018 -1.7925 -1.1356
 2478TIP3    H228850   1.326   0.418  15.636  2.1175 -1.9103  0.5520
 2479TIP3   OH228851   4.729   6.023  11.039  0.1328 -0.0678 -0.0789
 2479TIP3    H128852   4.664   5.972  10.992  0.4220  0.0604 -0.6315
 2479TIP3    H228853   4.809   5.971  11.034  0.6063  0.7215 -1.2371
 2480TIP3   OH228854   5.655   4.771  15.327 -0.4195  0.6982  0.1017
 2480TIP3    H128855   5.670   4.678  15.313 -1.3759  0.6269 -0.5235
 2480TIP3    H228856   5.601   4.776  15.405  1.1806  0.8540  1.2490
 2481TIP3   OH228857   1.672   2.576  10.684  0.1797  0.1208 -0.1392
 2481TIP3    H128858   1.695   2.667  10.662  2.7341 -0.1637  0.9840
 2481TIP3    H228859   1.746   2.545  10.736 -0.9200 -2.4411  0.0298
 2482TIP3   OH228860   2.714   6.615  11.697  0.1643 -0.1167  0.3415
 2482TIP3    H128861   2.721   6.526  11.662 -2.2816 -0.6661  1.0445
 2482TIP3    H228862   2.677   6.666  11.625  0.0130 -0.0618  0.4570
 2483TIP3   OH228863   5.423   0.417   2.444  0.0133 -0.0661 -0.6234
 2483TIP3    H128864   5.497   0.477   2.456  1.8002 -2.1678 -0.6591
 2483TIP3    H228865   5.395   0.431   2.353  0.2580  0.8277 -0.5714
 2484TIP3   OH228866   4.467   2.966  13.960 -0.2464  0.0067 -0.3976
 2484TIP3    H128867   4.545   3.011  13.991  1.9211 -3.5296 -0.1925
 2484TIP3    H228868   4.396   3.000  14.016  1.4046  2.0658  0.5883
 2485TIP3   OH228869   0.712   1.213   2.528  0.2199 -0.4136  0.3302
 2485TIP3    H128870   0.729   1.162   2.449  0.9372  0.5361 -0.1447
 2485TIP3    H228871   0.634   1.173   2.566 -0.5566 -0.4523 -1.2394
 2486TIP3   OH228872   3.727   2.580   5.258 -0.3525  0.2085  0.1272
 2486TIP3    H128873   3.706   2.601   5.167  0.3107  1.4277  0.2263
 2486TIP3    H228874   3.823   2.586   5.261 -0.3379 -0.3511  0.7803
 2487TIP3   OH228875   6.688   2.255   1.140  0.3890 -0.0455 -0.0076
 2487TIP3    H128876   6.656   2.320   1.077 -0.8770 -1.7954 -1.2747
 2487TIP3    H228877   6.679   2.298   1.225 -1.3900  1.0932 -0.7021
 2488TIP3   OH228878   5.678   3.185   0.070  0.4238 -0.3825  0.0482
 2488TIP3    H128879   5.668   3.280   0.075 -0.0119 -0.1908 -2.8137
 2488TIP3    H228880   5.772   3.170   0.079  0.6976  0.5115 -1.0363
 2489TIP3   OH228881   2.164   3.427  15.920 -0.2651 -0.2299 -0.0934
 2489TIP3    H128882   2.097   3.362  15.938  0.0772 -0.9489 -1.3421
 2489TIP3    H228883   2.170   3.431  15.825  3.1054 -1.9780 -0.1229
 2490TIP3   OH228884   1.418   6.426  13.435  0.8092 -0.3583 -0.1792
 2490TIP3    H128885   1.489   6.431  13.499  1.1020 -0.7502 -0.4675
 2490TIP3    H228886   1.370   6.346  13.459  0.6851 -0.2924 -0.2071
 2491TIP3   OH228887   4.145   1.081   0.809 -0.4014 -0.4223 -0.1238
 2491TIP3    H128888   4.240   1.084   0.800 -0.4031 -0.1356 -0.0545
 2491TIP3    H228889   4.127   0.994   0.845 -0.0154  0.1267  1.4882
 2492TIP3   OH228890   5.894   2.255   6.036  0.1697 -0.5009  0.1738
 2492TIP3    H128891   5.950   2.224   6.107 -0.0089 -2.3215 -0.4145
 2492TIP3    H228892   5.817   2.198   6.039 -1.4459  1.5896  0.6174
 2493TIP3   OH228893   6.276   2.033   5.118 -0.1932  0.0156  0.4833
 2493TIP3    H128894   6.276   2.032   5.023  1.9654  1.6956  0.3839
 2493TIP3    H228895   6.323   1.953   5.142 -1.7334 -0.9979  0.2139
 2494TIP3   OH228896   1.348   5.128  13.171  0.0671  0.2407 -0.0555
 2494TIP3    H128897   1.271   5.129  13.227 -0.1675  0.8376 -0.3779
 2494TIP3    H228898   1.407   5.192  13.210  0.3489 -0.1253  0.1207
 2495TIP3   OH228899   1.116   6.388  15.001  0.3902  0.1571  0.3130
 2495TIP3    H128900   1.027   6.395  15.038  0.4556 -0.8251  0.6877
 2495TIP3    H228901   1.173   6.416  15.073  0.4115  0.3437  0.2246
 2496TIP3   OH228902   5.979   2.909  12.669  0.2571 -0.2236 -0.2833
 2496TIP3    H128903   5.914   2.854  12.625  0.6180 -0.6762 -0.2589
 2496TIP3    H228904   6.006   2.972  12.602 -0.4628  0.2007 -0.1890
 2497TIP3   OH228905   4.126   4.858  15.609 -0.2340  0.2056  0.2476
 2497TIP3    H128906   4.122   4.802  15.531  0.6893  0.7788 -0.2300
 2497TIP3    H228907   4.190   4.817  15.666  0.2054  0.5915  0.0379
 2498TIP3   OH228908   1.440   3.818  14.539  0.1180  0.0326  0.1375
 2498TIP3    H128909   1.458   3.731  14.574 -0.5235 -0.2312 -0.1606
 2498TIP3    H228910   1.396   3.863  14.611  0.3262  0.0611  0.2458
 2499TIP3   OH228911   1.719   2.414   6.527 -0.2874  0.0199 -0.0979
 2499TIP3    H128912   1.652   2.442   6.465 -0.9647  0.8180  0.9533
 2499TIP3    H228913   1.720   2.319   6.520 -1.0161  0.0466 -0.6605
 2500TIP3   OH228914   5.934   1.698   3.764 -0.4752  0.1909  0.3141
 2500TIP3    H128915   5.898   1.728   3.848  0.3822  0.5248  0.5763
 2500TIP3    H228916   5.862   1.652   3.722 -0.4921 -1.4218  1.9620
 2501TIP3   OH228917   4.596   5.863   0.668  0.2399  0.2976 -0.0854
 2501TIP3    H128918   4.535   5.885   0.597  0.6835  1.4444 -0.1317
 2501TIP3    H228919   4.681   5.893   0.636  0.5388  0.3080  0.6990
 2502TIP3   OH228920   4.013   1.150   5.999 -0.1042  0.0298  0.4440
 2502TIP3    H128921   4.064   1.162   6.079  1.1173 -1.4769 -0.0616
 2502TIP3    H228922   3.971   1.064   6.010 -0.1324 -0.0711 -0.4261
 2503TIP3   OH228923   1.843   3.603   0.710 -0.7614 -0.0032 -0.1496
 2503TIP3    H128924   1.823   3.577   0.800  1.3931 -0.3854  0.2714
 2503TIP3    H228925   1.824   3.696   0.707 -1.7172 -0.1632  0.4244
 2504TIP3   OH228926   4.614   6.673   2.558  0.2976  0.1092  0.1866
 2504TIP3    H128927   4.560   6.740   2.517  0.2978 -0.7620 -1.3173
 2504TIP3    H228928   4.605   6.689   2.652 -0.3269  1.7017 -0.1146
 2505TIP3   OH228929   2.100   6.691  13.050  0.1448  0.2963 -0.4323
 2505TIP3    H128930   2.127   6.602  13.028  0.2295  0.3778 -0.6632
 2505TIP3    H228931   2.182   6.738  13.062  0.1062  0.0717  0.8205
 2506TIP3   OH228932   0.314   4.336   2.184  0.3554 -0.3580  0.3510
 2506TIP3    H128933   0.401   4.372   2.166 -0.7106  2.1948 -0.1983
 2506TIP3    H228934   0.330   4.244   2.205  3.1915  0.0764  0.5342
 2507TIP3   OH228935   5.528   1.191   3.196 -0.1714 -0.4597  0.5726
 2507TIP3    H128936   5.600   1.175   3.135 -0.9483 -1.0550 -0.2128
 2507TIP3    H228937   5.570   1.201   3.281  0.9875  1.0130 -0.1483
 2508TIP3   OH228938   3.485   5.831  14.472  0.0938 -0.3669  0.4259
 2508TIP3    H128939   3.445   5.917  14.460 -0.5056 -0.1056  3.4168
 2508TIP3    H228940   3.579   5.845  14.458 -0.2915 -0.0132 -2.2802
 2509TIP3   OH228941   5.538   4.275   2.791 -0.9347  0.0127 -0.2384
 2509TIP3    H128942   5.538   4.333   2.715 -3.5136  0.4729  0.0402
 2509TIP3    H228943   5.556   4.188   2.754 -1.0504  0.3920 -1.2212
 2510TIP3   OH228944   4.550   1.731  13.508 -0.3668 -0.5273 -0.1625
 2510TIP3    H128945   4.632   1.696  13.541  0.0711  0.7444  0.1698
 2510TIP3    H228946   4.489   1.725  13.581 -0.0068  0.2922  0.2227
 2511TIP3   OH228947   1.690   0.064   4.848 -0.1460  0.0345 -0.5103
 2511TIP3    H128948   1.729   0.117   4.917  0.3878 -0.6830 -0.2487
 2511TIP3    H228949   1.760   0.056   4.782 -0.2942 -0.1673 -0.6459
 2512TIP3   OH228950   1.452   0.918  15.494  0.2376  0.2063 -0.3514
 2512TIP3    H128951   1.518   0.988  15.498  0.5480 -0.0763 -0.4391
 2512TIP3    H228952   1.435   0.897  15.585 -1.1638  1.5926 -0.2563
 2513TIP3   OH228953   2.988   1.774  16.789  0.8185  0.5982  0.0841
 2513TIP3    H128954   3.017   1.757  16.700 -4.7779  1.9256 -2.4400
 2513TIP3    H228955   2.934   1.698  16.813  0.1836  1.3609  1.2229
 2514TIP3   OH228956   3.253   4.538   5.880  0.1829 -0.1101 -0.2730
 2514TIP3    H128957   3.249   4.624   5.923  2.1415  0.0889 -0.3660
 2514TIP3    H228958   3.189   4.485   5.927  1.3896  0.4253  2.2148
 2515TIP3   OH228959   4.717   0.581   2.894 -0.5511 -0.3611  0.3764
 2515TIP3    H128960   4.800   0.543   2.866  0.8256  1.3143  1.9003
 2515TIP3    H228961   4.697   0.536   2.977  0.1147  0.8558  1.2270
 2516TIP3   OH228962   4.356   1.074  13.903  0.7563 -0.3117  0.1805
 2516TIP3    H128963   4.317   1.081  13.990  1.5522 -0.9175  0.6037
 2516TIP3    H228964   4.434   1.129  13.907  1.9150 -1.9167  0.5296
 2517TIP3   OH228965   5.428   4.955   5.864  0.4959 -0.1132 -0.0672
 2517TIP3    H128966   5.453   4.912   5.946  0.2472 -0.7483 -0.3174
 2517TIP3    H228967   5.384   5.035   5.892  2.7039  0.9928  0.3838
 2518TIP3   OH228968   4.830   6.479   6.592 -0.3288 -0.4860 -0.0174
 2518TIP3    H128969   4.876   6.506   6.672 -1.9254  2.3067  0.0987
 2518TIP3    H228970   4.897   6.484   6.523  0.2328  0.6855  0.5782
 2519TIP3   OH228971   3.478   4.229   1.022  0.2232  0.0204  0.2385
 2519TIP3    H128972   3.509   4.171   1.091 -2.8748  0.4448  2.1721
 2519TIP3    H228973   3.404   4.182   0.983  0.2054  0.9742 -0.9463
 2520TIP3   OH228974   4.207   3.786  15.376 -0.0293  0.2084 -0.4831
 2520TIP3    H128975   4.163   3.871  15.378  0.0667  0.2412  0.3659
 2520TIP3    H228976   4.299   3.806  15.364 -0.1504  0.1648 -1.5875
 2521TIP3   OH228977   5.855   1.628   5.384  0.5640  0.3526 -0.6544
 2521TIP3    H128978   5.925   1.602   5.325  0.4598  1.1028 -1.1265
 2521TIP3    H228979   5.776   1.621   5.332  0.4700  1.0002 -0.6075
 2522TIP3   OH228980   1.956   4.729   2.769 -0.2518 -0.0819  0.6933
 2522TIP3    H128981   1.909   4.797   2.817  1.3334  1.1027  0.6578
 2522TIP3    H228982   2.048   4.746   2.787  0.3199 -0.6099 -1.4179
 2523TIP3   OH228983   2.540   5.020   5.465 -0.1475  0.2082 -0.2318
 2523TIP3    H128984   2.454   5.031   5.505  0.6126  2.0075  1.0375
 2523TIP3    H228985   2.588   4.963   5.526 -0.4397 -0.8548 -0.9745
 2524TIP3   OH228986   6.656   0.501   0.024  0.0303  0.1559 -0.2281
 2524TIP3    H128987   6.651   0.474  -0.068  1.2906  0.5228 -0.4148
 2524TIP3    H228988   6.724   0.446   0.062 -0.0857  0.4034  0.3503
 2525TIP3   OH228989   3.627   0.184   2.279 -0.0286  0.4855 -0.4047
 2525TIP3    H128990   3.615   0.090   2.271 -0.0264  0.3385  0.9886
 2525TIP3    H228991   3.548   0.223   2.240 -1.3121 -0.1977  1.3716
 2526TIP3   OH228992   1.462   4.836  15.364 -0.1736  0.0362 -0.3338
 2526TIP3    H128993   1.545   4.866  15.401  0.5530  1.6391 -2.9917
 2526TIP3    H228994   1.453   4.746  15.397  2.0382  0.1941  0.9234
 2527TIP3   OH228995   3.353   3.137  14.691 -0.0888 -0.5195  0.1752
 2527TIP3    H128996   3.283   3.154  14.628 -1.5986 -1.2052  1.5852
 2527TIP3    H228997   3.433   3.133  14.638 -0.9206  1.4204 -1.3588
 2528TIP3   OH228998   0.950   1.991   6.608  0.1340 -0.0318 -0.0957
 2528TIP3    H128999   0.973   2.045   6.684  0.4059  1.0598 -0.9352
 2528TIP3    H229000   1.034   1.964   6.572  0.0103 -1.7608  0.7927
 2529TIP3   OH229001   1.580   6.749  12.646 -0.1186  0.0883 -0.0533
 2529TIP3    H129002   1.502   6.753  12.701 -0.5332 -1.0523 -0.5254
 2529TIP3    H229003   1.548   6.761  12.557  0.3456  0.3449 -0.1911
 2530TIP3   OH229004   1.320   2.100  16.621  0.1352  0.7539 -0.0864
 2530TIP3    H129005   1.357   2.106  16.710  0.0848 -0.9338  0.0887
 2530TIP3    H229006   1.305   2.006  16.608 -2.7088  1.2024 -0.7247
 2531TIP3   OH229007   5.842   6.440  15.095  0.1128 -1.1477  0.5106
 2531TIP3    H129008   5.878   6.355  15.072 -0.9930 -1.2027 -1.2889
 2531TIP3    H229009   5.771   6.420  15.157  0.5741 -1.4153  0.9575
 2532TIP3   OH229010   1.515   6.286  15.120  0.0946 -0.1399 -0.0810
 2532TIP3    H129011   1.448   6.225  15.088  0.3531 -1.0175  1.0214
 2532TIP3    H229012   1.511   6.359  15.058 -2.0883 -0.0332  0.1105
 2533TIP3   OH229013   1.215   4.467   4.401  0.2350 -0.5740 -0.3982
 2533TIP3    H129014   1.254   4.380   4.393 -0.1628 -0.7886 -0.0275
 2533TIP3    H229015   1.121   4.452   4.394 -0.0228 -0.4943  2.1091
 2534TIP3   OH229016   6.360   6.643  11.453  0.0330  0.7040 -0.4001
 2534TIP3    H129017   6.409   6.719  11.483 -1.9630  1.3696  1.4193
 2534TIP3    H229018   6.377   6.639  11.359  2.9486  1.2617  0.0176
 2535TIP3   OH229019   4.634   5.820  16.179 -0.1477  0.1579  1.0361
 2535TIP3    H129020   4.592   5.825  16.265 -0.1101  0.2105  1.0515
 2535TIP3    H229021   4.659   5.727  16.170  0.2471  0.2380  1.2694
 2536TIP3   OH229022   5.218   0.695   2.451  0.1508  0.2970  0.1208
 2536TIP3    H129023   5.163   0.767   2.482 -2.3392 -0.9586 -1.0794
 2536TIP3    H229024   5.184   0.675   2.364  2.0097 -1.1221 -0.3328
 2537TIP3   OH229025   1.814   3.846   5.077  0.0487  0.4271 -0.0666
 2537TIP3    H129026   1.838   3.874   5.165 -0.7449  1.5184 -0.1786
 2537TIP3    H229027   1.719   3.841   5.079  0.0537 -4.7738  0.6675
 2538TIP3   OH229028   5.248   3.819   2.549  0.6279 -0.3924 -0.0671
 2538TIP3    H129029   5.188   3.746   2.561  1.0664 -0.7296  0.1188
 2538TIP3    H229030   5.216   3.865   2.471  0.3112 -0.7431 -0.1449
 2539TIP3   OH229031   2.835   4.060  10.637 -0.1991  0.5213  0.0281
 2539TIP3    H129032   2.813   3.967  10.632 -1.3199  0.8058 -0.6972
 2539TIP3    H229033   2.776   4.096  10.703  0.6132  0.6304  0.7169
 2540TIP3   OH229034   0.277   4.759   0.107 -0.2388  0.1452 -0.1061
 2540TIP3    H129035   0.323   4.676   0.094  0.0019 -0.1592  2.2400
 2540TIP3    H229036   0.346   4.820   0.133 -0.6071  0.7665 -0.5622
 2541TIP3   OH229037   5.832   3.983   1.100  0.1550 -0.1630  0.2076
 2541TIP3    H129038   5.789   4.013   1.180 -1.9503 -0.7419 -0.6342
 2541TIP3    H229039   5.798   3.894   1.087  0.3847 -0.0507 -1.3545
 2542TIP3   OH229040   5.201   0.297   4.045  0.2198  0.1732 -0.6324
 2542TIP3    H129041   5.175   0.324   4.133 -1.6561  2.1547 -1.6893
 2542TIP3    H229042   5.263   0.226   4.059  0.3737  0.7487  2.2817
 2543TIP3   OH229043   3.771   4.363  16.765 -0.0282  0.2577 -0.6549
 2543TIP3    H129044   3.834   4.327  16.828 -0.1843 -0.1265 -0.7121
 2543TIP3    H229045   3.825   4.395  16.693  0.1142  0.0698 -0.6350
 2544TIP3   OH229046   6.241   2.124   0.155 -0.6776  0.1014 -0.0838
 2544TIP3    H129047   6.252   2.175   0.075 -1.4669 -0.1167 -0.3384
 2544TIP3    H229048   6.182   2.053   0.130 -0.3748 -0.3687  0.5173
 2545TIP3   OH229049   4.368   4.638  12.808  0.0376  0.2388 -0.2634
 2545TIP3    H129050   4.291   4.644  12.864  0.0880 -0.0718 -0.1571
 2545TIP3    H229051   4.427   4.579  12.855 -0.2248 -0.6226 -0.9969
 2546TIP3   OH229052   6.389   3.446   2.224 -0.4862 -0.1744 -0.0715
 2546TIP3    H129053   6.381   3.458   2.319  0.1101 -0.2701 -0.0065
 2546TIP3    H229054   6.440   3.366   2.214  0.4941  0.4745 -0.4517
 2547TIP3   OH229055   3.759   6.753   5.504  0.1885  0.0241  0.2336
 2547TIP3    H129056   3.684   6.706   5.540  0.3604 -0.6900 -0.3057
 2547TIP3    H229057   3.730   6.845   5.500 -0.0147  0.0448  1.6501
 2548TIP3   OH229058   2.548   3.796   4.918 -0.2022 -0.7958  0.5534
 2548TIP3    H129059   2.575   3.787   4.827  2.0260  0.6570  1.0026
 2548TIP3    H229060   2.452   3.801   4.914 -0.1657 -0.8217 -1.6801
 2549TIP3   OH229061   3.106   3.900   0.597  0.5275 -0.3036 -0.4662
 2549TIP3    H129062   3.199   3.878   0.604  0.8972  1.2639 -0.1175
 2549TIP3    H229063   3.064   3.817   0.572  2.0505 -0.9524 -1.0246
 2550TIP3   OH229064   3.754   2.932   3.882  0.1770  0.2003  0.6101
 2550TIP3    H129065   3.722   2.984   3.956  0.7795  0.0311  0.9922
 2550TIP3    H229066   3.677   2.886   3.850 -0.1848  0.6520  0.8259
 2551TIP3   OH229067   4.984   5.999   4.282  0.1118  0.2264 -0.1518
 2551TIP3    H129068   4.965   6.080   4.235 -0.6599  0.0571 -0.1425
 2551TIP3    H229069   5.051   5.955   4.228 -0.2414  0.3688 -0.7163
 2552TIP3   OH229070   2.543   3.835  13.780 -0.2063 -0.0969 -0.1209
 2552TIP3    H129071   2.607   3.885  13.830  0.0059 -0.8018  0.3229
 2552TIP3    H229072   2.512   3.768  13.841 -1.0976  0.0085 -0.4487
 2553TIP3   OH229073   4.342   5.386   3.234 -0.5131  0.0990  0.6095
 2553TIP3    H129074   4.416   5.340   3.195  0.3426  0.8576  1.2863
 2553TIP3    H229075   4.322   5.337   3.314 -0.4301  0.1699  0.6737
 2554TIP3   OH229076   4.507   4.358   4.399  0.6708  0.4029  0.0446
 2554TIP3    H129077   4.517   4.270   4.435  1.5938  0.4255 -0.1235
 2554TIP3    H229078   4.479   4.411   4.474  3.7922  0.7127  1.1603
 2555TIP3   OH229079   5.081   1.405  16.920  0.3976  0.3072 -0.5386
 2555TIP3    H129080   5.109   1.497  16.925  0.1735  0.3175  1.2036
 2555TIP3    H229081   5.021   1.395  16.994  2.2003 -1.8350  0.7353
 2556TIP3   OH229082   1.643   6.232   3.178  0.2807 -0.5427 -0.3999
 2556TIP3    H129083   1.578   6.163   3.165 -0.8910  0.3523  0.5419
 2556TIP3    H229084   1.679   6.247   3.091 -0.9941 -0.8420 -1.0069
 2557TIP3   OH229085   6.084   0.549  10.911 -0.8175 -1.0586 -0.2155
 2557TIP3    H129086   6.136   0.625  10.934 -0.5277 -1.4259  0.3743
 2557TIP3    H229087   6.107   0.530  10.820 -0.4818 -0.7747 -0.1872
 2558TIP3   OH229088   2.849   5.902   5.265  0.3313  0.1239 -0.0268
 2558TIP3    H129089   2.874   5.892   5.173 -0.0130  1.2976 -0.2541
 2558TIP3    H229090   2.889   5.826   5.309  0.3071 -0.5714 -1.1699
 2559TIP3   OH229091   5.278   0.218  12.011 -0.2035 -0.6770  0.4928
 2559TIP3    H129092   5.341   0.241  12.079 -1.5153  1.1289  1.1777
 2559TIP3    H229093   5.326   0.227  11.929  0.3799  1.0279  0.9786
 2560TIP3   OH229094   5.945   0.011   2.235 -0.6006 -0.0080 -0.2772
 2560TIP3    H129095   5.971  -0.069   2.281  2.0658  0.9220  0.0028
 2560TIP3    H229096   5.884   0.055   2.295 -0.1554 -0.6560  0.6693
 2561TIP3   OH229097   5.009   5.247  12.811  0.3523 -0.6282  0.1453
 2561TIP3    H129098   5.046   5.285  12.732  0.4053  0.3925  0.6466
 2561TIP3    H229099   5.073   5.181  12.839 -0.7464 -2.7171 -1.9206
 2562TIP3   OH229100   1.530   4.060  17.030 -0.0689  0.1760 -0.2314
 2562TIP3    H129101   1.471   4.131  17.058 -0.2211  1.2920 -3.0639
 2562TIP3    H229102   1.618   4.097  17.040 -0.1067  0.4508 -0.9138
 2563TIP3   OH229103   4.220   6.097  12.942 -0.3675 -0.4126  1.0560
 2563TIP3    H129104   4.237   6.003  12.943 -0.1729 -0.3920  0.2903
 2563TIP3    H229105   4.151   6.108  12.876  0.8029  0.1581 -0.1131
 2564TIP3   OH229106   1.340   5.471  12.591  0.5309 -0.2009  0.0050
 2564TIP3    H129107   1.429   5.488  12.621  0.0501  1.8436  0.3824
 2564TIP3    H229108   1.350   5.445  12.499  1.6341 -1.9092  0.5779
 2565TIP3   OH229109   4.440   4.108   3.981  0.4338  0.3846  0.3046
 2565TIP3    H129110   4.418   4.089   4.073  3.5016  1.6558  1.4564
 2565TIP3    H229111   4.407   4.033   3.932 -0.3988 -0.8406  2.5948
 2566TIP3   OH229112   4.893   6.125   1.343  0.2673 -0.3439  0.0939
 2566TIP3    H129113   4.905   6.181   1.420 -1.2971  2.7134 -1.6667
 2566TIP3    H229114   4.950   6.164   1.276 -1.9820  0.2094 -1.6255
 2567TIP3   OH229115   2.703   2.268  15.508  0.2658 -0.0202  0.4022
 2567TIP3    H129116   2.682   2.185  15.552 -0.2308 -0.2592 -0.2522
 2567TIP3    H229117   2.625   2.287  15.456  0.3409  0.9214  0.6261
 2568TIP3   OH229118   5.879   4.278   0.747 -0.2268  0.5750  0.0112
 2568TIP3    H129119   5.872   4.183   0.757 -1.0455  0.4652 -1.4296
 2568TIP3    H229120   5.936   4.290   0.671  0.1819  1.2583  0.4118
 2569TIP3   OH229121   6.618   0.738  14.689  0.6594 -0.1846 -0.2349
 2569TIP3    H129122   6.654   0.671  14.632  0.2352 -0.4236 -0.2288
 2569TIP3    H229123   6.526   0.713  14.700  1.1525 -1.2409  2.0807
 2570TIP3   OH229124   1.813   1.237  12.925  0.3748  0.0763  0.2277
 2570TIP3    H129125   1.839   1.315  12.877  0.2413 -0.1355 -0.1944
 2570TIP3    H229126   1.851   1.165  12.874  0.0296 -0.1614  0.3096
 2571TIP3   OH229127   5.688   0.680  12.097  0.6713  0.7276 -0.8385
 2571TIP3    H129128   5.763   0.632  12.061  1.0253  0.5257  0.1162
 2571TIP3    H229129   5.702   0.771  12.071  1.8633  0.8912  0.2349
 2572TIP3   OH229130   6.235   3.680  13.422 -0.2304  0.4643  0.4444
 2572TIP3    H129131   6.300   3.620  13.459 -0.2644  0.9448  1.3095
 2572TIP3    H229132   6.286   3.752  13.385 -0.2028  0.0460 -0.3560
 2573TIP3   OH229133   5.553   0.558  11.859  0.1164  0.0827  0.1176
 2573TIP3    H129134   5.600   0.475  11.866  0.0806  0.1596  1.8417
 2573TIP3    H229135   5.605   0.619  11.912 -1.0011  0.5836  0.6723
 2574TIP3   OH229136   2.804   5.645   4.024 -0.5580 -0.9983 -0.3002
 2574TIP3    H129137   2.815   5.616   3.934  2.0293 -1.8131  0.1918
 2574TIP3    H229138   2.833   5.736   4.023 -0.8115 -0.9171 -0.3358
 2575TIP3   OH229139   5.981   5.923  13.531  0.4288 -0.3591  0.5819
 2575TIP3    H129140   6.036   5.987  13.484 -0.7839 -0.0708 -0.4977
 2575TIP3    H229141   5.981   5.846  13.473 -1.4412  0.1533 -0.1749
 2576TIP3   OH229142   4.308   4.480  13.377  0.3625 -0.0460  0.0957
 2576TIP3    H129143   4.292   4.400  13.427  0.2246  0.0946  0.2825
 2576TIP3    H229144   4.241   4.541  13.409 -0.1286 -0.1464 -0.7003
 2577TIP3   OH229145   4.354   5.984   6.462  0.1092 -0.4869  0.1763
 2577TIP3    H129146   4.436   5.988   6.511  0.8304  0.7012 -1.0569
 2577TIP3    H229147   4.327   5.892   6.467  1.9314 -1.0704 -0.0568
 2578TIP3   OH229148   4.853   0.549  16.311  0.2887 -0.1989  0.0827
 2578TIP3    H129149   4.940   0.585  16.327 -0.7808  2.7802 -0.2680
 2578TIP3    H229150   4.794   0.606  16.361 -1.5191 -1.8322 -0.0817
 2579TIP3   OH229151   3.823   2.699  16.861 -0.3114  0.2099 -0.3371
 2579TIP3    H129152   3.800   2.721  16.951 -0.3152  0.2915 -0.3589
 2579TIP3    H229153   3.740   2.708  16.813 -0.3209  0.1149 -0.3388
 2580TIP3   OH229154   1.340   6.807   4.125 -0.5051  0.5946  0.1879
 2580TIP3    H129155   1.252   6.768   4.134  0.4397 -1.7936 -0.0563
 2580TIP3    H229156   1.364   6.789   4.034  0.3747  0.8984  0.3597
 2581TIP3   OH229157   3.079   0.318   6.108  0.1670 -0.2046 -0.2401
 2581TIP3    H129158   3.109   0.277   6.190 -1.5473 -0.7755  0.1391
 2581TIP3    H229159   2.984   0.310   6.111 -0.0439  1.5141 -1.4064
 2582TIP3   OH229160   0.995   3.781  11.456 -0.1365 -0.0262  0.0574
 2582TIP3    H129161   0.948   3.698  11.462  0.3878 -0.3186  0.2311
 2582TIP3    H229162   1.069   3.762  11.398  0.1529  0.2425  0.3371
 2583TIP3   OH229163   1.785   3.555  16.291 -0.1893  0.0300 -0.1498
 2583TIP3    H129164   1.874   3.588  16.283  0.0423 -0.5766 -0.1559
 2583TIP3    H229165   1.753   3.552  16.200 -0.1573  0.0827 -0.1636
 2584TIP3   OH229166   1.674   5.542   3.153 -0.2830 -0.3930  0.1097
 2584TIP3    H129167   1.700   5.613   3.212 -1.8560  0.9395 -0.7194
 2584TIP3    H229168   1.633   5.478   3.211 -2.6006  1.2806  0.4882
 2585TIP3   OH229169   3.646   0.246   4.105  0.2112  0.3587 -0.3508
 2585TIP3    H129170   3.575   0.303   4.075 -0.0963 -0.8165 -1.9662
 2585TIP3    H229171   3.668   0.192   4.029 -0.3125 -2.5077  1.3705
 2586TIP3   OH229172   2.272   5.244   0.409 -0.1234  0.7304 -0.7728
 2586TIP3    H129173   2.222   5.303   0.465  0.3697  0.4088  0.0211
 2586TIP3    H229174   2.311   5.181   0.470  0.9598  0.7672 -1.4127
 2587TIP3   OH229175   0.849   3.310  13.022 -0.8149 -1.0042  0.3892
 2587TIP3    H129176   0.788   3.331  13.092 -0.4397 -0.7444  0.6381
 2587TIP3    H229177   0.833   3.376  12.955 -0.3621 -0.5496  0.7265
 2588TIP3   OH229178   6.616   6.670  12.980 -0.8131  0.2015  0.2418
 2588TIP3    H129179   6.703   6.633  12.970 -1.3419 -0.5700 -2.2087
 2588TIP3    H229180   6.630   6.764  12.988  0.2650  0.0210  0.5576
 2589TIP3   OH229181   2.836   4.765  11.881  0.4460 -0.1254  0.7156
 2589TIP3    H129182   2.913   4.737  11.832  1.3944  1.0917  1.4616
 2589TIP3    H229183   2.862   4.759  11.973 -1.0991 -1.7867  1.1124
 2590TIP3   OH229184   6.374   2.622   4.032 -0.1283  0.0904  0.2070
 2590TIP3    H129185   6.357   2.527   4.031 -1.5414  0.3302  0.0429
 2590TIP3    H229186   6.406   2.641   3.944 -0.6055 -0.1193 -0.0184
 2591TIP3   OH229187   2.145   6.465  16.926  0.1435  0.7405 -0.0575
 2591TIP3    H129188   2.073   6.410  16.957 -0.0596  0.9300 -0.1938
 2591TIP3    H229189   2.105   6.549  16.907  0.6215  1.2587  1.1151
 2592TIP3   OH229190   4.699   2.176   4.165  0.5255  0.1946 -0.4108
 2592TIP3    H129191   4.677   2.086   4.142 -1.6125  0.6864 -0.4601
 2592TIP3    H229192   4.762   2.202   4.098  0.4858 -0.9677 -0.9309
 2593TIP3   OH229193   1.997   3.759  14.965  0.0213 -0.0815  0.3710
 2593TIP3    H129194   2.073   3.714  14.927 -0.7317  0.9295 -2.6165
 2593TIP3    H229195   1.925   3.739  14.904 -1.2093  2.0492  1.0359
 2594TIP3   OH229196   1.471   3.550  14.593  0.5981 -0.0348  0.1306
 2594TIP3    H129197   1.464   3.485  14.523  0.3862 -1.5035  1.4663
 2594TIP3    H229198   1.537   3.515  14.653 -0.2171  0.4712  1.3851
 2595TIP3   OH229199   1.646   5.812   2.969 -0.5175  0.1658 -0.9055
 2595TIP3    H129200   1.724   5.867   2.981 -0.6600  0.2799 -0.4915
 2595TIP3    H229201   1.633   5.770   3.054  0.0113 -1.0827 -1.4195
 2596TIP3   OH229202   5.977   0.646   6.083 -0.2496  0.0868 -0.2509
 2596TIP3    H129203   6.057   0.692   6.058 -0.2031 -0.0874 -0.4328
 2596TIP3    H229204   5.986   0.632   6.177  0.1177 -0.2747 -0.3330
 2597TIP3   OH229205   5.511   2.846   4.669 -0.1032 -0.1668  0.5456
 2597TIP3    H129206   5.447   2.875   4.604  2.4227  1.1904 -1.5051
 2597TIP3    H229207   5.532   2.925   4.719 -0.0557 -0.6064  1.2358
 2598TIP3   OH229208   2.896   1.537  15.412 -0.0219 -0.3378 -0.2168
 2598TIP3    H129209   2.837   1.542  15.488 -0.5999 -0.6303 -0.6458
 2598TIP3    H229210   2.853   1.591  15.345 -0.0326 -0.9283 -0.6869
 2599TIP3   OH229211   3.880   4.652   5.981  0.4695  0.0269 -0.3386
 2599TIP3    H129212   3.800   4.616   5.943  0.7604  1.2722 -2.2373
 2599TIP3    H229213   3.877   4.745   5.960  2.4141  0.1050 -0.4669
 2600TIP3   OH229214   4.459   2.397  13.681 -0.3545  0.5039  0.1255
 2600TIP3    H129215   4.403   2.381  13.757  2.1592 -1.7796  1.6755
 2600TIP3    H229216   4.491   2.486  13.694  1.1529 -0.3176  2.6424
 2601TIP3   OH229217   4.704   1.576  12.215 -0.2138 -0.8462 -0.0807
 2601TIP3    H129218   4.624   1.523  12.214 -0.8188  0.0244  0.4560
 2601TIP3    H229219   4.694   1.633  12.292  0.4190  0.0411 -0.6354
 2602TIP3   OH229220   3.519   4.568  11.912  0.1597  0.4231 -0.6582
 2602TIP3    H129221   3.572   4.613  11.978  2.1151 -1.1052 -1.0944
 2602TIP3    H229222   3.582   4.540  11.846 -1.2860 -1.0490 -1.4703
 2603TIP3   OH229223   4.078   0.838  10.415  0.4029 -0.4549  0.5215
 2603TIP3    H129224   4.163   0.810  10.381  0.5600  0.6473 -0.0706
 2603TIP3    H229225   4.079   0.813  10.507  0.8212 -1.6559  0.1990
 2604TIP3   OH229226   2.938   5.381   0.197 -0.5899 -0.4874  0.0038
 2604TIP3    H129227   2.991   5.397   0.119  0.2019  0.4117  0.7100
 2604TIP3    H229228   2.892   5.463   0.212  0.7667  0.0378  1.5902
 2605TIP3   OH229229   3.836   5.195  10.801 -0.9980 -0.1730  0.2108
 2605TIP3    H129230   3.921   5.210  10.843 -0.2981 -0.6508 -0.9625
 2605TIP3    H229231   3.785   5.146  10.865 -0.7321  0.9188  1.2941
 2606TIP3   OH229232   5.884   5.345  16.135 -0.0973 -0.4955  0.5298
 2606TIP3    H129233   5.922   5.264  16.169 -1.4002 -0.6557  1.7472
 2606TIP3    H229234   5.959   5.399  16.112  0.8121 -2.0902 -0.4781
 2607TIP3   OH229235   6.017   4.938  16.792 -0.5950  0.1034  0.1915
 2607TIP3    H129236   5.927   4.920  16.821 -0.2222  0.1263  1.4357
 2607TIP3    H229237   6.008   5.009  16.729 -1.4302  0.3413  0.5628
 2608TIP3   OH229238   4.536   3.677   1.155 -0.1925 -0.1900  0.4742
 2608TIP3    H129239   4.481   3.754   1.142  0.0306 -0.1375 -0.1723
 2608TIP3    H229240   4.624   3.712   1.166  0.2839 -0.4184 -1.9775
 2609TIP3   OH229241   2.939   4.095  16.081 -0.0982  0.4514  0.1290
 2609TIP3    H129242   2.949   4.106  16.176 -0.5084  0.1759  0.2073
 2609TIP3    H229243   3.016   4.137  16.044 -1.2859  3.0698  0.4293
 2610TIP3   OH229244   0.941   4.672  12.884  0.1237  0.0146 -0.7021
 2610TIP3    H129245   0.996   4.749  12.897  0.4700 -0.4413  0.6554
 2610TIP3    H229246   1.001   4.598  12.887 -0.0912 -0.3186 -2.8044
 2611TIP3   OH229247   0.786   0.804  16.573  0.3545 -0.4171 -0.1156
 2611TIP3    H129248   0.732   0.766  16.642  1.7147  1.1615  1.9484
 2611TIP3    H229249   0.859   0.743  16.563 -0.7490 -1.5683 -1.5294
 2612TIP3   OH229250   2.136   0.373  14.180 -0.2550  0.0792  0.4257
 2612TIP3    H129251   2.073   0.302  14.196  1.1553 -0.5687  4.3157
 2612TIP3    H229252   2.221   0.335  14.202  0.9831  2.0703 -0.6648
 2613TIP3   OH229253   6.406   1.587   0.946  0.5334 -0.1008 -0.1184
 2613TIP3    H129254   6.370   1.619   1.028  1.8501 -0.7901  0.7810
 2613TIP3    H229255   6.496   1.619   0.945  0.5687 -0.1861 -1.2502
 2614TIP3   OH229256   3.198   4.622  16.660 -0.1198  0.0636  0.2048
 2614TIP3    H129257   3.289   4.609  16.632 -0.2224  0.2899 -0.2301
 2614TIP3    H229258   3.206   4.649  16.752  0.3187  1.1372 -0.1277
 2615TIP3   OH229259   2.801   5.765  11.917 -0.2813  0.1708 -0.5940
 2615TIP3    H129260   2.775   5.854  11.939  2.2454  1.0064 -0.7483
 2615TIP3    H229261   2.832   5.728  11.999  1.8121  0.6244 -1.1346
 2616TIP3   OH229262   4.345   3.157   1.287 -0.3688 -0.5276  0.3713
 2616TIP3    H129263   4.338   3.230   1.348 -0.9564 -0.3507  0.1029
 2616TIP3    H229264   4.288   3.181   1.214  0.1267 -0.8456 -0.1345
 2617TIP3   OH229265   2.802   6.179   4.779  0.9626  0.1193 -0.7058
 2617TIP3    H129266   2.829   6.089   4.759  1.5308  0.2383 -0.4878
 2617TIP3    H229267   2.768   6.213   4.697 -1.8645 -1.1888 -0.2138
 2618TIP3   OH229268   3.353   4.553  13.961  0.6689  0.3207 -0.0832
 2618TIP3    H129269   3.258   4.547  13.957  0.6255  1.4244 -1.5257
 2618TIP3    H229270   3.373   4.563  14.054 -0.5056 -1.2750  0.3799
 2619TIP3   OH229271   2.160   4.182  16.304 -0.3544  0.4642 -0.2809
 2619TIP3    H129272   2.117   4.097  16.296 -2.0615  1.0474  1.8359
 2619TIP3    H229273   2.209   4.192  16.222  0.3034 -2.7340 -0.4013
 2620TIP3   OH229274   5.189   5.495   4.059 -0.7893  0.1711 -0.3511
 2620TIP3    H129275   5.172   5.558   4.129 -1.9811 -0.2168 -0.2802
 2620TIP3    H229276   5.126   5.424   4.073  1.2323 -1.6134  0.2188
 2621TIP3   OH229277   1.496   2.264   5.136 -0.4063 -0.0678  0.5387
 2621TIP3    H129278   1.521   2.302   5.052 -1.1175  1.1112  0.8426
 2621TIP3    H229279   1.573   2.214   5.164  0.2182  0.4000 -0.3012
 2622TIP3   OH229280   1.468   4.282  15.060  0.4349 -0.4954 -0.1123
 2622TIP3    H129281   1.491   4.255  15.149  1.8981  0.0647 -0.3003
 2622TIP3    H229282   1.400   4.348  15.072  0.9932 -0.0368  0.6267
 2623TIP3   OH229283   0.151   1.109   1.774  0.2108 -0.0424 -0.2566
 2623TIP3    H129284   0.193   1.085   1.856  0.3612  0.0075 -0.3178
 2623TIP3    H229285   0.067   1.146   1.799  0.4689  0.4386 -0.0960
 2624TIP3   OH229286   1.127   4.462  12.951 -0.1031  0.3206 -0.0277
 2624TIP3    H129287   1.191   4.440  12.884  0.3572  1.6587 -0.0650
 2624TIP3    H229288   1.177   4.468  13.032 -0.5122 -0.4753  0.2894
 2625TIP3   OH229289   6.428   1.063  13.194 -0.1829  0.7382  0.0809
 2625TIP3    H129290   6.449   0.983  13.244  0.0652  1.9675  2.0586
 2625TIP3    H229291   6.381   1.118  13.256 -1.6649  1.5712 -1.7003
 2626TIP3   OH229292   2.742   1.425   4.489  0.3166 -0.0953  0.5543
 2626TIP3    H129293   2.752   1.398   4.398  0.6514 -1.3049  0.9311
 2626TIP3    H229294   2.827   1.405   4.529 -0.1659 -0.5512  1.3702
 2627TIP3   OH229295   5.283   1.566   1.145  0.2991  0.4589 -0.2971
 2627TIP3    H129296   5.211   1.625   1.122  0.7479  1.2346  0.2596
 2627TIP3    H229297   5.349   1.623   1.184 -0.0538 -0.6671  2.1300
 2628TIP3   OH229298   2.089   0.789  16.020 -0.3792 -0.3633 -0.3921
 2628TIP3    H129299   2.150   0.823  16.086 -2.2084  0.5321  0.9209
 2628TIP3    H229300   2.113   0.697  16.011 -0.1590 -0.5543  1.6423
 2629TIP3   OH229301   0.808   0.812   6.010  0.2775 -0.0814 -0.5938
 2629TIP3    H129302   0.903   0.810   6.018  0.4078 -2.2688 -1.8119
 2629TIP3    H229303   0.792   0.849   5.923  0.1840 -2.0263 -1.4552
 2630TIP3   OH229304   3.390   2.772   0.070 -0.2816  0.2113 -0.4639
 2630TIP3    H129305   3.328   2.705   0.097 -0.5021  1.0151  1.0852
 2630TIP3    H229306   3.475   2.727   0.071 -0.7564 -0.9383 -2.7583
 2631TIP3   OH229307   5.537   2.556   4.688  0.3272  0.1152 -0.5819
 2631TIP3    H129308   5.533   2.651   4.677 -0.0387  0.1742  0.0686
 2631TIP3    H229309   5.492   2.539   4.770  1.1776 -0.5412 -0.2376
 2632TIP3   OH229310   0.135   6.015   0.384 -0.5484  0.1734  0.0402
 2632TIP3    H129311   0.162   5.931   0.349  0.6059  0.2697  0.6572
 2632TIP3    H229312   0.202   6.077   0.354 -0.9127  0.7115  0.3123
 2633TIP3   OH229313   0.509   1.541   3.807  0.4816  0.1024  0.0864
 2633TIP3    H129314   0.557   1.481   3.750 -1.2181 -2.2646  0.9358
 2633TIP3    H229315   0.417   1.525   3.786 -0.1311  0.2959  2.3418
 2634TIP3   OH229316   3.951   5.444  15.503  0.4526 -0.3566  0.2916
 2634TIP3    H129317   3.959   5.382  15.430  1.4092 -0.3208  0.3575
 2634TIP3    H229318   3.858   5.470  15.502 -0.6274 -3.5706  1.7221
 2635TIP3   OH229319   1.553   1.581   4.424  0.1289  0.3786 -0.7793
 2635TIP3    H129320   1.610   1.504   4.422  0.5728  0.6215  1.1408
 2635TIP3    H229321   1.479   1.555   4.478  1.0103  1.7173  1.1888
 2636TIP3   OH229322   2.289   3.685   4.884  0.3044  0.0598 -0.2492
 2636TIP3    H129323   2.323   3.678   4.794 -0.8360 -0.4785 -0.6612
 2636TIP3    H229324   2.234   3.607   4.895  0.0144  0.3906  0.7362
 2637TIP3   OH229325   2.664   6.448  11.970  0.0895 -0.0856 -0.2243
 2637TIP3    H129326   2.578   6.450  11.928 -0.6128  0.2301  1.1768
 2637TIP3    H229327   2.727   6.448  11.897 -0.9537  3.8621 -1.3870
 2638TIP3   OH229328   3.177   3.919  13.148 -0.2643 -0.3249  0.1785
 2638TIP3    H129329   3.099   3.863  13.152 -0.3089 -0.2508  0.3419
 2638TIP3    H229330   3.172   3.961  13.062 -1.4542  1.1949  0.9539
 2639TIP3   OH229331   4.349   3.437  12.493  0.2966  0.1188  0.9561
 2639TIP3    H129332   4.414   3.449  12.562 -0.5812  0.2185  1.7973
 2639TIP3    H229333   4.267   3.471  12.531 -0.1230  0.5811 -0.2957
 2640TIP3   OH229334   6.011   1.544   4.565 -0.8232 -0.5418  0.3980
 2640TIP3    H129335   6.083   1.482   4.565 -0.4305 -0.1368  2.3035
 2640TIP3    H229336   6.039   1.614   4.506 -0.1600 -0.9419  0.2357
 2641TIP3   OH229337   1.293   6.175   3.282 -0.9556 -0.5049 -0.4906
 2641TIP3    H129338   1.295   6.169   3.187  0.4087 -0.5053 -0.4804
 2641TIP3    H229339   1.364   6.236   3.304  0.2996 -2.2710  0.6439
 2642TIP3   OH229340   2.582   1.660   1.063 -0.4621 -0.6216  0.1065
 2642TIP3    H129341   2.571   1.752   1.088  1.4083 -0.1179 -0.7876
 2642TIP3    H229342   2.543   1.655   0.975 -0.2739 -0.5978  0.0208
 2643TIP3   OH229343   0.156   6.416  11.451  0.3077  0.7561 -0.1116
 2643TIP3    H129344   0.178   6.509  11.443  2.4492  0.2925 -0.1870
 2643TIP3    H229345   0.123   6.391  11.365 -1.1763  1.6304  0.1738
 2644TIP3   OH229346   0.625   4.967   1.159  0.6448  0.3600 -0.0529
 2644TIP3    H129347   0.683   4.923   1.098  1.1419  0.2747  0.4697
 2644TIP3    H229348   0.682   4.997   1.230 -0.1009 -0.8859  1.1318
 2645TIP3   OH229349   4.898   5.319   2.375  0.5726  0.1336  0.3170
 2645TIP3    H129350   4.943   5.387   2.426 -0.0253  1.8893 -1.3793
 2645TIP3    H229351   4.934   5.326   2.287 -2.1450  0.8932 -0.8510
 2646TIP3   OH229352   0.369   3.119  12.037  0.2874  0.0960 -0.4571
 2646TIP3    H129353   0.361   3.204  12.081  0.3485  0.5907 -1.3890
 2646TIP3    H229354   0.446   3.128  11.981  0.5388 -0.7204 -0.2656
 2647TIP3   OH229355   2.004   1.465   1.832  0.0659  0.0599 -0.3488
 2647TIP3    H129356   1.993   1.375   1.801  0.6254 -0.2761  0.3751
 2647TIP3    H229357   1.969   1.464   1.922  1.9620  0.0082  0.4463
 2648TIP3   OH229358   5.060   2.925   3.273 -0.0335  0.9744 -0.0023
 2648TIP3    H129359   5.034   2.863   3.341  1.0027  1.2106  0.6179
 2648TIP3    H229360   5.071   2.871   3.194  0.3804  0.4523  0.4129
 2649TIP3   OH229361   0.611   3.692  11.454 -0.6537 -0.0948 -0.0548
 2649TIP3    H129362   0.545   3.625  11.473  1.2460 -1.7361  1.2004
 2649TIP3    H229363   0.579   3.771  11.496 -1.9238 -0.7951  0.3396
 2650TIP3   OH229364   0.190   3.987  13.605  0.1388  0.0337  0.5054
 2650TIP3    H129365   0.280   3.974  13.575  0.0764  0.3627  0.1556
 2650TIP3    H229366   0.188   3.950  13.693 -0.1045 -2.5807 -0.4969
 2651TIP3   OH229367   4.543   3.346   0.567 -0.1343  0.5889  0.0426
 2651TIP3    H129368   4.504   3.264   0.537  0.5602 -0.1620  1.1375
 2651TIP3    H229369   4.545   3.401   0.488 -0.9716 -0.2900 -0.6211
 2652TIP3   OH229370   5.556   4.401   3.639 -0.3936  0.0490  0.1779
 2652TIP3    H129371   5.506   4.326   3.607 -1.0451 -0.1129  1.4742
 2652TIP3    H229372   5.562   4.460   3.564 -0.1553 -1.1448 -0.7653
 2653TIP3   OH229373   0.604   3.325  12.437 -0.3287  0.1397  0.4735
 2653TIP3    H129374   0.670   3.366  12.380 -1.2630  0.7619 -0.1990
 2653TIP3    H229375   0.645   3.322  12.523 -0.5642  3.5364  0.8366
 2654TIP3   OH229376   4.419   2.021  17.021  0.4700  0.4031  0.0918
 2654TIP3    H129377   4.380   2.082  16.957  2.1614  1.5397  0.0732
 2654TIP3    H229378   4.391   2.054  17.106 -0.7086 -0.3358  0.0097
 2655TIP3   OH229379   3.717   5.383  13.373  0.4041 -0.3447 -0.1202
 2655TIP3    H129380   3.777   5.354  13.442  0.3862 -2.2933 -0.8576
 2655TIP3    H229381   3.760   5.359  13.292 -1.0144 -1.0757 -0.6935
 2656TIP3   OH229382   5.557   5.599  13.843 -0.1449  0.1776  0.1917
 2656TIP3    H129383   5.627   5.552  13.889 -0.6516 -0.1696  0.6115
 2656TIP3    H229384   5.594   5.616  13.756  0.0926 -0.9011  0.0619
 2657TIP3   OH229385   3.959   0.350  15.338  0.4158 -0.0585 -1.2289
 2657TIP3    H129386   4.027   0.334  15.274  1.6270  2.1838 -0.6083
 2657TIP3    H229387   3.985   0.431  15.382 -1.8800  0.0851  0.0676
 2658TIP3   OH229388   2.770   3.091  12.117 -0.1679  0.1591  0.1997
 2658TIP3    H129389   2.839   3.026  12.126  0.4177  0.4367 -1.8137
 2658TIP3    H229390   2.770   3.138  12.200  0.8909 -0.9670  0.8636
 2659TIP3   OH229391   1.503   5.123  15.325 -0.1322  0.5151  0.2441
 2659TIP3    H129392   1.525   5.153  15.413  0.1509 -1.1548  0.7735
 2659TIP3    H229393   1.465   5.036  15.337 -0.8419  0.5907 -1.2195
 2660TIP3   OH229394   2.244   1.233  12.054  0.2106  0.3263  0.1911
 2660TIP3    H129395   2.333   1.251  12.023  0.2355  0.5126  0.3714
 2660TIP3    H229396   2.189   1.248  11.977  0.5392 -2.0081 -0.6066
 2661TIP3   OH229397   1.231   1.481   3.472  0.4238 -0.0348 -0.0361
 2661TIP3    H129398   1.143   1.515   3.484  0.1889 -0.4616 -0.4846
 2661TIP3    H229399   1.283   1.521   3.542  0.2461  1.4963 -0.7272
 2662TIP3   OH229400   4.425   2.461   4.556 -0.4436  0.1946  0.8416
 2662TIP3    H129401   4.460   2.476   4.644  0.0121 -0.9983  0.8850
 2662TIP3    H229402   4.501   2.469   4.499 -0.0436 -2.3420  0.9290
 2663TIP3   OH229403   6.414   3.624   0.677 -0.1595  0.1861 -0.0327
 2663TIP3    H129404   6.426   3.712   0.642  0.3189 -0.0319 -0.4297
 2663TIP3    H229405   6.499   3.581   0.664 -0.3059 -0.2438  0.4057
 2664TIP3   OH229406   3.985   2.956  14.867 -0.1763  0.1827 -0.4697
 2664TIP3    H129407   3.957   3.027  14.924 -3.4090  0.6161 -2.3498
 2664TIP3    H229408   4.051   2.995  14.809 -0.2817  1.0053 -0.0366
 2665TIP3   OH229409   0.422   5.154   2.695  0.0810 -0.0592 -0.0236
 2665TIP3    H129410   0.350   5.126   2.752 -0.0399 -2.6814 -1.3329
 2665TIP3    H229411   0.392   5.135   2.606  2.1843 -0.7447 -0.6377
 2666TIP3   OH229412   6.244   3.167   0.288 -0.3641  0.9073 -0.0216
 2666TIP3    H129413   6.180   3.196   0.354 -0.0753  0.6876  0.3596
 2666TIP3    H229414   6.190   3.136   0.215 -0.7253 -0.1282  0.6570
 2667TIP3   OH229415   1.950   5.598  16.228 -0.2634 -0.4847 -0.6391
 2667TIP3    H129416   2.030   5.559  16.262 -0.3038 -0.3528 -0.3950
 2667TIP3    H229417   1.959   5.591  16.133  0.6548  0.7874 -0.6593
 2668TIP3   OH229418   6.186   4.601  11.876  0.3437 -0.5109 -0.2680
 2668TIP3    H129419   6.225   4.532  11.822  0.1745 -2.3482  1.8339
 2668TIP3    H229420   6.253   4.668  11.882  0.4069 -0.2795 -2.6126
 2669TIP3   OH229421   0.704   3.271  15.169 -0.2935  0.4440 -0.2112
 2669TIP3    H129422   0.763   3.206  15.131  0.7669  0.4093  1.4110
 2669TIP3    H229423   0.620   3.255  15.126  0.1833 -1.3723 -0.5345
 2670TIP3   OH229424   0.445   1.683  14.262  0.2450 -0.4987 -0.2552
 2670TIP3    H129425   0.469   1.639  14.344 -0.0094 -0.5687 -0.2192
 2670TIP3    H229426   0.518   1.664  14.203  1.2164  0.8908  0.4363
 2671TIP3   OH229427   1.687   5.473  13.306 -0.1934 -0.1715  0.7373
 2671TIP3    H129428   1.735   5.546  13.345  0.9958  0.1306 -1.1766
 2671TIP3    H229429   1.748   5.399  13.309 -0.0825 -0.1487 -0.4677
 2672TIP3   OH229430   0.316   5.508   2.005  0.0689  0.1967 -0.4326
 2672TIP3    H129431   0.289   5.429   1.959 -0.7856  0.9406 -1.2596
 2672TIP3    H229432   0.265   5.507   2.086  1.3713 -0.9771  0.4011
 2673TIP3   OH229433   1.519   5.564  10.936 -0.5107  0.4555 -0.1209
 2673TIP3    H129434   1.442   5.618  10.957 -0.9695  0.0738 -0.7711
 2673TIP3    H229435   1.542   5.589  10.846 -1.1537 -0.8970 -0.6917
 2674TIP3   OH229436   0.891   4.216  12.982 -0.3147 -0.7459 -0.7089
 2674TIP3    H129437   0.890   4.306  12.949  2.4356 -0.2616  0.2392
 2674TIP3    H229438   0.834   4.217  13.058 -0.2911  0.2065 -0.6975
 2675TIP3   OH229439   1.384   2.541   1.502  0.2384  0.6640  0.5760
 2675TIP3    H129440   1.458   2.549   1.443  0.5328  0.2287  0.8822
 2675TIP3    H229441   1.393   2.614   1.563  0.7837  0.2262  1.0201
 2676TIP3   OH229442   1.623   1.977  13.449  0.1862 -0.5066  0.1456
 2676TIP3    H129443   1.564   1.963  13.523 -1.4702  1.6459 -0.6496
 2676TIP3    H229444   1.694   2.031  13.484  1.3214 -2.3662  0.8936
 2677TIP3   OH229445   0.999   6.630  14.068 -0.0689 -0.0923 -0.3862
 2677TIP3    H129446   1.060   6.689  14.023 -0.2964 -1.4306 -2.5704
 2677TIP3    H229447   0.913   6.653  14.032 -0.3759 -0.6531 -0.0192
 2678TIP3   OH229448   2.066   2.696  11.742 -0.0782  0.0854  0.0821
 2678TIP3    H129449   2.024   2.611  11.751 -1.9990  1.0628  0.9556
 2678TIP3    H229450   2.120   2.688  11.664 -0.7648 -1.6941 -0.2642
 2679TIP3   OH229451   0.833   5.859  10.880 -0.2884  0.6446  0.1460
 2679TIP3    H129452   0.923   5.825  10.882 -0.0386  1.3151  0.9246
 2679TIP3    H229453   0.786   5.806  10.944 -0.4672  0.2604 -0.2978
 2680TIP3   OH229454   6.594   4.609   5.018 -0.3335 -0.5342  0.1824
 2680TIP3    H129455   6.506   4.627   5.052 -0.2783 -1.6743  0.9642
 2680TIP3    H229456   6.652   4.620   5.093  0.0177 -1.2505  0.0217
 2681TIP3   OH229457   4.797   5.317  13.564  0.1454  0.0583 -0.3321
 2681TIP3    H129458   4.739   5.358  13.500  0.8723  1.4592 -0.1468
 2681TIP3    H229459   4.823   5.235  13.524 -0.2968  0.3929 -1.3444
 2682TIP3   OH229460   0.758   2.796  11.216 -0.7827 -0.7514 -0.1017
 2682TIP3    H129461   0.702   2.844  11.278  0.0692 -0.4714  0.4605
 2682TIP3    H229462   0.767   2.709  11.255 -0.0180 -0.4897  0.3203
 2683TIP3   OH229463   0.041   4.962   0.150 -0.1618  0.1640 -0.3206
 2683TIP3    H129464   0.074   4.880   0.187  0.4489  0.3633 -0.4179
 2683TIP3    H229465   0.062   5.028   0.216  0.7344  0.4864 -0.9093
 2684TIP3   OH229466   1.872   2.337   3.373  0.1172 -0.2366  0.2234
 2684TIP3    H129467   1.964   2.313   3.371 -0.2068 -1.5945 -1.8249
 2684TIP3    H229468   1.855   2.374   3.286 -1.2839 -0.1434  0.5103
 2685TIP3   OH229469   1.614   3.123   4.837  0.3156 -0.0858 -0.1020
 2685TIP3    H129470   1.624   3.123   4.932 -0.3765 -2.8240  0.0261
 2685TIP3    H229471   1.525   3.155   4.822  0.2342 -0.1732  0.1958
 2686TIP3   OH229472   5.459   2.535   4.963 -0.5430 -0.5250 -0.0700
 2686TIP3    H129473   5.521   2.598   4.999  0.0524 -0.5125 -1.0671
 2686TIP3    H229474   5.390   2.528   5.029 -0.3725  0.7909  0.2715
 2687TIP3   OH229475   4.376   2.201   3.426  0.0018 -0.1273 -0.2264
 2687TIP3    H129476   4.345   2.255   3.353 -0.5416 -0.9875 -0.6490
 2687TIP3    H229477   4.380   2.262   3.500  1.2201  0.9256 -1.1079
 2688TIP3   OH229478   5.154   3.141  11.295 -0.1885  0.2056 -0.1019
 2688TIP3    H129479   5.118   3.227  11.318  0.7533  0.7057 -0.4107
 2688TIP3    H229480   5.234   3.162  11.246 -0.5748 -0.8370 -1.2335
 2689TIP3   OH229481   6.125   6.215   3.226 -0.2284  0.0106  0.3221
 2689TIP3    H129482   6.150   6.145   3.166 -0.5836  0.4341 -0.3300
 2689TIP3    H229483   6.200   6.223   3.285 -0.2256 -0.9864  0.4804
 2690TIP3   OH229484   4.311   1.623   4.027  0.2099  0.1588  0.2703
 2690TIP3    H129485   4.348   1.640   4.114  0.0275  0.0416  0.3731
 2690TIP3    H229486   4.386   1.608   3.971  0.5482  3.2966 -0.2867
 2691TIP3   OH229487   1.291   5.737   3.590 -0.3600 -0.0970 -0.6423
 2691TIP3    H129488   1.198   5.729   3.614 -0.2333  0.1488 -0.0418
 2691TIP3    H229489   1.338   5.709   3.669  0.0781  2.2144 -0.0049
 2692TIP3   OH229490   4.158   6.613   5.184  0.3422 -0.3069  0.0395
 2692TIP3    H129491   4.225   6.569   5.132 -0.2541 -0.7343 -0.3716
 2692TIP3    H229492   4.090   6.547   5.197 -1.2473  0.8739 -1.7863
 2693TIP3   OH229493   3.590   1.315  11.308 -0.0547  0.6720  0.0143
 2693TIP3    H129494   3.615   1.405  11.330 -1.9579  1.4661 -0.7848
 2693TIP3    H229495   3.505   1.303  11.351 -0.0484 -0.5766 -0.2828
 2694TIP3   OH229496   4.444   1.645  16.306  0.6908 -0.5276 -0.2991
 2694TIP3    H129497   4.496   1.641  16.386 -1.9800  0.5550  1.6212
 2694TIP3    H229498   4.498   1.696  16.245  2.4999 -0.7634  1.0270
 2695TIP3   OH229499   3.780   6.650  15.686 -0.0221  0.7468 -0.1440
 2695TIP3    H129500   3.685   6.644  15.699 -0.2306  0.7745 -1.4766
 2695TIP3    H229501   3.798   6.586  15.616  0.8389  1.1928 -0.3361
 2696TIP3   OH229502   5.962   2.329  15.314  0.2391 -0.6588 -0.1497
 2696TIP3    H129503   5.875   2.338  15.275  0.1841 -0.6078 -0.0188
 2696TIP3    H229504   6.018   2.297  15.243  0.1928 -0.3397 -0.3278
 2697TIP3   OH229505   5.499   5.050   0.913  0.4833  0.2655 -0.2371
 2697TIP3    H129506   5.411   5.030   0.945  0.4373  2.4438  1.2266
 2697TIP3    H229507   5.549   4.969   0.927 -0.4503  0.0190  2.1626
 2698TIP3   OH229508   5.677   3.786   2.583 -0.1321  0.0463  0.1840
 2698TIP3    H129509   5.706   3.732   2.657 -1.6253  0.1633  0.8947
 2698TIP3    H229510   5.608   3.734   2.541  0.0611  0.3845 -0.5667
 2699TIP3   OH229511   4.381   6.351   3.781  0.2031  0.0810  0.5475
 2699TIP3    H129512   4.295   6.317   3.755  0.0706  0.3425  0.6412
 2699TIP3    H229513   4.417   6.282   3.837 -0.3819  0.4060  1.3450
 2700TIP3   OH229514   1.114   6.203  12.714 -0.1333 -0.2770 -0.2396
 2700TIP3    H129515   1.168   6.127  12.692 -1.0017 -1.5432  1.7260
 2700TIP3    H229516   1.168   6.255  12.772  0.1020  0.1210 -0.8052
 2701TIP3   OH229517   0.829   4.654  14.016 -0.0076  0.1916  0.3400
 2701TIP3    H129518   0.822   4.714  14.090 -0.1365  0.3350  0.2122
 2701TIP3    H229519   0.780   4.576  14.043  0.3461  0.0568  0.5934
 2702TIP3   OH229520   2.297   4.527   3.205 -0.2515  0.0666 -0.0802
 2702TIP3    H129521   2.342   4.479   3.274  0.5089 -1.1027 -1.3427
 2702TIP3    H229522   2.367   4.562   3.150 -0.7712  2.6043  0.7123
 2703TIP3   OH229523   0.126   4.992  14.048 -0.2138 -0.4991  0.3689
 2703TIP3    H129524   0.182   5.069  14.048 -1.3701  0.4033  1.7313
 2703TIP3    H229525   0.109   4.974  13.956 -0.0149  0.9579  0.0201
 2704TIP3   OH229526   3.608   3.916  13.230 -0.5342 -0.2638 -0.2154
 2704TIP3    H129527   3.570   4.004  13.223  0.0780 -0.0989 -2.0412
 2704TIP3    H229528   3.638   3.910  13.321 -0.6941  1.3624 -0.0198
 2705TIP3   OH229529   0.066   0.744   3.236  0.4023  0.5186 -0.9216
 2705TIP3    H129530   0.158   0.741   3.261  0.6422 -0.1658 -1.8105
 2705TIP3    H229531   0.037   0.653   3.238 -0.0877  0.6602 -1.2298
 2706TIP3   OH229532   2.109   3.811  11.778  0.0572  0.3790  0.6515
 2706TIP3    H129533   2.116   3.902  11.749 -1.1127  0.8367  1.7435
 2706TIP3    H229534   2.137   3.812  11.869  1.5942 -0.6633  0.2337
 2707TIP3   OH229535   6.214   3.793  15.655  0.5879 -0.2313  0.1577
 2707TIP3    H129536   6.251   3.873  15.692  0.4562  0.3001 -0.8066
 2707TIP3    H229537   6.119   3.809  15.653  0.5481 -0.4649  0.0752
 2708TIP3   OH229538   6.568   1.185  11.805 -0.6378  0.1057 -0.7629
 2708TIP3    H129539   6.490   1.197  11.858  0.1746  1.0709  0.2648
 2708TIP3    H229540   6.635   1.240  11.847  0.9199 -1.5495 -0.9319
 2709TIP3   OH229541   2.587   1.775  12.448 -0.2870 -0.2988 -0.5628
 2709TIP3    H129542   2.671   1.798  12.407 -0.5451  0.1903 -0.8203
 2709TIP3    H229543   2.523   1.831  12.405 -0.3300  1.5880  1.7408
 2710TIP3   OH229544   3.801   5.292  15.194 -0.0956  0.1399 -0.0133
 2710TIP3    H129545   3.796   5.332  15.107  4.3278 -0.2227 -0.7013
 2710TIP3    H229546   3.820   5.366  15.252  0.1948  0.0170  0.0517
 2711TIP3   OH229547   0.139   5.767   0.787 -0.2064 -0.4660 -0.0682
 2711TIP3    H129548   0.227   5.796   0.810 -0.5368  0.8604 -0.4072
 2711TIP3    H229549   0.080   5.820   0.841 -0.8250 -0.9312 -0.2608
 2712TIP3   OH229550   2.482   0.433   6.042  0.6304  0.7993  0.6604
 2712TIP3    H129551   2.414   0.500   6.036  1.1189  1.2730  0.1838
 2712TIP3    H229552   2.518   0.443   6.130  0.8722  1.3521  0.5069
 2713TIP3   OH229553   2.657   5.565   2.344 -0.2714 -0.0793  0.1673
 2713TIP3    H129554   2.580   5.619   2.362  0.6155  1.4212 -0.3911
 2713TIP3    H229555   2.697   5.605   2.267  2.2673  0.5163  1.6951
 2714TIP3   OH229556   2.326   2.564  15.454  0.3440  0.2871  0.0022
 2714TIP3    H129557   2.259   2.579  15.520 -0.3187  1.8643 -0.9764
 2714TIP3    H229558   2.408   2.557  15.504 -0.2721  0.4143  1.0589
 2715TIP3   OH229559   3.068   0.811  17.181 -0.2858  0.9690 -0.3779
 2715TIP3    H129560   3.046   0.888  17.235 -3.5995  0.8488 -1.3511
 2715TIP3    H229561   3.123   0.846  17.111  1.0223  1.7893  0.9912
 2716TIP3   OH229562   3.482   6.804  12.250  0.0770  0.2676  0.5644
 2716TIP3    H129563   3.499   6.722  12.202  1.4555  1.3890 -0.9832
 2716TIP3    H229564   3.415   6.780  12.314 -0.1743 -1.8769 -0.3822
 2717TIP3   OH229565   6.641   3.368  15.993  0.2486  0.4358 -0.0168
 2717TIP3    H129566   6.717   3.426  15.994 -0.3074  1.2032  1.9743
 2717TIP3    H229567   6.659   3.304  16.061 -0.5934  0.2191  0.0116
 2718TIP3   OH229568   0.389   4.585   1.066 -0.4001  0.5000  0.9245
 2718TIP3    H129569   0.415   4.640   0.992  0.3349  0.0207  0.8188
 2718TIP3    H229570   0.470   4.571   1.115 -0.4503 -0.9608  0.6419
 2719TIP3   OH229571   6.709   1.354   4.731 -0.2878  0.3547  0.5642
 2719TIP3    H129572   6.801   1.342   4.706 -0.6809  2.1373 -2.3135
 2719TIP3    H229573   6.710   1.430   4.789  0.0904  0.3416  0.5760
 2720TIP3   OH229574   0.312   0.959  14.425  0.2569  0.3467  0.2508
 2720TIP3    H129575   0.278   0.877  14.461 -0.2160 -0.7202 -2.4149
 2720TIP3    H229576   0.399   0.968  14.462 -0.8726  0.3986  3.1200
 2721TIP3   OH229577   6.363   2.556   0.020  0.1219  0.5719  0.1594
 2721TIP3    H129578   6.347   2.530  -0.071  0.2629  2.0750 -0.3323
 2721TIP3    H229579   6.453   2.591   0.019 -0.0909  1.1425  0.7442
 2722TIP3   OH229580   1.394   1.855  13.174  0.3373  0.6564 -0.4334
 2722TIP3    H129581   1.341   1.908  13.114  0.1443 -0.6867 -1.5029
 2722TIP3    H229582   1.473   1.835  13.124  0.7768  0.6216  0.2630
 2723TIP3   OH229583   2.654   2.150  10.914 -0.6315 -0.1473  0.3795
 2723TIP3    H129584   2.728   2.175  10.859 -0.1958 -1.3154  0.4083
 2723TIP3    H229585   2.688   2.154  11.004 -0.4618 -1.1005  0.3667
 2724TIP3   OH229586   4.128   4.000  13.910 -0.0628 -0.5136  0.0149
 2724TIP3    H129587   4.066   3.932  13.935 -1.0277  0.7076  1.0842
 2724TIP3    H229588   4.147   4.045  13.992  1.7624 -0.4521 -0.4061
 2725TIP3   OH229589   2.421   2.989  10.967 -0.2635  0.2203  0.3644
 2725TIP3    H129590   2.454   3.079  10.966  2.5887 -0.7121  0.9686
 2725TIP3    H229591   2.454   2.952  11.048  0.5896 -2.0239 -0.9158
 2726TIP3   OH229592   5.283   1.832  13.742 -0.6377 -0.3505 -0.6110
 2726TIP3    H129593   5.273   1.769  13.671 -1.3642 -1.3460  0.3606
 2726TIP3    H229594   5.206   1.819  13.798 -0.1701  0.5378  0.2753
 2727TIP3   OH229595   0.671   4.579   6.071 -0.5642  0.1348 -0.1505
 2727TIP3    H129596   0.746   4.632   6.098 -0.6875  0.4165 -0.3537
 2727TIP3    H229597   0.703   4.527   5.998 -0.1823 -0.7501  0.6250
 2728TIP3   OH229598   6.177   3.615  10.785  1.0288 -0.0503  0.0797
 2728TIP3    H129599   6.266   3.639  10.809  1.4765  0.3676 -1.8383
 2728TIP3    H229600   6.187   3.555  10.711 -0.2748 -0.3571  0.1265
 2729TIP3   OH229601   5.266   3.103   2.935  0.1435 -0.4901 -0.2753
 2729TIP3    H129602   5.209   3.164   2.889  0.4222  0.1410  0.2097
 2729TIP3    H229603   5.325   3.071   2.867 -2.3670 -3.1849 -1.4195
 2730TIP3   OH229604   1.533   6.747   0.574 -0.0204  1.1113  0.3775
 2730TIP3    H129605   1.489   6.691   0.510 -0.0343  0.8779  0.5909
 2730TIP3    H229606   1.626   6.736   0.556  0.0184  0.3151  1.0010
 2731TIP3   OH229607   3.982   6.428   2.494  0.2612 -0.2989  0.3041
 2731TIP3    H129608   3.976   6.443   2.589 -0.8545  2.6072 -0.1111
 2731TIP3    H229609   4.075   6.439   2.474  0.2051  1.5853  0.8162
 2732TIP3   OH229610   5.727   3.939   2.345 -0.5438  0.3652  0.1288
 2732TIP3    H129611   5.739   3.898   2.430  1.2860 -1.5288 -0.9356
 2732TIP3    H229612   5.633   3.955   2.338 -1.2883 -2.8394  1.0549
 2733TIP3   OH229613   6.122   2.190   3.754 -0.1845 -0.0888 -0.2132
 2733TIP3    H129614   6.107   2.100   3.782 -2.5861  0.0871 -0.6792
 2733TIP3    H229615   6.172   2.182   3.673 -1.4962 -1.1287 -0.9725
 2734TIP3   OH229616   5.557   6.710  16.247  0.8406  0.2089  0.8230
 2734TIP3    H129617   5.609   6.631  16.253  0.6225  0.0976  1.2749
 2734TIP3    H229618   5.620   6.782  16.251  1.0740  0.0601  0.0232
 2735TIP3   OH229619   1.847   6.555   4.794  0.1571  0.3614 -0.2828
 2735TIP3    H129620   1.927   6.604   4.775  0.1430  0.5034  0.0084
 2735TIP3    H229621   1.873   6.463   4.791  0.3767  0.4116 -0.0131
 2736TIP3   OH229622   2.027   5.609   1.311 -0.0418  0.5539  0.3896
 2736TIP3    H129623   1.962   5.677   1.328 -0.3466  0.6725 -1.0824
 2736TIP3    H229624   2.097   5.655   1.265 -1.0838 -0.3898 -2.3307
 2737TIP3   OH229625   2.526   3.629   2.200  0.2783  0.2381 -0.5001
 2737TIP3    H129626   2.472   3.609   2.124 -0.1567  0.5736 -0.2875
 2737TIP3    H229627   2.509   3.558   2.262  1.4326 -0.5975 -1.1124
 2738TIP3   OH229628   4.855   2.757  15.713  0.3610 -0.4557 -0.5556
 2738TIP3    H129629   4.822   2.680  15.758 -1.3717  1.1220  1.0793
 2738TIP3    H229630   4.914   2.799  15.776 -1.0072  1.0512 -0.2170
 2739TIP3   OH229631   0.161   1.616   4.166  0.5248  0.0265 -0.0381
 2739TIP3    H129632   0.238   1.600   4.222 -0.6027 -0.9151  1.3104
 2739TIP3    H229633   0.183   1.572   4.083  0.5528 -2.2988  1.1110
 2740TIP3   OH229634   4.174   6.654  15.843  0.1864 -0.2487 -1.0465
 2740TIP3    H129635   4.123   6.725  15.881  0.4435 -1.9368  2.9856
 2740TIP3    H229636   4.112   6.581  15.835  0.9025 -0.9311 -0.5488
 2741TIP3   OH229637   0.083   6.461   0.626 -0.2648 -0.5085  0.3925
 2741TIP3    H129638   0.130   6.377   0.633 -1.0414 -1.2185 -2.0655
 2741TIP3    H229639   0.151   6.525   0.606  0.0208 -1.0080 -0.2623
 2742TIP3   OH229640   0.320   2.888   1.138  0.7413 -0.6336 -0.2959
 2742TIP3    H129641   0.414   2.873   1.134  0.6950 -0.7433 -1.0682
 2742TIP3    H229642   0.309   2.982   1.122  0.7983 -0.3638  1.1207
 2743TIP3   OH229643   2.490   6.525   3.527 -0.5559  0.0824  0.0490
 2743TIP3    H129644   2.461   6.551   3.440 -0.7404  0.0612  0.1023
 2743TIP3    H229645   2.577   6.563   3.536  0.1279 -1.2351 -0.7519
 2744TIP3   OH229646   4.962   6.616  13.611  0.1949 -0.1173  0.4271
 2744TIP3    H129647   4.964   6.629  13.516  2.8614  2.4075  0.7036
 2744TIP3    H229648   4.897   6.679  13.643  0.0881 -0.2042  0.3832
 2745TIP3   OH229649   0.325   5.167  15.450 -0.4231 -0.7448 -0.6207
 2745TIP3    H129650   0.331   5.111  15.528  1.7184  1.5040  0.9646
 2745TIP3    H229651   0.323   5.256  15.484 -1.0276  0.2843 -3.1322
 2746TIP3   OH229652   1.189   0.388  14.112  0.1597  0.4427  0.4262
 2746TIP3    H129653   1.173   0.324  14.181 -0.4504 -0.3241 -0.4095
 2746TIP3    H229654   1.102   0.414  14.082  0.2874 -2.1547 -2.6977
 2747TIP3   OH229655   5.723   0.951  12.025 -0.0691  0.0330  0.0266
 2747TIP3    H129656   5.800   0.951  11.967 -0.3385  1.4908 -0.3907
 2747TIP3    H229657   5.650   0.974  11.967 -0.6528 -0.3388  0.6073
 2748TIP3   OH229658   2.240   5.669   1.729  0.1574  0.0292  0.5347
 2748TIP3    H129659   2.288   5.693   1.809 -0.4058 -1.0976  1.2404
 2748TIP3    H229660   2.150   5.653   1.759 -0.1365 -0.1043 -0.3851
 2749TIP3   OH229661   0.142   3.416  16.558  0.1432 -0.2842 -0.2907
 2749TIP3    H129662   0.063   3.469  16.543 -0.0103 -0.4322  0.0030
 2749TIP3    H229663   0.189   3.462  16.627  1.1086  0.6788 -1.5493
 2750TIP3   OH229664   1.014   6.446  15.450  0.0376  0.2703 -0.0345
 2750TIP3    H129665   1.010   6.455  15.546  0.1862  0.7407 -0.0675
 2750TIP3    H229666   0.922   6.450  15.422  0.0737  1.8845 -0.0434
 2751TIP3   OH229667   2.580   3.459  16.303  0.5541 -0.0615 -0.9123
 2751TIP3    H129668   2.644   3.425  16.365  1.2930 -1.7182 -2.4870
 2751TIP3    H229669   2.500   3.409  16.320  1.0547 -1.2573 -1.8990
 2752TIP3   OH229670   1.341   5.835   2.667 -0.1227 -0.6619 -0.1448
 2752TIP3    H129671   1.281   5.794   2.729 -0.5289 -0.9374 -0.7125
 2752TIP3    H229672   1.367   5.764   2.608 -2.9639  0.3516 -2.8341
 2753TIP3   OH229673   0.146   3.830  13.833  0.0662 -0.0236 -0.4803
 2753TIP3    H129674   0.074   3.799  13.777 -1.9727  1.8757  0.9113
 2753TIP3    H229675   0.138   3.779  13.913 -3.3236  3.5421  1.8335
 2754TIP3   OH229676   0.945   4.894  11.743  0.1270 -0.0000 -0.0976
 2754TIP3    H129677   0.861   4.882  11.698 -0.1114  2.6446 -0.5088
 2754TIP3    H229678   1.010   4.892  11.673 -0.0900  2.4038 -0.4733
 2755TIP3   OH229679   2.396   2.271   2.276 -0.4076  0.1112 -0.1573
 2755TIP3    H129680   2.468   2.319   2.317 -1.0878  1.3185 -0.3201
 2755TIP3    H229681   2.348   2.338   2.226 -0.4227 -1.0525 -1.7907
 2756TIP3   OH229682   4.684   0.573  11.928 -0.3731  0.7478 -0.2164
 2756TIP3    H129683   4.595   0.556  11.899 -0.4690 -1.2148  1.0835
 2756TIP3    H229684   4.675   0.606  12.017  0.1839  1.5370 -0.4313
 2757TIP3   OH229685   3.912   1.851  15.512  0.8697 -0.3030 -0.1303
 2757TIP3    H129686   4.001   1.828  15.540  0.9088  0.5639  0.5036
 2757TIP3    H229687   3.858   1.777  15.540  1.0019  0.2753  1.7750
 2758TIP3   OH229688   5.562   4.767   3.673  0.1647  0.3852 -0.2861
 2758TIP3    H129689   5.530   4.689   3.720  0.6714  0.1973 -0.2443
 2758TIP3    H229690   5.517   4.840   3.715 -1.0832  0.0444 -0.9800
 2759TIP3   OH229691   4.139   0.091  13.677 -0.5384 -0.5892  0.1342
 2759TIP3    H129692   4.049   0.107  13.646  0.6141  1.9885 -2.3501
 2759TIP3    H229693   4.141   0.127  13.765 -1.8709 -0.3872  0.1021
 2760TIP3   OH229694   2.816   0.980   5.803 -0.0279  0.6763 -0.9273
 2760TIP3    H129695   2.869   1.020   5.734 -0.0578  0.9001 -0.8230
 2760TIP3    H229696   2.871   0.912   5.840  0.5560  1.5435 -0.1752
 2761TIP3   OH229697   3.312   5.055   1.941  0.1729 -0.3000  0.3725
 2761TIP3    H129698   3.311   4.987   2.009  0.3290 -1.5323 -0.8256
 2761TIP3    H229699   3.341   5.010   1.862  0.8640  1.3098 -0.3305
 2762TIP3   OH229700   2.553   1.295  12.051 -0.1599  0.1554  0.2319
 2762TIP3    H129701   2.591   1.255  11.972  0.1748 -0.6204  0.7712
 2762TIP3    H229702   2.590   1.383  12.053 -0.0061  0.1116 -0.3713
 2763TIP3   OH229703   5.338   4.111  13.288  0.4605  0.3494  0.1542
 2763TIP3    H129704   5.294   4.195  13.275  2.2797  1.9703  3.1603
 2763TIP3    H229705   5.283   4.064  13.351  0.3286  0.0237 -0.1985
 2764TIP3   OH229706   2.338   0.172   6.082 -0.0190 -0.2394 -0.0530
 2764TIP3    H129707   2.354   0.094   6.028 -0.4830  0.4257 -1.1860
 2764TIP3    H229708   2.380   0.243   6.034 -1.1089  0.5024  0.0627
 2765TIP3   OH229709   5.266   6.377  11.103  0.6208 -0.7533  0.4088
 2765TIP3    H129710   5.279   6.293  11.058 -0.8473 -0.3368 -0.8944
 2765TIP3    H229711   5.171   6.386  11.109  0.5398  2.1705 -2.3579
 2766TIP3   OH229712   5.008   4.783  11.697  0.0404 -0.5636 -0.6610
 2766TIP3    H129713   5.028   4.727  11.771 -1.4901 -1.8781 -1.1881
 2766TIP3    H229714   5.088   4.834  11.683  0.0689  0.4726  2.4726
 2767TIP3   OH229715   3.262   6.163  16.657  0.3097  0.3483  0.0537
 2767TIP3    H129716   3.257   6.157  16.562 -1.8601  1.5853  0.0157
 2767TIP3    H229717   3.207   6.091  16.689  1.5681 -0.4764  0.4146
 2768TIP3   OH229718   5.176   4.559   3.654  0.0638  0.2812 -0.2844
 2768TIP3    H129719   5.196   4.534   3.745  0.1194 -0.2719 -0.4437
 2768TIP3    H229720   5.165   4.475   3.609 -2.9672  0.4973 -0.1536
 2769TIP3   OH229721   5.616   4.041   4.121 -0.0276  0.1379 -0.2833
 2769TIP3    H129722   5.655   4.123   4.151  1.6929 -0.9320  0.5669
 2769TIP3    H229723   5.635   4.038   4.027  0.1270  0.5848 -0.2678
 2770TIP3   OH229724   4.069   5.565   1.529 -0.7135  0.5670 -0.2060
 2770TIP3    H129725   4.059   5.630   1.599 -0.1754  0.7492 -0.2958
 2770TIP3    H229726   3.985   5.520   1.527 -0.2558 -0.4734  1.5697
 2771TIP3   OH229727   1.607   5.066  16.210  0.2095 -0.3456 -0.2275
 2771TIP3    H129728   1.556   4.996  16.251 -0.1679 -0.1100 -0.2870
 2771TIP3    H229729   1.595   5.052  16.116 -2.2555  1.4756 -0.2684
 2772TIP3   OH229730   6.086   4.416   4.408  0.0833 -0.4524  0.1721
 2772TIP3    H129731   6.009   4.458   4.371 -0.4724 -1.5256  0.0932
 2772TIP3    H229732   6.063   4.398   4.499 -0.2158 -1.8340 -0.1565
 2773TIP3   OH229733   5.777   3.930   4.766  0.0500 -0.2153  0.2752
 2773TIP3    H129734   5.696   3.932   4.714 -0.5902 -1.1863  1.1987
 2773TIP3    H229735   5.770   4.008   4.822  0.2207  0.2290 -0.3112
 2774TIP3   OH229736   4.917   6.396   2.033 -0.4067  0.8073  0.5321
 2774TIP3    H129737   4.857   6.328   2.004 -0.0330  0.6845  0.0390
 2774TIP3    H229738   4.928   6.381   2.127 -0.5200  0.3432  0.4692
 2775TIP3   OH229739   4.032   0.455   0.866 -0.5789 -0.0604  0.7861
 2775TIP3    H129740   4.078   0.372   0.857  0.5116  0.7003 -1.7172
 2775TIP3    H229741   3.995   0.453   0.954  0.2763 -2.7280  1.1762
 2776TIP3   OH229742   3.883   0.100  16.034  0.4971  0.1664 -0.1966
 2776TIP3    H129743   3.962   0.135  16.074  0.1559 -0.3401  0.9753
 2776TIP3    H229744   3.838   0.055  16.106 -0.7157  0.2123 -0.9037
 2777TIP3   OH229745   2.752   2.584   3.674 -0.5008  0.5228  0.5595
 2777TIP3    H129746   2.750   2.488   3.679  0.9082  0.4984  1.2062
 2777TIP3    H229747   2.748   2.612   3.766 -1.0199  1.0901  0.3661
 2778TIP3   OH229748   5.358   5.112  10.530  0.2743  0.1480  0.6891
 2778TIP3    H129749   5.299   5.186  10.539  1.2135  1.2726 -1.5498
 2778TIP3    H229750   5.315   5.040  10.576 -1.8416  1.4448  0.8357
 2779TIP3   OH229751   0.376   2.626  12.277  0.2665  0.0041 -0.2268
 2779TIP3    H129752   0.355   2.706  12.325  0.2521  0.3723 -0.8397
 2779TIP3    H229753   0.387   2.655  12.187 -1.3500 -0.9254 -0.7606
 2780TIP3   OH229754   1.383   3.152  16.499 -0.3948  0.1989 -0.2739
 2780TIP3    H129755   1.450   3.164  16.566  0.7225 -3.0439 -0.6254
 2780TIP3    H229756   1.322   3.089  16.537  0.1716 -1.6001 -2.1028
 2781TIP3   OH229757   5.564   6.402   0.331  0.0852  0.1176  0.3170
 2781TIP3    H129758   5.502   6.356   0.274  0.1195  0.6240 -0.1333
 2781TIP3    H229759   5.570   6.346   0.409  0.0043 -0.5578 -0.1510
 2782TIP3   OH229760   3.246   4.477  13.541  0.3621  0.2351  0.4957
 2782TIP3    H129761   3.223   4.545  13.604 -0.2625  0.8842 -0.4273
 2782TIP3    H229762   3.214   4.396  13.581  1.6983  0.3395  1.9171
 2783TIP3   OH229763   5.429   5.229   4.380  0.4864  0.0121 -0.5516
 2783TIP3    H129764   5.522   5.237   4.361  0.8348  0.8453  1.2458
 2783TIP3    H229765   5.385   5.256   4.300  1.7677 -1.2471 -1.7239
 2784TIP3   OH229766   3.088   0.994  16.274  0.2026  0.0702  0.5167
 2784TIP3    H129767   3.150   0.942  16.222  0.7389  1.1377  0.0644
 2784TIP3    H229768   3.121   1.084  16.269 -1.8950  0.8543 -0.5414
 2785TIP3   OH229769   2.434   2.865  12.959 -0.1606  0.0614 -0.0294
 2785TIP3    H129770   2.421   2.787  12.905 -2.0326  0.4404 -0.1917
 2785TIP3    H229771   2.509   2.843  13.015 -0.8142 -1.9524  0.1203
 2786TIP3   OH229772   6.392   6.192  16.666 -0.3993 -0.0285  0.9710
 2786TIP3    H129773   6.400   6.184  16.571  0.0643 -0.9605  1.0831
 2786TIP3    H229774   6.481   6.208  16.696 -0.5157  0.0584  1.2737
 2787TIP3   OH229775   1.887   5.772   1.618  0.3441  0.3493 -0.5617
 2787TIP3    H129776   1.824   5.798   1.552 -0.7910 -0.2468  0.2560
 2787TIP3    H229777   1.870   5.831   1.692  0.4903 -0.0501 -0.2018
 2788TIP3   OH229778   4.780   2.967  15.987 -0.1304 -0.4978  0.0121
 2788TIP3    H129779   4.777   2.985  16.081 -2.2741  0.9216 -0.2396
 2788TIP3    H229780   4.864   2.925  15.973  1.0888  0.9526  2.2796
 2789TIP3   OH229781   2.675   2.255   1.142 -0.3533 -0.3349 -0.1563
 2789TIP3    H129782   2.687   2.303   1.223  1.1220  1.2384 -1.2273
 2789TIP3    H229783   2.596   2.202   1.156  0.3471 -0.7954  2.5743
 2790TIP3   OH229784   3.788   5.332  11.290 -0.2627 -0.5446  0.0345
 2790TIP3    H129785   3.754   5.313  11.202  0.1922 -0.2062 -0.2170
 2790TIP3    H229786   3.863   5.389  11.275  0.0878 -0.8456  0.6241
 2791TIP3   OH229787   6.569   0.247   2.480 -0.6977 -0.4746  0.1629
 2791TIP3    H129788   6.501   0.280   2.539 -1.2616 -0.5340 -0.4389
 2791TIP3    H229789   6.536   0.161   2.451  0.0699 -0.9228  0.5837
 2792TIP3   OH229790   6.454   3.415  11.623 -0.3499 -0.4920 -0.1231
 2792TIP3    H129791   6.486   3.422  11.713  0.7542  2.0142 -0.6237
 2792TIP3    H229792   6.464   3.504  11.587 -0.5859 -1.4479 -2.7697
 2793TIP3   OH229793   2.479   4.174   3.865  0.2973  0.1023  0.2945
 2793TIP3    H129794   2.458   4.087   3.830 -1.5373  0.4691  0.4251
 2793TIP3    H229795   2.525   4.155   3.947 -1.1019 -0.7844  0.9088
 2794TIP3   OH229796   4.732   3.123   2.924  0.3838 -0.1316 -0.0397
 2794TIP3    H129797   4.693   3.111   3.011 -0.5637  1.0540 -0.2808
 2794TIP3    H229798   4.679   3.068   2.866  0.1908  0.1032 -0.0842
 2795TIP3   OH229799   1.389   1.942  15.960  0.1162 -0.1264  0.2517
 2795TIP3    H129800   1.322   1.880  15.930  1.6238 -1.2949 -0.8715
 2795TIP3    H229801   1.466   1.887  15.976  1.4399  1.4253 -0.5464
 2796TIP3   OH229802   0.582   4.724  13.712 -0.3460 -0.0880  0.1141
 2796TIP3    H129803   0.525   4.743  13.637 -0.7878 -0.6847  0.2904
 2796TIP3    H229804   0.639   4.654  13.681  0.0262  0.2409  0.0634
 2797TIP3   OH229805   3.667   3.793   1.010  0.0651 -0.1054  0.4428
 2797TIP3    H129806   3.757   3.821   0.998  0.2727 -1.4376 -1.5957
 2797TIP3    H229807   3.673   3.712   1.061  0.0127 -0.1595  0.3628
 2798TIP3   OH229808   1.832   0.202   0.388 -0.4701 -0.1284  0.2649
 2798TIP3    H129809   1.883   0.237   0.315 -3.4083  0.8569 -1.4907
 2798TIP3    H229810   1.834   0.272   0.454  0.7123 -0.2767  0.4119
 2799TIP3   OH229811   4.451   1.059   1.141  0.3632 -0.0781  0.1748
 2799TIP3    H129812   4.521   1.022   1.195  1.0162 -0.5763 -0.9721
 2799TIP3    H229813   4.485   1.055   1.051 -0.9178  0.1742 -0.3504
 2800TIP3   OH229814   6.325   1.129   2.555 -0.3790 -0.2466  0.4663
 2800TIP3    H129815   6.292   1.047   2.591 -0.3030  0.1649  1.5097
 2800TIP3    H229816   6.414   1.109   2.525 -0.5864 -0.6875  0.1296
 2801TIP3   OH229817   4.528   6.385   4.445 -0.8742 -0.4716  0.4355
 2801TIP3    H129818   4.571   6.468   4.422 -1.1652 -0.3484  0.3379
 2801TIP3    H229819   4.599   6.332   4.482 -0.9860  0.4064  2.0321
 2802TIP3   OH229820   1.653   5.053  13.719 -0.0384  0.3952 -0.2265
 2802TIP3    H129821   1.656   5.108  13.640 -0.4397  0.4301 -0.2205
 2802TIP3    H229822   1.581   4.992  13.702  0.7466 -0.4823 -0.4601
 2803TIP3   OH229823   4.056   3.713  11.361  0.2050  0.0678  0.0542
 2803TIP3    H129824   4.013   3.642  11.409  0.7531  1.2080  2.4043
 2803TIP3    H229825   4.146   3.714  11.395  0.2801  1.6933 -0.1330
 2804TIP3   OH229826   5.293   4.847   3.992  0.4727 -0.3879 -0.1906
 2804TIP3    H129827   5.336   4.886   3.916 -1.1487 -0.6002 -1.2579
 2804TIP3    H229828   5.222   4.907   4.013 -0.0008 -1.0873  0.2372
 2805TIP3   OH229829   5.804   2.544  12.120  0.3171  0.1060 -0.2948
 2805TIP3    H129830   5.852   2.569  12.199 -0.5282  1.9531 -0.3255
 2805TIP3    H229831   5.793   2.449  12.128  0.9326  0.1442  1.4087
 2806TIP3   OH229832   1.862   4.630  10.957  0.7025 -0.0707 -0.1687
 2806TIP3    H129833   1.863   4.622  10.861 -2.3406 -0.6256 -0.2611
 2806TIP3    H229834   1.884   4.542  10.988  2.2217  0.2381 -0.3000
 2807TIP3   OH229835   5.533   2.052   3.225 -0.0265 -0.6165  0.1960
 2807TIP3    H129836   5.442   2.045   3.255  0.2798 -1.1583  1.0441
 2807TIP3    H229837   5.558   1.962   3.204  0.2835 -0.4557 -0.1346
 2808TIP3   OH229838   5.763   3.300   3.141  0.0297 -0.8374  0.5056
 2808TIP3    H129839   5.802   3.381   3.173  0.8393 -0.4958 -1.2331
 2808TIP3    H229840   5.669   3.310   3.156  0.1607  0.2672  0.6176
 2809TIP3   OH229841   5.553   0.804  11.351  0.2020 -0.0250 -0.0490
 2809TIP3    H129842   5.554   0.709  11.363 -1.1720 -0.3496 -2.0237
 2809TIP3    H229843   5.645   0.828  11.344  0.5909 -1.1226  0.8932
 2810TIP3   OH229844   5.365   6.500  16.893  0.4515 -0.1870 -0.3139
 2810TIP3    H129845   5.319   6.573  16.852 -0.6466  0.4874  1.9791
 2810TIP3    H229846   5.371   6.434  16.823  0.3517  1.5692 -2.0688
 2811TIP3   OH229847   3.037   1.901  13.861 -0.2927 -0.2861  0.0955
 2811TIP3    H129848   3.018   1.923  13.952 -0.9384  0.3635 -0.1870
 2811TIP3    H229849   3.059   1.985  13.820  0.2331 -0.6072 -0.2973
 2812TIP3   OH229850   4.257   1.127  16.345  0.0190  0.7452  0.7810
 2812TIP3    H129851   4.337   1.144  16.395 -0.1247  3.3488  0.2288
 2812TIP3    H229852   4.244   1.206  16.292 -2.8233  0.3102  0.6989
 2813TIP3   OH229853   4.736   6.800   3.281  0.1601 -0.1696  0.0582
 2813TIP3    H129854   4.706   6.871   3.338  1.5911 -0.3298  1.0763
 2813TIP3    H229855   4.746   6.840   3.195 -1.4910  0.2177 -0.0004
 2814TIP3   OH229856   0.329   3.565   0.056 -0.0962  0.2162 -0.0101
 2814TIP3    H129857   0.270   3.491   0.073  1.5474 -1.2444 -0.4428
 2814TIP3    H229858   0.394   3.560   0.126  1.1064  0.0722 -1.0898
 2815TIP3   OH229859   4.814   0.388  16.820  0.4080 -0.2596  0.0632
 2815TIP3    H129860   4.791   0.372  16.729 -1.5589  0.4584  0.3629
 2815TIP3    H229861   4.804   0.303  16.863 -1.1273 -0.1254  0.0292
 2816TIP3   OH229862   4.124   3.434  10.938  0.6512 -0.6397 -0.6585
 2816TIP3    H129863   4.202   3.435  10.882  0.8235  1.2338 -0.4540
 2816TIP3    H229864   4.051   3.419  10.878  1.0503 -1.0578 -1.0450
 2817TIP3   OH229865   5.434   0.812   6.201 -0.1228 -0.1004  0.5393
 2817TIP3    H129866   5.410   0.803   6.293  0.1897 -1.1428  0.5374
 2817TIP3    H229867   5.520   0.769   6.194 -0.6752 -1.1168 -0.4466
 2818TIP3   OH229868   5.440   2.203   5.464 -0.1224 -0.2596  0.4763
 2818TIP3    H129869   5.484   2.204   5.379  1.1306  0.7992  1.1051
 2818TIP3    H229870   5.512   2.200   5.527 -1.0277 -0.4488  1.5193
 2819TIP3   OH229871   6.794   1.777  16.278 -0.0694  0.0165 -0.4212
 2819TIP3    H129872   6.847   1.701  16.254 -1.4307 -0.3508 -2.5340
 2819TIP3    H229873   6.851   1.829  16.335  2.0349 -1.0066 -1.4911
 2820TIP3   OH229874   6.201   3.080  16.092 -0.2175  0.4775 -0.2115
 2820TIP3    H129875   6.231   3.010  16.034  0.6612  1.0607 -0.4832
 2820TIP3    H229876   6.265   3.151  16.079 -1.8233  1.8436 -0.9595
 2821TIP3   OH229877   0.358   6.482  14.652 -0.2405 -0.1378  1.2241
 2821TIP3    H129878   0.387   6.524  14.733 -0.6616 -1.5044  2.1195
 2821TIP3    H229879   0.430   6.423  14.628 -0.3244 -0.0982  0.8676
 2822TIP3   OH229880   3.413   0.642  11.698 -0.2643  0.2518 -0.1576
 2822TIP3    H129881   3.385   0.732  11.682  1.8679  1.3748  1.7887
 2822TIP3    H229882   3.424   0.637  11.793  4.0953 -0.5151 -0.4752
 2823TIP3   OH229883   4.420   4.181  11.620 -0.1935 -0.1671 -0.2633
 2823TIP3    H129884   4.467   4.262  11.600  2.1409 -1.4868 -0.5090
 2823TIP3    H229885   4.411   4.181  11.715 -0.3290  0.4158 -0.2706
 2824TIP3   OH229886   1.475   3.262  11.993 -0.5185  0.3013  0.4465
 2824TIP3    H129887   1.488   3.247  12.087 -0.9434 -0.4024  0.4026
 2824TIP3    H229888   1.386   3.230  11.976 -0.1851 -0.2636 -0.3293
 2825TIP3   OH229889   2.838   2.110   1.401 -0.8756 -0.1615  0.2627
 2825TIP3    H129890   2.796   2.117   1.315  0.0704  0.5957 -0.1563
 2825TIP3    H229891   2.906   2.044   1.389 -0.6914  0.0014  0.4095
 2826TIP3   OH229892   3.029   3.928   4.079 -0.1860 -0.0371 -0.5500
 2826TIP3    H129893   2.972   4.003   4.095  0.4718  0.5250 -0.7937
 2826TIP3    H229894   3.020   3.874   4.158 -0.1137  0.6603 -0.0597
 2827TIP3   OH229895   5.238   4.371   0.968  0.3806 -0.8066  0.1916
 2827TIP3    H129896   5.150   4.348   0.939  0.4392 -1.9197  0.8372
 2827TIP3    H229897   5.240   4.346   1.061  0.5085  1.7198  0.9465
 2828TIP3   OH229898   3.020   6.289  15.748  0.1325 -0.1248 -0.6393
 2828TIP3    H129899   3.027   6.370  15.800 -1.0026  0.1841 -0.9471
 2828TIP3    H229900   2.976   6.227  15.806  1.7365 -0.8160 -0.1043
 2829TIP3   OH229901   1.252   3.391   4.378  0.0641  0.3956 -0.8269
 2829TIP3    H129902   1.264   3.422   4.288 -0.7866 -0.0045 -1.0800
 2829TIP3    H229903   1.162   3.359   4.381 -0.0770  0.8507  0.3028
 2830TIP3   OH229904   1.551   6.012  13.000 -0.4450  0.7509  0.3900
 2830TIP3    H129905   1.527   6.096  13.039 -2.2636  0.4769 -0.0462
 2830TIP3    H229906   1.469   5.962  12.998  0.7328 -1.3555  1.3556
 2831TIP3   OH229907   5.591   1.925  14.118 -0.3500 -0.0446 -0.1619
 2831TIP3    H129908   5.658   1.857  14.131  1.0507  1.3582  0.1819
 2831TIP3    H229909   5.519   1.898  14.176  0.6000 -0.7089  0.7594
 2832TIP3   OH229910   1.838   2.274   1.736 -0.3983  0.4241  0.4743
 2832TIP3    H129911   1.840   2.231   1.821 -0.6200  2.1187  1.3807
 2832TIP3    H229912   1.768   2.229   1.688 -1.0029  0.1464  1.5850
 2833TIP3   OH229913   5.396   0.481  10.520 -0.5957  0.0813  0.2591
 2833TIP3    H129914   5.443   0.549  10.472  0.4398  0.2091  1.3841
 2833TIP3    H229915   5.439   0.400  10.494 -2.0049 -0.2240 -1.2882
 2834TIP3   OH229916   1.258   1.514   1.202  0.3619 -0.1889 -0.5689
 2834TIP3    H129917   1.263   1.466   1.284 -3.3619  1.7869  1.0742
 2834TIP3    H229918   1.256   1.446   1.134 -1.9847 -2.2911  1.4136
 2835TIP3   OH229919   4.363   3.581  13.157  0.0830 -0.9753  0.6430
 2835TIP3    H129920   4.447   3.592  13.202  1.0518 -0.9864 -1.0853
 2835TIP3    H229921   4.333   3.671  13.142  0.3127 -0.9475  0.3352
 2836TIP3   OH229922   4.340   4.791  11.845  0.5428 -0.5397 -0.0145
 2836TIP3    H129923   4.322   4.859  11.909  0.0358  0.2354 -0.9511
 2836TIP3    H229924   4.396   4.832  11.780 -0.9594 -0.5163 -1.3822
 2837TIP3   OH229925   5.037   1.183  12.254  0.5095 -0.3981  0.2939
 2837TIP3    H129926   5.068   1.094  12.238 -0.5805 -1.0011  1.3350
 2837TIP3    H229927   4.942   1.178  12.241  0.2797  0.3273  1.5330
 2838TIP3   OH229928   3.449   4.576   5.329  0.3036 -0.4908  0.0968
 2838TIP3    H129929   3.370   4.545   5.284 -2.0786  0.9661  2.8627
 2838TIP3    H229930   3.493   4.497   5.359 -0.3055 -1.3451 -1.2000
 2839TIP3   OH229931   1.735   3.159  14.613 -0.1954 -0.0182  0.3510
 2839TIP3    H129932   1.680   3.081  14.622  0.6925 -0.6015  0.7937
 2839TIP3    H229933   1.738   3.196  14.701  0.5861 -0.3146  0.4554
 2840TIP3   OH229934   4.604   6.497  15.995 -0.5650 -0.3427 -0.0421
 2840TIP3    H129935   4.684   6.475  15.948  1.3298  1.5412  2.0246
 2840TIP3    H229936   4.568   6.413  16.023  1.1480 -1.2129 -0.3131
 2841TIP3   OH229937   4.890   4.099   2.392 -0.0300 -0.5290  0.0720
 2841TIP3    H129938   4.840   4.031   2.436  0.0613 -0.4924  0.2307
 2841TIP3    H229939   4.970   4.055   2.362 -0.4634 -0.7541 -0.7867
 2842TIP3   OH229940   3.429   5.425  12.054  0.5343 -0.1972 -0.5541
 2842TIP3    H129941   3.499   5.474  12.013 -0.7424  0.7550 -1.6816
 2842TIP3    H229942   3.427   5.342  12.008  0.6420 -0.0615 -0.8026
 2843TIP3   OH229943   3.160   2.724   5.154  0.2561 -0.6249 -0.3703
 2843TIP3    H129944   3.171   2.815   5.126 -0.4751 -0.2020  0.6555
 2843TIP3    H229945   3.227   2.675   5.105  0.9810  0.5328 -0.5680
 2844TIP3   OH229946   1.636   3.613   2.226  0.5132 -0.0600 -0.3718
 2844TIP3    H129947   1.584   3.537   2.253  2.1593 -1.0204  0.2626
 2844TIP3    H229948   1.727   3.582   2.227  1.5997  2.6728  2.7169
 2845TIP3   OH229949   6.533   0.663   3.035  0.2102 -0.2156 -0.2312
 2845TIP3    H129950   6.569   0.739   3.080 -1.6420  0.1839  0.6736
 2845TIP3    H229951   6.520   0.598   3.104 -0.9035 -0.2830 -0.4837
 2846TIP3   OH229952   4.978   6.527   1.790 -0.3162 -0.0006 -0.5582
 2846TIP3    H129953   4.888   6.542   1.759 -0.6150 -2.0479 -0.8109
 2846TIP3    H229954   4.967   6.472   1.867  0.7658 -1.2626 -1.2822
 2847TIP3   OH229955   2.412   1.781   0.821  0.7336 -0.3719  0.0207
 2847TIP3    H129956   2.365   1.787   0.738  1.0309 -1.0348 -0.1974
 2847TIP3    H229957   2.482   1.846   0.813 -0.4394  1.0163  0.5629
 2848TIP3   OH229958   0.753   5.173  15.550 -0.1771 -0.0453 -0.0471
 2848TIP3    H129959   0.729   5.081  15.554 -0.7041 -0.1169 -2.9525
 2848TIP3    H229960   0.846   5.173  15.526 -0.4379  0.1296 -1.1164
 2849TIP3   OH229961   2.880   0.857  12.023  0.1412  0.3495  0.2163
 2849TIP3    H129962   2.825   0.808  12.085 -0.3156 -1.7709 -1.7401
 2849TIP3    H229963   2.880   0.946  12.057 -2.8421 -0.0015  1.4554
 2850TIP3   OH229964   4.153   1.427  16.851 -0.0472  0.0609  0.0178
 2850TIP3    H129965   4.190   1.344  16.819 -1.0194 -1.4420  2.4523
 2850TIP3    H229966   4.061   1.406  16.866 -0.4844  1.8569 -0.0175
 2851TIP3   OH229967   0.402   1.696   0.335 -0.3583 -0.3950 -0.4128
 2851TIP3    H129968   0.346   1.770   0.316  2.0735  2.2474  1.8464
 2851TIP3    H229969   0.477   1.707   0.276 -0.0203 -1.1273 -0.1360
 2852TIP3   OH229970   1.759   2.770   4.925  0.2427  0.1120 -0.5716
 2852TIP3    H129971   1.779   2.745   4.835  1.1614  1.2264 -0.6932
 2852TIP3    H229972   1.754   2.687   4.973  0.4772 -0.4472 -1.4977
 2853TIP3   OH229973   2.038   1.275   0.142 -0.0554  0.0383  0.2295
 2853TIP3    H129974   2.095   1.202   0.163  0.1345  0.4041  1.0156
 2853TIP3    H229975   1.950   1.237   0.136 -0.2601  0.0291  2.5395
 2854TIP3   OH229976   0.589   3.098  14.660  0.2969  0.4232  0.4980
 2854TIP3    H129977   0.631   3.161  14.602 -0.3849  1.7406  1.3613
 2854TIP3    H229978   0.515   3.147  14.698 -1.3440 -1.4368 -0.1222
 2855TIP3   OH229979   3.472   6.046  13.523  0.4904 -0.1334  0.2748
 2855TIP3    H129980   3.537   6.013  13.585 -0.5290  0.0458  1.4786
 2855TIP3    H229981   3.405   6.086  13.578  0.1237  1.0932 -1.0063
 2856TIP3   OH229982   5.784   4.039  14.977  0.5569 -0.1036 -0.2685
 2856TIP3    H129983   5.743   4.005  14.897  0.6999  1.8273 -1.2204
 2856TIP3    H229984   5.717   4.096  15.016  0.7048 -0.5657  0.7008
 2857TIP3   OH229985   5.009   4.927   6.071  0.5626 -0.0721 -0.3148
 2857TIP3    H129986   5.074   4.869   6.111  0.4229  0.2327  0.3794
 2857TIP3    H229987   4.932   4.919   6.127  0.7920  1.3597  0.2665
 2858TIP3   OH229988   1.727   0.988  13.833  0.0487 -0.8065  0.2866
 2858TIP3    H129989   1.750   1.078  13.814 -1.4529 -0.6157 -0.8733
 2858TIP3    H229990   1.753   0.939  13.754 -1.5451 -0.8974 -0.2237
 2859TIP3   OH229991   4.150   2.124   4.850  0.0153 -0.0472 -0.5707
 2859TIP3    H129992   4.170   2.217   4.849 -1.0143  0.1888 -0.9394
 2859TIP3    H229993   4.128   2.104   4.758 -3.6087  0.2694  0.0604
 2860TIP3   OH229994   1.552   5.855  15.471  1.0057 -0.0331  0.1031
 2860TIP3    H129995   1.476   5.800  15.486 -0.7016  1.8182 -1.1550
 2860TIP3    H229996   1.568   5.848  15.377  1.6418  0.5063  0.1649
 2861TIP3   OH229997   2.420   0.212  17.243 -0.6799  0.2874 -0.3485
 2861TIP3    H129998   2.474   0.151  17.193  0.6871  2.3482 -1.5355
 2861TIP3    H229999   2.455   0.208  17.332  0.7329  0.7916 -0.8585
 2862TIP3   OH230000   2.590   1.788  13.210 -0.4313  0.0530  0.0922
 2862TIP3    H130001   2.589   1.792  13.306 -0.2853 -1.5479  0.1906
 2862TIP3    H230002   2.535   1.712  13.189 -0.4570  0.3879 -1.1007
 2863TIP3   OH230003   5.874   3.446  16.230  0.0877 -0.0743  0.3819
 2863TIP3    H130004   5.932   3.431  16.305 -0.0682  1.0252  0.7349
 2863TIP3    H230005   5.878   3.540  16.215 -2.1540  0.1409  0.8670
 2864TIP3   OH230006   4.015   1.929   6.674  0.5129  0.1532  0.4508
 2864TIP3    H130007   4.073   1.927   6.598 -1.9256  3.7024 -1.8309
 2864TIP3    H230008   3.927   1.934   6.636 -0.9818  0.2572  3.5933
 2865TIP3   OH230009   2.697   5.430  16.713  0.1617 -0.1289  0.1799
 2865TIP3    H130010   2.673   5.391  16.797  0.8449  0.9391  0.8939
 2865TIP3    H230011   2.613   5.454  16.673 -0.1675 -0.6683  0.5393
 2866TIP3   OH230012   6.092   2.630  14.822 -0.4264 -0.1651 -1.0463
 2866TIP3    H130013   6.170   2.603  14.870 -2.0048 -0.4056  1.6183
 2866TIP3    H230014   6.113   2.615  14.730  1.5636 -3.1208 -0.2418
 2867TIP3   OH230015   1.707   5.491   1.412 -0.2241 -0.0865  0.2089
 2867TIP3    H130016   1.751   5.410   1.436  0.6141  0.0774 -0.7041
 2867TIP3    H230017   1.712   5.493   1.316  0.8421  1.6147  0.2632
 2868TIP3   OH230018   1.763   1.827   5.708  0.4100  0.1547 -0.3628
 2868TIP3    H130019   1.822   1.875   5.649 -0.0419  0.4467 -0.5821
 2868TIP3    H230020   1.753   1.741   5.666  1.7900 -0.4082  0.3962
 2869TIP3   OH230021   4.664   2.722   0.621 -0.4275 -0.0744 -0.0920
 2869TIP3    H130022   4.573   2.750   0.626 -0.0121  1.7783 -1.6804
 2869TIP3    H230023   4.703   2.753   0.702 -0.6162  1.7209 -0.6335
 2870TIP3   OH230024   6.351   4.010   5.265 -0.3629  0.0149 -0.4537
 2870TIP3    H130025   6.325   3.921   5.243  0.1844  0.0924 -1.4442
 2870TIP3    H230026   6.391   4.045   5.185 -0.0729  0.9600  0.0822
 2871TIP3   OH230027   5.632   6.811   0.060 -0.3546 -0.3128 -0.4715
 2871TIP3    H130028   5.606   6.757   0.134  0.2531  1.7968  1.4034
 2871TIP3    H230029   5.727   6.803   0.056 -0.1991  1.0156  0.1963
 2872TIP3   OH230030   2.657   2.508   4.865 -0.0947 -0.5534 -0.0327
 2872TIP3    H130031   2.656   2.603   4.874 -0.6028 -0.5011 -0.5525
 2872TIP3    H230032   2.750   2.485   4.863  0.0869  0.1670 -2.0279
 2873TIP3   OH230033   2.562   1.517   0.012 -0.7121 -0.1199  0.2711
 2873TIP3    H130034   2.496   1.459  -0.025 -0.6931 -1.0601  1.6113
 2873TIP3    H230035   2.512   1.587   0.053 -0.8611 -0.4028  0.5823
 2874TIP3   OH230036   1.455   3.612  11.234 -0.0463  0.3852  0.3369
 2874TIP3    H130037   1.374   3.615  11.182 -1.8906  2.6451  3.0573
 2874TIP3    H230038   1.465   3.519  11.256 -0.1225 -0.4009 -2.4851
 2875TIP3   OH230039   1.145   2.850   1.050 -0.2888 -0.2886 -0.1621
 2875TIP3    H130040   1.213   2.791   1.019  1.2265  1.2702  0.0088
 2875TIP3    H230041   1.138   2.917   0.982  1.0163  1.5748  1.3836
 2876TIP3   OH230042   0.480   0.919  16.952  0.1080  0.7329  0.3270
 2876TIP3    H130043   0.501   0.837  16.907 -3.2547  0.0147 -0.2397
 2876TIP3    H230044   0.451   0.891  17.039  3.4710  1.8596  1.9897
 2877TIP3   OH230045   3.634   5.253   0.645  0.1117 -1.3398 -0.3156
 2877TIP3    H130046   3.634   5.321   0.713  0.3949 -0.9152 -0.7261
 2877TIP3    H230047   3.725   5.221   0.643  0.4922 -0.2779 -1.5153
 2878TIP3   OH230048   2.583   5.223  12.371  0.1828  0.4001  0.7404
 2878TIP3    H130049   2.628   5.159  12.426  1.6843  0.3335 -0.5081
 2878TIP3    H230050   2.523   5.171  12.318 -0.0306  0.2715  1.0995
 2879TIP3   OH230051   2.201   5.468  14.738  0.9094 -0.4495 -0.4550
 2879TIP3    H130052   2.252   5.423  14.671  0.3565 -0.1228 -1.1098
 2879TIP3    H230053   2.110   5.444  14.719  0.6333  0.6392 -0.5967
 2880TIP3   OH230054   2.609   3.381  11.016  0.4360  0.4583 -0.0082
 2880TIP3    H130055   2.554   3.458  11.001 -0.7791 -0.0223  1.6933
 2880TIP3    H230056   2.593   3.325  10.940 -0.5413  0.8537 -0.1091
 2881TIP3   OH230057   6.036   6.005   4.748  0.0128  0.4437 -0.4325
 2881TIP3    H130058   6.101   5.941   4.777 -1.9143 -1.1716  0.5415
 2881TIP3    H230059   6.070   6.089   4.779  2.9443  0.1199 -2.2936
 2882TIP3   OH230060   3.030   3.455  11.350 -0.1392  0.0255 -0.0415
 2882TIP3    H130061   2.967   3.419  11.287  0.6761  0.4996 -1.1680
 2882TIP3    H230062   2.996   3.543  11.369  0.7308  0.7334 -1.5364
 2883TIP3   OH230063   4.953   4.320   5.596  0.0334 -0.3313  0.1000
 2883TIP3    H130064   5.032   4.274   5.568  0.2044 -0.4508  0.7715
 2883TIP3    H230065   4.985   4.392   5.650 -0.3789 -1.3945  1.8251
 2884TIP3   OH230066   6.109   4.755   0.219  0.7005 -0.4116 -0.0185
 2884TIP3    H130067   6.180   4.705   0.178 -1.2338 -2.8158 -0.7101
 2884TIP3    H230068   6.070   4.693   0.281 -1.0642  0.6806  0.0197
 2885TIP3   OH230069   4.199   5.517  16.920  0.0739 -0.6172  0.1130
 2885TIP3    H130070   4.140   5.453  16.960 -0.9350  0.5096  0.4901
 2885TIP3    H230071   4.150   5.599  16.922  1.5632  0.3039  0.1852
 2886TIP3   OH230072   6.066   5.280   6.356  0.7279  0.0165 -0.2187
 2886TIP3    H130073   6.159   5.268   6.335  1.0417  0.7536  0.6576
 2886TIP3    H230074   6.045   5.367   6.324  0.7033  0.3768  0.7295
 2887TIP3   OH230075   0.097   4.285   4.133  0.4484 -0.0719 -0.4275
 2887TIP3    H130076   0.185   4.257   4.157  0.9127  0.1492 -1.7888
 2887TIP3    H230077   0.092   4.271   4.038 -0.1133  2.1946 -0.7909
 2888TIP3   OH230078   2.735   1.045  15.173  0.0337 -0.5332  0.2250
 2888TIP3    H130079   2.719   1.041  15.267  2.3822  0.9620  0.7714
 2888TIP3    H230080   2.790   0.969  15.155  1.2893  0.2633  0.5200
 2889TIP3   OH230081   0.905   0.879  13.800  0.2300 -0.3191 -0.1061
 2889TIP3    H130082   0.817   0.862  13.835  0.6325  0.9840  1.6725
 2889TIP3    H230083   0.962   0.825  13.853  0.7526  0.8431  0.5405
 2890TIP3   OH230084   2.526   0.353   3.720 -0.4211 -0.6969  0.7279
 2890TIP3    H130085   2.601   0.372   3.663 -2.6708  0.0493 -2.2654
 2890TIP3    H230086   2.482   0.438   3.730 -2.4235 -1.5467 -0.1579
 2891TIP3   OH230087   5.735   5.500  11.720  0.0437 -0.4127  0.1980
 2891TIP3    H130088   5.772   5.570  11.666 -0.5566 -2.5906 -3.2635
 2891TIP3    H230089   5.777   5.420  11.689 -3.7301 -2.3696 -0.4114
 2892TIP3   OH230090   6.353   4.443  11.751 -0.5802 -0.8236 -0.1548
 2892TIP3    H130091   6.365   4.369  11.810 -0.1254  0.4417  1.4283
 2892TIP3    H230092   6.422   4.433  11.685 -0.0761 -1.4352  0.4471
 2893TIP3   OH230093   6.021   3.584   3.432  0.1207 -0.1679 -0.4608
 2893TIP3    H130094   6.039   3.635   3.511  1.0298 -1.1122 -0.0315
 2893TIP3    H230095   6.008   3.649   3.363  0.2262  0.6516  0.2813
 2894TIP3   OH230096   4.366   4.413   0.810 -0.7128 -0.0558 -0.0793
 2894TIP3    H130097   4.300   4.450   0.869 -0.7083  2.1649 -1.3608
 2894TIP3    H230098   4.318   4.393   0.730  0.1304  1.7913 -1.1084
 2895TIP3   OH230099   3.928   3.160  15.030 -0.1251  0.0332 -0.1184
 2895TIP3    H130100   3.863   3.229  15.015 -2.2405 -1.5622  1.0164
 2895TIP3    H230101   3.893   3.111  15.104  2.0679 -1.3756  0.0680
 2896TIP3   OH230102   1.974   1.490  16.891 -0.0662  0.2418  0.2869
 2896TIP3    H130103   1.912   1.445  16.833  0.9357 -0.3358 -0.3614
 2896TIP3    H230104   2.059   1.450  16.871  0.3017 -0.0831  2.2633
 2897TIP3   OH230105   0.519   0.390  11.888 -0.1293 -0.4707  0.0086
 2897TIP3    H130106   0.527   0.399  11.793 -2.8867  1.6959 -0.1633
 2897TIP3    H230107   0.593   0.439  11.924  0.2874 -0.3045 -1.0586
 2898TIP3   OH230108   1.870   5.865  16.962  0.1868  0.4725 -0.4433
 2898TIP3    H130109   1.821   5.857  17.044  0.8298 -0.1345 -0.1141
 2898TIP3    H230110   1.804   5.848  16.894 -0.4424  1.3825 -0.0843
 2899TIP3   OH230111   0.097   3.710   2.895  0.0404  0.0709 -0.4154
 2899TIP3    H130112   0.175   3.748   2.936  1.7046 -4.4176  1.2827
 2899TIP3    H230113   0.131   3.665   2.818 -1.3978  0.2889 -1.1998
 2900TIP3   OH230114   3.180   2.560   4.606  0.3570 -0.2868 -0.3009
 2900TIP3    H130115   3.107   2.596   4.656 -0.8127 -1.2351 -1.2623
 2900TIP3    H230116   3.204   2.480   4.653  0.2553 -0.3841 -0.4128
 2901TIP3   OH230117   5.955   0.825  12.329 -0.0403 -0.3218  0.3639
 2901TIP3    H130118   5.992   0.749  12.285  0.5246  0.5775 -0.7886
 2901TIP3    H230119   5.980   0.815  12.421  2.6181 -0.0780 -0.2490
 2902TIP3   OH230120   4.421   6.656   4.676 -0.2671  0.2482  0.3075
 2902TIP3    H130121   4.410   6.731   4.617 -1.5906 -0.0844  0.1100
 2902TIP3    H230122   4.509   6.623   4.656  0.4363  1.8827  0.5654
 2903TIP3   OH230123   3.365   6.679   0.045  0.2005  0.3848 -0.1460
 2903TIP3    H130124   3.306   6.735  -0.006 -2.0531 -2.8797 -1.4316
 2903TIP3    H230125   3.346   6.701   0.136 -1.8247  0.6285 -0.5802
 2904TIP3   OH230126   5.790   2.369   1.355  0.7792 -0.1158  0.1709
 2904TIP3    H130127   5.700   2.402   1.359  1.5434  2.3875 -1.4185
 2904TIP3    H230128   5.841   2.433   1.406  2.0620  0.2235 -1.4708
 2905TIP3   OH230129   6.629   5.691  15.301 -0.2006 -0.0820 -0.1165
 2905TIP3    H130130   6.586   5.736  15.228 -1.5956  0.6540  1.1019
 2905TIP3    H230131   6.603   5.600  15.291 -0.8769  0.1176 -0.1960
 2906TIP3   OH230132   3.503   1.729   4.732  0.6912  0.7555  0.2888
 2906TIP3    H130133   3.416   1.764   4.750 -0.5027 -0.7153 -2.1560
 2906TIP3    H230134   3.522   1.674   4.808 -0.5435  1.0179  0.8201
 2907TIP3   OH230135   0.612   0.936  12.540 -0.1969 -0.9506 -0.1177
 2907TIP3    H130136   0.547   0.957  12.473 -0.8420 -0.7184  0.5707
 2907TIP3    H230137   0.661   0.863  12.504 -1.1386 -1.4283 -0.4549
 2908TIP3   OH230138   1.375   4.551  11.217 -0.1881 -0.3691  0.3477
 2908TIP3    H130139   1.340   4.564  11.129  0.7184  0.5757  0.1105
 2908TIP3    H230140   1.464   4.585  11.213  0.6433 -2.2926  1.0590
 2909TIP3   OH230141   4.678   3.394  16.700 -0.6081 -0.3081  0.0324
 2909TIP3    H130142   4.603   3.375  16.756  0.8818  1.1301  2.6897
 2909TIP3    H230143   4.745   3.333  16.729 -0.0515 -0.1017 -0.8041
 2910TIP3   OH230144   5.573   1.378   4.835 -0.5313 -0.2123 -0.2112
 2910TIP3    H130145   5.489   1.386   4.879 -0.5256  2.1878 -0.5467
 2910TIP3    H230146   5.552   1.346   4.747 -1.0766  0.2844 -0.2604
 2911TIP3   OH230147   3.955   3.609  15.486  0.4324  0.2144  0.1343
 2911TIP3    H130148   4.049   3.616  15.501  0.3818  0.4444  0.3489
 2911TIP3    H230149   3.915   3.647  15.564  0.1467 -1.9202  1.1140
 2912TIP3   OH230150   3.798   3.645  12.246 -0.3058  0.1960 -0.1052
 2912TIP3    H130151   3.779   3.702  12.172 -0.6067  0.6543  0.3154
 2912TIP3    H230152   3.720   3.589  12.253  0.7272 -1.5521 -1.6472
 2913TIP3   OH230153   3.084   2.288   0.939 -0.3091 -0.3309  0.4513
 2913TIP3    H130154   3.118   2.260   1.024  0.8165 -2.5655 -0.6479
 2913TIP3    H230155   2.993   2.256   0.938 -0.6083  0.4656  1.1182
 2914TIP3   OH230156   2.513   0.103   0.224  0.6364  0.0163  0.4465
 2914TIP3    H130157   2.529   0.010   0.234 -0.8647 -0.3508 -0.2914
 2914TIP3    H230158   2.442   0.122   0.286  0.2942  0.4600 -0.0721
 2915TIP3   OH230159   3.379   4.862   3.265  0.0805 -0.3157  0.1156
 2915TIP3    H130160   3.385   4.804   3.189 -1.0081  0.3961 -0.5421
 2915TIP3    H230161   3.460   4.847   3.313  0.3821 -1.4454 -0.7090
 2916TIP3   OH230162   2.962   3.859  13.850  0.4091  0.6244 -0.2677
 2916TIP3    H130163   3.047   3.819  13.870 -0.6954 -1.6911  0.0104
 2916TIP3    H230164   2.966   3.878  13.756  0.3732 -1.7786 -0.8118
 2917TIP3   OH230165   4.572   4.140   3.743 -0.2045 -0.2207  0.4977
 2917TIP3    H130166   4.515   4.191   3.801 -1.0960  1.9920 -2.1077
 2917TIP3    H230167   4.512   4.086   3.691  0.2939 -0.0259 -0.3049
 2918TIP3   OH230168   1.300   2.591  14.193  0.5451 -0.0693 -0.1072
 2918TIP3    H130169   1.311   2.646  14.270 -1.9206  1.1784 -0.5604
 2918TIP3    H230170   1.322   2.648  14.119  0.4136 -0.4709 -0.4634
 2919TIP3   OH230171   4.077   0.557  16.969  0.0448 -0.5393 -0.0345
 2919TIP3    H130172   4.026   0.618  17.023 -0.5088  0.7458 -1.9243
 2919TIP3    H230173   4.075   0.595  16.882  2.4674 -1.5969 -0.6193
 2920TIP3   OH230174   0.342   1.556  16.958  0.4625  0.1751 -0.1414
 2920TIP3    H130175   0.354   1.536  17.051  1.5536  0.7261 -0.1407
 2920TIP3    H230176   0.271   1.621  16.956  1.6723  1.5803  0.5149
 2921TIP3   OH230177   4.474   1.363   4.294  0.0718 -0.0261 -0.1587
 2921TIP3    H130178   4.514   1.277   4.307 -1.1116 -0.7000 -0.8076
 2921TIP3    H230179   4.449   1.365   4.202 -0.3137  0.8470 -0.0472
 2922TIP3   OH230180   6.483   1.893  11.874 -0.4632  0.1501 -0.8218
 2922TIP3    H130181   6.399   1.924  11.839 -1.1840  1.7943  2.0594
 2922TIP3    H230182   6.461   1.812  11.920 -0.3523  0.2722 -0.5544
 2923TIP3   OH230183   4.274   1.309   2.881  0.4886  0.1768 -0.7060
 2923TIP3    H130184   4.369   1.307   2.873  0.7592  0.0265  1.9487
 2923TIP3    H230185   4.245   1.229   2.836  1.8854 -1.3141  0.9276
 2924TIP3   OH230186   0.245   5.898  14.720  0.2364  0.6419  0.7125
 2924TIP3    H130187   0.227   5.846  14.642 -1.5629  0.1850  1.3818
 2924TIP3    H230188   0.243   5.834  14.792 -2.3904  1.5929  1.5939
 2925TIP3   OH230189   0.843   1.655  13.429  0.7559  0.5143  0.1119
 2925TIP3    H130190   0.897   1.692  13.359  1.6250  1.7577  1.3807
 2925TIP3    H230191   0.901   1.596  13.477 -0.5810 -2.6181 -1.8059
 2926TIP3   OH230192   5.804   1.533   1.275  0.3082  0.2725 -0.2247
 2926TIP3    H130193   5.857   1.500   1.203 -0.2398 -0.1008 -0.4625
 2926TIP3    H230194   5.867   1.565   1.340  0.8044  0.8196 -0.9628
 2927TIP3   OH230195   5.767   6.102  14.117  0.6966 -0.3767  0.3174
 2927TIP3    H130196   5.852   6.138  14.090  0.1018  0.5897 -0.3470
 2927TIP3    H230197   5.758   6.021  14.066  0.6720  0.1700 -0.5806
 2928TIP3   OH230198   6.295   2.182  12.225  0.0617 -0.3408  0.3754
 2928TIP3    H130199   6.239   2.171  12.302  1.0764  0.5283  1.2720
 2928TIP3    H230200   6.249   2.246  12.171 -0.3020 -0.3983  0.6092
 2929TIP3   OH230201   2.816   0.157   0.441  0.0595  0.0113 -0.0110
 2929TIP3    H130202   2.803   0.186   0.351  1.2999 -0.4400 -0.3528
 2929TIP3    H230203   2.765   0.076   0.448 -0.3841  0.2747 -0.1792
 2930TIP3   OH230204   0.686   2.126  16.880 -0.4446  0.1149 -0.1738
 2930TIP3    H130205   0.618   2.161  16.821 -0.4476 -0.4311 -0.5067
 2930TIP3    H230206   0.768   2.146  16.836 -0.4958 -2.8473 -1.9208
 2931TIP3   OH230207   1.487   4.730   3.996 -0.2533 -0.4117 -0.5059
 2931TIP3    H130208   1.514   4.704   3.908 -1.5980  0.9804 -1.3709
 2931TIP3    H230209   1.440   4.812   3.984  1.4093  1.0066  1.7731
 2932TIP3   OH230210   5.286   0.197   0.698 -0.8515 -0.1601  0.0830
 2932TIP3    H130211   5.353   0.264   0.694 -1.3378  0.3291 -0.0237
 2932TIP3    H230212   5.334   0.114   0.696 -0.2555  0.1821  0.1052
 2933TIP3   OH230213   1.332   2.837  15.145 -0.3483  0.1297 -0.1166
 2933TIP3    H130214   1.392   2.838  15.071  0.8219  0.4029  0.8097
 2933TIP3    H230215   1.358   2.913  15.198 -0.3676 -0.7307  1.1797
 2934TIP3   OH230216   2.953   4.597   2.360 -0.6339  0.3842  0.4366
 2934TIP3    H130217   2.918   4.684   2.375  1.4521  1.3755 -0.0904
 2934TIP3    H230218   3.034   4.612   2.311 -0.9511 -1.9302 -0.9458
 2935TIP3   OH230219   5.651   3.790   0.657 -0.2370 -0.4271  0.2545
 2935TIP3    H130220   5.631   3.784   0.563  1.0789 -0.4048 -0.0451
 2935TIP3    H230221   5.711   3.717   0.673 -1.0706 -0.9005  1.2604
 2936TIP3   OH230222   3.067   4.889   0.635  0.6515 -0.4573 -0.2026
 2936TIP3    H130223   2.984   4.889   0.682  0.2664 -0.0748 -0.8816
 2936TIP3    H230224   3.099   4.979   0.642 -0.5949  0.2545 -2.7265
 2937TIP3   OH230225   4.937   4.539  12.476  0.1632  0.2201  0.3571
 2937TIP3    H130226   4.926   4.606  12.409 -0.2860 -0.0087  0.1967
 2937TIP3    H230227   5.015   4.566  12.525  1.5905 -0.5507 -1.3793
 2938TIP3   OH230228   5.438   6.412  12.858  0.3637  0.2317  0.2265
 2938TIP3    H130229   5.400   6.493  12.824  1.0400  0.5267  0.1469
 2938TIP3    H230230   5.364   6.362  12.890 -0.2754  0.1330 -1.3020
 2939TIP3   OH230231   3.028   5.739  14.521 -0.5035 -0.3730  0.2828
 2939TIP3    H130232   2.992   5.779  14.442  1.4306 -0.4013 -0.6674
 2939TIP3    H230233   2.992   5.792  14.593  0.9093  2.3087 -0.8496
 2940TIP3   OH230234   0.009   6.062   2.389 -0.0728  0.4212 -0.0172
 2940TIP3    H130235  -0.085   6.076   2.395 -0.3902 -1.0739 -0.9712
 2940TIP3    H230236   0.034   6.098   2.303 -0.0195 -0.3397 -0.3274
 2941TIP3   OH230237   2.182   0.468  15.460 -0.1479 -0.0922  0.1133
 2941TIP3    H130238   2.148   0.403  15.521 -0.5341 -1.3241 -1.3301
 2941TIP3    H230239   2.145   0.551  15.489 -1.4130 -0.8460  0.7414
 2942TIP3   OH230240   6.098   5.900   0.139 -0.3351  0.0533 -0.1371
 2942TIP3    H130241   6.076   5.972   0.198  0.2896 -0.7035  1.0698
 2942TIP3    H230242   6.116   5.941   0.055 -0.0791  1.2888  0.5101
 2943TIP3   OH230243   0.914   5.061  10.693  0.3298  0.5559 -0.6496
 2943TIP3    H130244   0.975   5.087  10.762 -2.3660  1.8656  1.4242
 2943TIP3    H230245   0.905   5.139  10.638  0.8826  0.1776 -1.3028
 2944TIP3   OH230246   1.737   3.151  15.149  0.0255 -0.4059 -0.0148
 2944TIP3    H130247   1.828   3.139  15.122  0.6227  1.1647  1.1699
 2944TIP3    H230248   1.718   3.074  15.202  1.4671  0.3332  1.6756
 2945TIP3   OH230249   3.617   4.981   5.087  0.7890  1.0822  0.2463
 2945TIP3    H130250   3.655   4.948   5.168  0.9958  1.6871  0.3988
 2945TIP3    H230251   3.542   4.923   5.071 -0.4468  2.1148  1.9244
 2946TIP3   OH230252   0.266   6.655  14.075 -0.1082 -0.2293  0.1269
 2946TIP3    H130253   0.302   6.730  14.029  0.0979 -0.3366  0.1107
 2946TIP3    H230254   0.317   6.650  14.156 -1.2240  0.6477  0.9179
 2947TIP3   OH230255   6.409   6.448   4.611 -0.2803  0.2292 -0.0936
 2947TIP3    H130256   6.318   6.450   4.642 -0.2616 -1.5124  0.1857
 2947TIP3    H230257   6.460   6.490   4.680 -0.7302  0.1478  0.2888
 2948TIP3   OH230258   5.433   5.025   3.831  0.1660 -0.3215 -0.1749
 2948TIP3    H130259   5.426   5.068   3.746  0.4576 -0.3015 -0.1889
 2948TIP3    H230260   5.458   5.094   3.892 -0.4560 -0.2505  0.0095
 2949TIP3   OH230261   0.439   5.267   5.098 -0.2653 -0.1884 -0.5408
 2949TIP3    H130262   0.363   5.302   5.145 -1.0240 -2.5012  0.0719
 2949TIP3    H230263   0.514   5.314   5.135 -1.0583 -0.3970  1.4786
 2950TIP3   OH230264   1.602   1.797  11.582 -0.0358  0.5538 -0.2097
 2950TIP3    H130265   1.648   1.719  11.614 -0.6464 -0.9120 -2.6254
 2950TIP3    H230266   1.663   1.869  11.597  0.7613 -0.4355  1.6200
 2951TIP3   OH230267   1.818   3.559   4.352 -0.2566  0.6834  0.1051
 2951TIP3    H130268   1.777   3.473   4.339 -1.2721  0.9653  1.2170
 2951TIP3    H230269   1.902   3.553   4.306 -0.7783 -0.5278 -0.7500
 2952TIP3   OH230270   0.365   2.252   1.248 -0.1832  0.4957  0.1491
 2952TIP3    H130271   0.448   2.217   1.216 -0.0329  2.4760 -1.9139
 2952TIP3    H230272   0.309   2.175   1.259  1.1491 -0.6775 -0.8745
 2953TIP3   OH230273   2.184   0.736  14.043  0.1907 -0.3036 -0.3870
 2953TIP3    H130274   2.180   0.708  14.134 -0.3946  1.2284  0.0998
 2953TIP3    H230275   2.173   0.831  14.047  1.5834 -0.0301 -1.9495
 2954TIP3   OH230276   6.452   4.044  12.822  0.0835 -0.0873  0.3083
 2954TIP3    H130277   6.448   4.015  12.730 -1.4577  0.6622  0.1086
 2954TIP3    H230278   6.509   4.121  12.820  0.7677 -0.5870  0.1403
 2955TIP3   OH230279   2.149   2.656  12.564  0.4143 -0.1440 -0.1482
 2955TIP3    H130280   2.244   2.646  12.571  0.4550  0.5349  0.2842
 2955TIP3    H230281   2.124   2.709  12.639 -0.6086 -2.1482  1.0185
 2956TIP3   OH230282   2.811   3.440   4.140  0.4137  0.1418 -0.0583
 2956TIP3    H130283   2.853   3.520   4.172  0.3009 -0.6129  2.0790
 2956TIP3    H230284   2.718   3.460   4.139  0.0112 -0.8851  3.6611
 2957TIP3   OH230285   2.005   3.197   2.018 -0.4644  0.2394  0.3744
 2957TIP3    H130286   1.969   3.265   1.961  0.2512  0.2416 -0.0829
 2957TIP3    H230287   2.090   3.231   2.044  0.5675 -1.1010 -1.0573
 2958TIP3   OH230288   1.639   6.648  16.817 -0.1818 -0.3191  1.5199
 2958TIP3    H130289   1.546   6.645  16.797  0.4754  0.1264 -2.3512
 2958TIP3    H230290   1.668   6.557  16.809 -0.0261 -0.2330  1.0690
 2959TIP3   OH230291   2.261   5.666   3.510 -0.1851  0.2163  0.1318
 2959TIP3    H130292   2.248   5.633   3.421  0.3169  0.9367 -0.2133
 2959TIP3    H230293   2.222   5.754   3.509  0.1408  0.3672  0.5218
 2960TIP3   OH230294   4.766   1.075   3.043  0.1546 -0.1635  0.1032
 2960TIP3    H130295   4.789   1.018   2.970  0.0710 -0.8179  0.5797
 2960TIP3    H230296   4.770   1.018   3.120  1.2271  0.7389  0.7476
 2961TIP3   OH230297   4.580   6.070  16.668 -0.5519 -0.6000  0.3678
 2961TIP3    H130298   4.545   6.159  16.656 -0.9018 -0.6517  0.9661
 2961TIP3    H230299   4.617   6.070  16.756  1.7600 -0.3072 -0.5421
 2962TIP3   OH230300   0.411   0.491   0.551  0.7157  0.1108  0.2599
 2962TIP3    H130301   0.421   0.572   0.501  1.1342 -1.2452 -2.0118
 2962TIP3    H230302   0.470   0.501   0.625 -0.0906  2.3217  0.6741
 2963TIP3   OH230303   5.810   4.031  16.792 -0.2333  0.2039  0.3004
 2963TIP3    H130304   5.870   4.072  16.730 -0.3163  1.2441  0.8900
 2963TIP3    H230305   5.855   3.950  16.819  1.3993  1.4358  1.4923
 2964TIP3   OH230306   6.469   6.130   1.784  0.2344 -0.3579 -0.2766
 2964TIP3    H130307   6.515   6.209   1.813 -1.1830  0.4990 -0.2619
 2964TIP3    H230308   6.382   6.137   1.822  0.5689 -2.8101  1.1764
 2965TIP3   OH230309   2.889   0.876   5.203  0.2808  0.2184  0.1185
 2965TIP3    H130310   2.978   0.849   5.184  0.4932  0.0161  1.3298
 2965TIP3    H230311   2.834   0.814   5.155  0.7818 -0.0594 -0.1016
 2966TIP3   OH230312   0.734   1.713   0.571 -0.1094 -0.4406  0.4263
 2966TIP3    H130313   0.765   1.786   0.519 -1.3560 -0.4707 -0.3940
 2966TIP3    H230314   0.761   1.734   0.661  1.2572  0.0491 -0.0885
 2967TIP3   OH230315   2.121   3.230  11.041  0.2792  0.7577  0.2823
 2967TIP3    H130316   2.092   3.318  11.066 -1.9359  0.1308  0.1655
 2967TIP3    H230317   2.044   3.191  11.000  1.4781 -0.9571 -0.4313
 2968TIP3   OH230318   1.842   4.488   6.425 -0.1610  0.4539 -0.4743
 2968TIP3    H130319   1.902   4.414   6.414 -0.3317  0.4591 -1.5205
 2968TIP3    H230320   1.818   4.513   6.336  0.1514  1.9824 -0.1654
 2969TIP3   OH230321   4.151   3.708  14.503  0.3709  0.6363  0.2433
 2969TIP3    H130322   4.237   3.675  14.529  0.6378  1.0113 -0.1458
 2969TIP3    H230323   4.144   3.793  14.546  0.4534  0.8744 -0.2043
 2970TIP3   OH230324   3.933   6.037  12.262  0.2866  0.2649 -0.2995
 2970TIP3    H130325   3.973   5.974  12.322 -0.4228  0.6289  0.5814
 2970TIP3    H230326   3.986   6.032  12.182  0.8708 -0.6760  0.1372
 2971TIP3   OH230327   1.212   1.273  17.227 -0.1262 -0.1944  0.0944
 2971TIP3    H130328   1.212   1.219  17.148 -1.7090  1.1337 -0.8902
 2971TIP3    H230329   1.288   1.329  17.218  0.0078 -0.4211 -0.2207
 2972TIP3   OH230330   0.502   5.089  14.267 -0.0904 -0.4530 -0.4483
 2972TIP3    H130331   0.449   5.071  14.345  0.6072  0.3624  0.2235
 2972TIP3    H230332   0.592   5.071  14.294  0.3103  1.1385 -0.6283
 2973TIP3   OH230333   6.064   5.343   2.126 -0.1163 -0.3658 -0.2427
 2973TIP3    H130334   5.973   5.367   2.108  0.1295  0.4973 -0.3794
 2973TIP3    H230335   6.102   5.420   2.168  0.3235 -1.0323  0.6198
 2974TIP3   OH230336   5.070   3.358  12.945 -0.0155  0.0874 -0.2417
 2974TIP3    H130337   5.129   3.351  12.870 -0.2482  0.2917 -0.4484
 2974TIP3    H230338   4.990   3.396  12.908 -1.1220 -2.2664 -0.4250
 2975TIP3   OH230339   0.430   6.789   1.274  0.3232  0.1432 -0.1977
 2975TIP3    H130340   0.360   6.850   1.295 -0.4222 -1.3223  1.9192
 2975TIP3    H230341   0.407   6.709   1.321  1.7181 -1.5094 -2.1288
 2976TIP3   OH230342   5.903   1.938   1.863 -0.0336  0.2447  0.4656
 2976TIP3    H130343   5.970   1.961   1.928  0.6147  0.1757 -0.1736
 2976TIP3    H230344   5.851   2.018   1.854  1.5858  1.1917 -0.9796
 2977TIP3   OH230345   3.364   6.354  11.232 -0.4837  0.1347 -0.0131
 2977TIP3    H130346   3.289   6.376  11.288 -0.3114 -0.3817  0.4406
 2977TIP3    H230347   3.375   6.259  11.245  0.5466  0.2914  0.3061
 2978TIP3   OH230348   1.046   2.500  14.930 -0.7334  0.3440  0.0251
 2978TIP3    H130349   0.958   2.462  14.932 -0.4080 -0.4265 -0.1205
 2978TIP3    H230350   1.100   2.439  14.980  0.0478 -0.0352 -1.2379
 2979TIP3   OH230351   0.742   6.643   6.657  0.3525 -0.3307  0.3913
 2979TIP3    H130352   0.785   6.558   6.647  0.0736 -0.4191 -0.0828
 2979TIP3    H230353   0.681   6.649   6.583  0.0319  0.0811  0.6782
 2980TIP3   OH230354   3.443   5.839  15.113 -0.4707  0.0899  0.1063
 2980TIP3    H130355   3.424   5.889  15.033 -1.2111 -0.4477 -0.0666
 2980TIP3    H230356   3.449   5.905  15.182  1.9413  0.7568 -0.6523
 2981TIP3   OH230357   6.591   3.059  13.731  1.1462 -0.2779  0.1200
 2981TIP3    H130358   6.534   2.989  13.699 -1.3331  0.8377  1.7980
 2981TIP3    H230359   6.660   3.013  13.779  0.6116 -1.6248 -0.3459
 2982TIP3   OH230360   6.728   1.095   6.312  0.4182 -0.0151 -0.7503
 2982TIP3    H130361   6.761   1.105   6.222  0.7738 -0.9119 -0.7278
 2982TIP3    H230362   6.792   1.038   6.354  0.3601  0.5710  0.1406
 2983TIP3   OH230363   1.507   1.799   3.792 -0.1315 -0.0646 -0.0689
 2983TIP3    H130364   1.600   1.818   3.781 -0.3808  2.3279  1.1826
 2983TIP3    H230365   1.462   1.879   3.762 -1.8788 -1.4781 -1.4794
 2984TIP3   OH230366   4.929   2.827  13.085  0.0689 -0.2913  0.9411
 2984TIP3    H130367   4.977   2.909  13.069  0.0353 -0.6459 -1.2871
 2984TIP3    H230368   4.902   2.833  13.177  0.3425  2.0470  0.9335
 2985TIP3   OH230369   3.299   4.237   6.163 -0.7970 -0.0077  0.6342
 2985TIP3    H130370   3.342   4.211   6.082 -1.8454  3.1943 -1.1141
 2985TIP3    H230371   3.370   4.260   6.223 -0.0363 -1.6070  0.3830
 2986TIP3   OH230372   4.448   6.439   3.341 -0.0283 -0.4177  0.0300
 2986TIP3    H130373   4.488   6.353   3.336  0.6277 -0.0745 -0.9795
 2986TIP3    H230374   4.499   6.493   3.281 -1.6213  0.1826 -0.8502
 2987TIP3   OH230375   0.589   4.352   4.727  0.8989  0.1453  0.2985
 2987TIP3    H130376   0.522   4.325   4.790  0.4670  1.0910  0.2560
 2987TIP3    H230377   0.543   4.407   4.664  1.6420  0.4988  0.0514
 2988TIP3   OH230378   2.803   1.716   2.400 -0.1596 -0.1547  0.0212
 2988TIP3    H130379   2.865   1.695   2.330  0.6848  3.6236 -0.5579
 2988TIP3    H230380   2.717   1.703   2.361  0.2784 -0.4496 -0.8821
 2989TIP3   OH230381   3.586   2.233  15.557 -0.2247  0.0089  0.1001
 2989TIP3    H130382   3.659   2.187  15.515 -1.5660  0.3528 -2.8157
 2989TIP3    H230383   3.538   2.163  15.601  0.5121 -0.5907 -0.0044
 2990TIP3   OH230384   5.242   2.333   5.597  0.1217 -0.5585 -0.6433
 2990TIP3    H130385   5.171   2.324   5.533  0.7295 -1.2567 -1.2356
 2990TIP3    H230386   5.322   2.319   5.546  0.7701  1.2367 -0.2127
 2991TIP3   OH230387   6.628   4.449  12.323 -0.8232 -0.3335  0.0539
 2991TIP3    H130388   6.663   4.509  12.389  2.5653 -0.1684 -1.6493
 2991TIP3    H230389   6.658   4.362  12.352 -2.5910 -0.7957  0.6163
 2992TIP3   OH230390   0.597   0.724  16.752 -0.0131 -0.0227 -0.4798
 2992TIP3    H130391   0.624   0.642  16.793 -0.5469 -0.3527 -0.7827
 2992TIP3    H230392   0.507   0.709  16.724 -0.1084  0.6572 -0.5652
 2993TIP3   OH230393   5.070   6.197  11.674 -0.3436 -0.4019  0.0191
 2993TIP3    H130394   5.065   6.186  11.579 -0.2205  0.2866 -0.0737
 2993TIP3    H230395   4.998   6.145  11.708 -1.2000  0.3746 -0.5467
 2994TIP3   OH230396   4.666   2.199   2.344 -0.0070 -0.0616 -0.9194
 2994TIP3    H130397   4.573   2.217   2.357 -0.1156 -0.4945 -1.0867
 2994TIP3    H230398   4.708   2.285   2.348 -0.6083  0.3416 -2.4346
 2995TIP3   OH230399   2.820   3.180   3.971  0.1822 -0.1874 -0.2342
 2995TIP3    H130400   2.796   3.269   3.995 -0.7719 -1.2416  3.3443
 2995TIP3    H230401   2.908   3.188   3.935  0.8258  2.0457  1.5924
 2996TIP3   OH230402   5.738   5.462   4.396 -0.3827  0.2502 -0.6141
 2996TIP3    H130403   5.695   5.495   4.475 -1.6267  2.0961 -1.9758
 2996TIP3    H230404   5.832   5.474   4.413 -0.5676 -0.3142  0.9397
 2997TIP3   OH230405   0.121   5.143   4.277 -0.2340  0.2049  0.1922
 2997TIP3    H130406   0.100   5.158   4.185  0.7561 -0.9451 -0.2570
 2997TIP3    H230407   0.137   5.048   4.282 -0.5433  0.2161  1.6048
 2998TIP3   OH230408   0.333   1.844  16.694 -0.1604 -0.2319  0.1211
 2998TIP3    H130409   0.352   1.927  16.651  0.4919 -0.1220  0.6116
 2998TIP3    H230410   0.286   1.793  16.628  0.5158  0.0641 -0.6037
 2999TIP3   OH230411   1.206   0.793  11.818 -0.1436 -0.1950  0.5834
 2999TIP3    H130412   1.188   0.814  11.910 -1.3515 -0.6366  0.4690
 2999TIP3    H230413   1.170   0.866  11.769  1.4950  0.5891  0.4834
 3000TIP3   OH230414   6.047   4.326   4.737  0.0361 -0.1879  0.1407
 3000TIP3    H130415   6.092   4.245   4.761  0.5007 -0.4985 -1.6261
 3000TIP3    H230416   5.976   4.298   4.680  0.4941  0.6719 -0.8727
 3001TIP3   OH230417   0.980   6.784   5.500 -0.1694  0.6384 -0.7300
 3001TIP3    H130418   0.906   6.800   5.559  0.6213  1.4114  0.0956
 3001TIP3    H230419   0.977   6.856   5.437 -0.7223  0.0902 -1.3365
 3002TIP3   OH230420   6.020   1.989   1.111 -0.0145  0.5085 -0.0579
 3002TIP3    H130421   5.986   1.989   1.200 -0.7594  0.3981 -0.3337
 3002TIP3    H230422   6.083   1.917   1.110  0.5256  0.9592  0.5630
 3003TIP3   OH230423   6.235   1.136  14.255  0.2632 -0.9885  0.2461
 3003TIP3    H130424   6.145   1.160  14.234  0.3175 -1.9882 -1.2873
 3003TIP3    H230425   6.246   1.161  14.346 -1.1562  0.3227  0.0934
 3004TIP3   OH230426   3.760   1.041   3.668  0.2393  0.2957  0.0285
 3004TIP3    H130427   3.724   1.121   3.629  0.6009 -0.7785 -2.7672
 3004TIP3    H230428   3.853   1.043   3.643  0.0368 -1.4519 -1.0074
 3005TIP3   OH230429   2.835   3.421  16.853  0.2419 -0.6195  0.1851
 3005TIP3    H130430   2.815   3.472  16.932 -1.7161 -0.2188 -0.5065
 3005TIP3    H230431   2.885   3.481  16.798 -2.1396  0.7296 -0.6687
 3006TIP3   OH230432   3.481   5.168  11.740 -0.2413 -0.1817  0.6586
 3006TIP3    H130433   3.527   5.107  11.683 -1.1324  1.0019 -1.4399
 3006TIP3    H230434   3.548   5.230  11.768 -0.0542  0.1205 -0.3975
 3007TIP3   OH230435   0.914   1.520  15.852  0.2446  0.4373 -0.3149
 3007TIP3    H130436   0.856   1.534  15.926  0.7802  0.8970  0.0252
 3007TIP3    H230437   1.001   1.507  15.892  0.3210 -0.6628 -0.7819
 3008TIP3   OH230438   1.322   3.441   3.159 -0.0586  0.1228  0.8374
 3008TIP3    H130439   1.391   3.491   3.116 -0.3437  1.1667  1.5596
 3008TIP3    H230440   1.258   3.425   3.089 -0.9351  2.5519  0.9878
 3009TIP3   OH230441   0.219   2.339   2.812  0.5128  0.0861 -0.5565
 3009TIP3    H130442   0.272   2.299   2.881  0.2684 -0.8307 -0.8936
 3009TIP3    H230443   0.129   2.325   2.839  0.2494  4.0061  1.4312
 3010TIP3   OH230444   3.769   5.723   1.294  0.4552  0.8485  0.7014
 3010TIP3    H130445   3.732   5.645   1.336  0.5412  1.2561  1.5586
 3010TIP3    H230446   3.825   5.689   1.225  0.6020  0.1452  1.1638
 3011TIP3   OH230447   1.348   4.880   4.839  0.0292  0.7290 -0.1676
 3011TIP3    H130448   1.374   4.799   4.797 -0.8357  1.6036 -2.5531
 3011TIP3    H230449   1.358   4.863   4.933  0.8884 -1.7356 -0.6426
 3012TIP3   OH230450   5.151   6.637   0.366  0.1541 -0.4305 -0.4163
 3012TIP3    H130451   5.072   6.663   0.318 -0.1068 -0.9589 -0.2792
 3012TIP3    H230452   5.189   6.719   0.396 -0.9111 -0.2062  0.4102
 3013TIP3   OH230453   0.156   0.403   6.354  0.2603  0.3275  0.4190
 3013TIP3    H130454   0.159   0.310   6.375  1.1125  0.3615  0.4891
 3013TIP3    H230455   0.212   0.444   6.420 -1.8861  1.1881  1.8321
 3014TIP3   OH230456   2.566   2.343   6.584 -0.2275 -0.5083 -0.1515
 3014TIP3    H130457   2.658   2.322   6.596 -0.3316 -1.7974 -1.3913
 3014TIP3    H230458   2.521   2.259   6.584 -1.2776  0.0266 -0.5392
 3015TIP3   OH230459   4.850   2.409  16.061  0.4044 -0.0816 -0.2344
 3015TIP3    H130460   4.796   2.334  16.036 -0.4600  0.9574 -1.5824
 3015TIP3    H230461   4.929   2.369  16.099 -0.1029 -1.6673 -0.7631
 3016TIP3   OH230462   5.322   0.141  12.499  0.2005  0.2073 -0.1763
 3016TIP3    H130463   5.393   0.174  12.554 -0.1066  0.5327  0.0385
 3016TIP3    H230464   5.337   0.047  12.494  0.6076  0.2649 -0.0786
 3017TIP3   OH230465   2.290   5.750   4.020 -0.1492  0.2951  0.0458
 3017TIP3    H130466   2.382   5.724   4.024 -0.1361  0.1850 -0.8658
 3017TIP3    H230467   2.243   5.669   4.001 -0.2360  0.6732 -1.4639
 3018TIP3   OH230468   5.083   1.287  14.465 -0.0040  0.9132 -0.1884
 3018TIP3    H130469   5.082   1.227  14.392 -1.2108  1.4104 -0.6035
 3018TIP3    H230470   5.104   1.233  14.541  2.3255  0.5670 -1.0084
 3019TIP3   OH230471   2.459   4.716  16.243  0.7533 -0.4975  0.6137
 3019TIP3    H130472   2.542   4.724  16.290  1.2989  1.1193 -0.5321
 3019TIP3    H230473   2.483   4.703  16.152 -0.1258  2.1385 -0.1048
 3020TIP3   OH230474   5.654   2.769  11.508 -0.2615 -0.1692 -0.2451
 3020TIP3    H130475   5.595   2.785  11.435  0.4025  1.2656 -0.5006
 3020TIP3    H230476   5.610   2.703  11.561 -1.7614  0.3730 -0.7808
 3021TIP3   OH230477   0.630   3.817  15.877 -0.2206  0.3039 -0.9160
 3021TIP3    H130478   0.653   3.730  15.845 -1.0854 -0.5402  0.6161
 3021TIP3    H230479   0.703   3.843  15.933 -0.7173 -0.2321  0.0164
 3022TIP3   OH230480   0.171   1.517  15.086 -0.4903  0.0253  0.0219
 3022TIP3    H130481   0.259   1.550  15.071 -0.4618  0.0221  0.1822
 3022TIP3    H230482   0.181   1.455  15.159 -0.7445  0.5570  0.5131
 3023TIP3   OH230483   4.096   1.159   0.097  0.1050  0.5408 -0.2442
 3023TIP3    H130484   4.028   1.093   0.108 -1.3514  2.2600  1.9596
 3023TIP3    H230485   4.176   1.115   0.126 -1.0509  0.0506  2.5579
 3024TIP3   OH230486   6.499   5.689   5.890 -0.1916 -0.6026  0.0670
 3024TIP3    H130487   6.541   5.716   5.972 -0.6097  1.3668 -0.3025
 3024TIP3    H230488   6.408   5.672   5.915  0.3196 -2.9975  0.5174
 3025TIP3   OH230489   2.946   5.696   5.409 -0.0743 -0.2537  0.0956
 3025TIP3    H130490   2.919   5.657   5.493 -0.6387 -1.0302 -0.4273
 3025TIP3    H230491   3.040   5.681   5.406  0.0186  0.1280  0.7622
 3026TIP3   OH230492   1.887   3.491   2.819  0.1633  0.2940 -0.0231
 3026TIP3    H130493   1.871   3.526   2.907 -1.0147  0.0239 -0.1126
 3026TIP3    H230494   1.811   3.517   2.768  0.3586 -0.4062 -0.6978
 3027TIP3   OH230495   3.170   2.988  10.595 -0.0136 -0.1624 -0.6435
 3027TIP3    H130496   3.154   3.064  10.652 -0.1732  0.3010 -1.2999
 3027TIP3    H230497   3.094   2.932  10.610  1.2636 -1.4116  1.7263
 3028TIP3   OH230498   5.251   5.701  15.333  0.1137 -0.2445 -0.6316
 3028TIP3    H130499   5.188   5.731  15.399 -0.4892 -0.4433 -1.1083
 3028TIP3    H230500   5.304   5.778  15.314  1.0776 -0.4829  0.9502
 3029TIP3   OH230501   6.595   6.651   4.857  0.0154 -0.2599  0.4197
 3029TIP3    H130502   6.638   6.687   4.935 -1.4822 -0.6882  1.5010
 3029TIP3    H230503   6.585   6.558   4.878 -1.4511 -0.1626  0.2393
 3030TIP3   OH230504   5.195   1.610  12.811 -0.6730  0.7715  0.1556
 3030TIP3    H130505   5.224   1.701  12.818  0.5640  0.2831  2.2549
 3030TIP3    H230506   5.256   1.570  12.749  0.4007  0.8196  1.1405
 3031TIP3   OH230507   6.147   2.182  14.700 -0.7837  0.5026  0.7836
 3031TIP3    H130508   6.059   2.209  14.728 -0.7097  0.1647  1.3619
 3031TIP3    H230509   6.171   2.245  14.632 -2.7246 -1.1644 -1.6349
 3032TIP3   OH230510   0.093   2.783  12.179  0.0860  0.1041  0.1690
 3032TIP3    H130511   0.121   2.787  12.271  0.0931  2.6695  0.1320
 3032TIP3    H230512  -0.000   2.764  12.182 -0.1236  1.1672  0.7860
 3033TIP3   OH230513   6.002   1.100  13.557  0.4173 -0.3206 -0.6421
 3033TIP3    H130514   6.005   1.004  13.555  2.0891 -0.2971 -1.2991
 3033TIP3    H230515   5.967   1.124  13.472  0.4953 -0.3467 -0.6819
 3034TIP3   OH230516   1.364   1.210   3.611  0.6888 -0.3134 -0.2937
 3034TIP3    H130517   1.377   1.290   3.662  0.0092  1.1418 -2.2613
 3034TIP3    H230518   1.417   1.144   3.655  0.6322  0.9946  1.8680
 3035TIP3   OH230519   3.294   0.075  14.266  0.1493 -0.7266 -0.2312
 3035TIP3    H130520   3.330   0.099  14.180  1.9916  0.2930  0.7705
 3035TIP3    H230521   3.341  -0.005  14.290 -0.6332 -1.2206 -0.3040
 3036TIP3   OH230522   4.511   6.058   5.558  0.1814  0.0456 -0.1468
 3036TIP3    H130523   4.529   6.011   5.477 -0.3326  1.7137 -1.2740
 3036TIP3    H230524   4.440   6.009   5.599 -0.1125 -0.3656 -1.1125
 3037TIP3   OH230525   5.628   5.295  15.439 -0.0263  0.0414 -0.3559
 3037TIP3    H130526   5.554   5.353  15.420  0.4686  1.0927  0.8035
 3037TIP3    H230527   5.615   5.269  15.530  0.8840  0.0120 -0.2252
 3038TIP3   OH230528   3.521   4.809  10.735  0.1036  0.3239 -0.2639
 3038TIP3    H130529   3.547   4.717  10.724  1.1952  0.5846  0.0288
 3038TIP3    H230530   3.558   4.854  10.659  0.7981  0.7634  0.3316
 3039TIP3   OH230531   2.276   0.301  14.744  0.6959  0.9279 -0.4036
 3039TIP3    H130532   2.343   0.361  14.710  0.7668  0.8463 -0.4088
 3039TIP3    H230533   2.210   0.297  14.676 -1.0367  3.6856  0.9645
 3040TIP3   OH230534   3.602   1.157  12.849 -0.3400  0.2165  0.4928
 3040TIP3    H130535   3.680   1.117  12.888  0.1428 -0.8524 -1.3953
 3040TIP3    H230536   3.636   1.230  12.797 -0.7780  0.6528  0.8129
 3041TIP3   OH230537   4.026   1.535   3.606 -0.3611  0.2098  0.3839
 3041TIP3    H130538   4.110   1.492   3.624 -0.2198  0.9786  1.7436
 3041TIP3    H230539   4.008   1.584   3.686 -2.5531 -0.6433  0.4748
 3042TIP3   OH230540   3.226   5.155  12.526 -0.1177  0.3155 -0.7846
 3042TIP3    H130541   3.280   5.176  12.451 -2.7854 -0.0422 -2.9498
 3042TIP3    H230542   3.215   5.060  12.522 -0.4765  0.3129 -0.0488
 3043TIP3   OH230543   5.024   3.488   2.002 -0.5418 -0.0049 -0.0261
 3043TIP3    H130544   4.981   3.470   1.919  0.3498 -0.5224 -0.3846
 3043TIP3    H230545   5.117   3.492   1.981 -0.3958  1.0473  0.7446
 3044TIP3   OH230546   2.968   2.072  17.105 -0.1548  0.3790 -0.5480
 3044TIP3    H130547   3.063   2.080  17.097 -0.2834  1.0423 -1.8483
 3044TIP3    H230548   2.941   2.025  17.026 -0.8366 -0.5153  0.2035
 3045TIP3   OH230549   5.144   2.610  14.660  0.1163  0.1434  0.1651
 3045TIP3    H130550   5.082   2.549  14.621 -0.4491 -0.6681  2.2228
 3045TIP3    H230551   5.206   2.629  14.589 -0.8126 -1.2775 -1.0922
 3046TIP3   OH230552   0.704   0.438  11.688  0.1158 -0.0899 -0.2058
 3046TIP3    H130553   0.730   0.428  11.779 -1.1776 -2.2101 -0.0001
 3046TIP3    H230554   0.781   0.414  11.638  0.5760  0.2800  0.3109
 3047TIP3   OH230555   0.904   5.017   4.514  0.3040 -0.3318  0.2309
 3047TIP3    H130556   0.916   5.028   4.608  1.0548 -1.7011  0.3315
 3047TIP3    H230557   0.989   4.984   4.483 -0.4951 -1.7299 -0.5883
 3048TIP3   OH230558   1.952   5.007  11.755 -0.1186 -0.1282  0.0090
 3048TIP3    H130559   2.037   5.021  11.713  0.5043  2.9211  1.9456
 3048TIP3    H230560   1.965   4.930  11.810  1.0509 -0.3727 -0.5861
 3049TIP3   OH230561   6.097   1.736   4.409  0.2965  0.2719 -0.1527
 3049TIP3    H130562   6.102   1.671   4.339  0.2696  0.0840  0.0225
 3049TIP3    H230563   6.023   1.792   4.384 -2.5603 -2.2986  1.8621
 3050TIP3   OH230564   3.820   0.634  16.083  0.0651  0.2012 -0.3631
 3050TIP3    H130565   3.763   0.640  16.007  0.6151  1.9769 -0.6785
 3050TIP3    H230566   3.890   0.697  16.066  0.1033  0.7885  1.6903
 3051TIP3   OH230567   5.529   0.743   2.987  0.9256  0.0051  0.0490
 3051TIP3    H130568   5.483   0.812   2.939  0.7086  0.6678  1.1758
 3051TIP3    H230569   5.619   0.748   2.956  0.4655 -0.7452 -1.5622
 3052TIP3   OH230570   1.751   0.496   3.331 -0.7842 -0.2677 -0.1302
 3052TIP3    H130571   1.714   0.494   3.243 -1.7320 -1.1406  0.2686
 3052TIP3    H230572   1.824   0.434   3.328 -0.8900 -0.3845 -0.2590
 3053TIP3   OH230573   4.229   4.507   6.042  0.2438 -0.0635 -0.2173
 3053TIP3    H130574   4.316   4.532   6.013  1.0029 -1.2243  0.9419
 3053TIP3    H230575   4.198   4.444   5.978 -0.3750  1.3777 -1.4089
 3054TIP3   OH230576   0.946   6.409   1.285 -0.1080 -0.5740  1.1712
 3054TIP3    H130577   0.969   6.481   1.344  1.8946 -1.1842  1.2153
 3054TIP3    H230578   0.993   6.334   1.320 -0.4599 -1.4041 -0.0992
 3055TIP3   OH230579   0.454   6.709   2.759  0.4161 -0.1837 -0.0369
 3055TIP3    H130580   0.473   6.774   2.826  0.0741 -0.2394  0.1159
 3055TIP3    H230581   0.448   6.626   2.806 -0.4648 -0.1290 -0.0320
 3056TIP3   OH230582   2.920   6.260  16.904  0.3264  0.0801  0.8051
 3056TIP3    H130583   2.995   6.219  16.947 -0.3740  1.0678  3.1467
 3056TIP3    H230584   2.952   6.348  16.880 -0.2628  0.8530  2.6565
 3057TIP3   OH230585   6.495   2.489  13.692 -0.0912 -0.4308  0.4930
 3057TIP3    H130586   6.520   2.541  13.768  1.1139 -0.3824  0.0964
 3057TIP3    H230587   6.543   2.529  13.619 -0.0916 -1.3431 -0.0320
 3058TIP3   OH230588   5.026   4.844  15.049  0.2231 -0.0940 -0.9903
 3058TIP3    H130589   5.044   4.812  14.960 -0.6064  0.1139 -1.2446
 3058TIP3    H230590   4.954   4.907  15.037 -0.1032 -0.2964 -0.1341
 3059TIP3   OH230591   4.066   2.760   5.070  0.1812 -0.5369 -0.2259
 3059TIP3    H130592   4.152   2.796   5.046  0.1302  1.1576  1.8515
 3059TIP3    H230593   4.015   2.763   4.989  2.0499 -1.6214 -1.5125
 3060TIP3   OH230594   5.626   3.962  16.014  0.0693  0.9730  0.0373
 3060TIP3    H130595   5.552   3.901  16.013  1.2144 -0.5280  0.9950
 3060TIP3    H230596   5.605   4.024  16.084 -0.9510  1.4664 -0.7000
 3061TIP3   OH230597   6.807   0.182  11.488 -0.5751  0.1083  0.0738
 3061TIP3    H130598   6.851   0.167  11.405  0.6985  1.7039  0.4088
 3061TIP3    H230599   6.801   0.278  11.495 -0.0883  0.0381  2.0986
 3062TIP3   OH230600   5.265   5.942  15.587  0.1087 -0.3559 -0.2372
 3062TIP3    H130601   5.276   5.859  15.632 -0.0424  0.2402  0.9548
 3062TIP3    H230602   5.349   5.957  15.542 -0.0836 -1.4270 -0.9913
 3063TIP3   OH230603   3.057   4.507  10.666  0.3010 -0.2865  0.3696
 3063TIP3    H130604   3.040   4.425  10.621 -0.4318 -0.3623  0.7699
 3063TIP3    H230605   3.150   4.524  10.651  0.1497 -0.4861 -0.8629
 3064TIP3   OH230606   1.297   4.639  11.834  0.5098 -0.1259 -0.0152
 3064TIP3    H130607   1.229   4.617  11.771  0.6586 -1.7782  0.3550
 3064TIP3    H230608   1.269   4.597  11.915  0.7551  1.2406  0.7969
 3065TIP3   OH230609   1.199   1.325  14.380 -0.2103  0.2559 -0.3772
 3065TIP3    H130610   1.270   1.358  14.325  0.1468 -0.1164 -0.1459
 3065TIP3    H230611   1.125   1.316  14.320 -0.5147  2.0358 -0.3439
 3066TIP3   OH230612   6.393   1.783   4.260  0.4637 -0.2116  0.6732
 3066TIP3    H130613   6.382   1.867   4.215  2.0213  1.0963  2.5868
 3066TIP3    H230614   6.324   1.784   4.327  1.5810  0.3915  1.8462
 3067TIP3   OH230615   0.277   1.676   6.572 -0.3952  0.0364 -0.0553
 3067TIP3    H130616   0.312   1.645   6.489  1.5835  0.6307  0.5117
 3067TIP3    H230617   0.214   1.609   6.598 -0.9863 -0.2070 -1.9581
 3068TIP3   OH230618   4.657   6.600  12.012 -0.3329 -0.2376  0.8629
 3068TIP3    H130619   4.739   6.550  12.009 -0.6342 -0.8331  2.0893
 3068TIP3    H230620   4.685   6.690  12.029  0.1864 -0.0303 -0.9229
 3069TIP3   OH230621   6.022   0.518  13.423  0.1569  0.8654  0.2307
 3069TIP3    H130622   5.968   0.516  13.344  2.2198  0.6858 -1.2874
 3069TIP3    H230623   6.067   0.603  13.418  0.0028  1.0305  1.4533
 3070TIP3   OH230624   0.722   4.691   0.569  0.0354 -0.1569  0.2529
 3070TIP3    H130625   0.664   4.695   0.494 -1.2005  0.1551  1.1861
 3070TIP3    H230626   0.692   4.614   0.618 -0.6630  0.8816  1.5471
 3071TIP3   OH230627   5.207   6.054  16.500 -0.2346  0.2032 -0.0994
 3071TIP3    H130628   5.186   6.130  16.446 -0.5401 -0.8228 -1.4782
 3071TIP3    H230629   5.205   6.087  16.590  0.5458  2.0282 -0.7046
 3072TIP3   OH230630   5.461   0.955  11.156  0.2421  0.7007 -0.3772
 3072TIP3    H130631   5.455   1.036  11.206  1.7351 -0.1757  1.2941
 3072TIP3    H230632   5.472   0.886  11.221  4.0516 -0.3310 -1.8390
 3073TIP3   OH230633   3.199   0.538   3.490 -0.0597  0.1641 -0.1198
 3073TIP3    H130634   3.116   0.582   3.473  0.1904  0.8904  0.4670
 3073TIP3    H230635   3.264   0.608   3.492  0.5195 -0.3559 -0.2526
 3074TIP3   OH230636   1.950   0.218   6.503  0.3458  0.3614 -0.4227
 3074TIP3    H130637   1.953   0.311   6.482 -2.6421  0.8193  0.6333
 3074TIP3    H230638   1.876   0.185   6.453 -0.8962 -0.5858  1.9053
 3075TIP3   OH230639   5.709   6.512   2.827 -0.0988 -0.3205  0.0910
 3075TIP3    H130640   5.619   6.533   2.804  0.1321  0.1438 -0.4049
 3075TIP3    H230641   5.756   6.594   2.818  0.5435 -0.7485 -0.4912
 3076TIP3   OH230642   6.677   1.860   2.935  0.0465  0.1326  0.3895
 3076TIP3    H130643   6.604   1.824   2.986 -0.6648  0.7131 -0.1867
 3076TIP3    H230644   6.703   1.938   2.985 -1.3850  1.3422 -0.6478
 3077TIP3   OH230645   0.200   6.607   4.360 -0.0759  0.4958  0.4302
 3077TIP3    H130646   0.251   6.537   4.319 -0.0296  1.6291 -1.5921
 3077TIP3    H230647   0.266   6.662   4.403  0.0407  0.1694  0.6758
 3078TIP3   OH230648   4.955   3.811   2.666  0.0732 -0.0528  1.1459
 3078TIP3    H130649   4.965   3.906   2.671  0.4131  0.0758 -0.8568
 3078TIP3    H230650   5.028   3.776   2.717  1.9672  0.8194 -0.7885
 3079TIP3   OH230651   4.579   5.324   0.079  0.2525 -0.3572 -0.0871
 3079TIP3    H130652   4.658   5.271   0.083  0.5222  0.1123  1.2573
 3079TIP3    H230653   4.519   5.282   0.141  0.8586  1.4669  1.8261
 3080TIP3   OH230654   5.915   5.906   0.543  0.1675  0.1283  1.0117
 3080TIP3    H130655   5.902   5.854   0.464 -0.5436  1.6829  0.0591
 3080TIP3    H230656   5.891   5.848   0.615  0.6262 -1.2421  0.0892
 3081TIP3   OH230657   4.282   5.258  15.043 -0.7238  0.1543 -0.1270
 3081TIP3    H130658   4.306   5.337  15.091 -1.0106 -0.0927  0.4280
 3081TIP3    H230659   4.340   5.257  14.967 -0.2335  0.5256  0.2421
 3082TIP3   OH230660   3.646   3.547  13.918 -0.1173  0.0827  0.0685
 3082TIP3    H130661   3.710   3.482  13.888 -0.8554 -0.6169 -0.0243
 3082TIP3    H230662   3.631   3.602  13.841  0.8603  0.6652  0.2807
 3083TIP3   OH230663   2.079   5.184  10.577  0.0630 -0.6244 -0.2172
 3083TIP3    H130664   2.063   5.122  10.505  3.2979 -0.3966 -1.2705
 3083TIP3    H230665   2.083   5.269  10.534 -1.4999  0.0256  0.8281
 3084TIP3   OH230666   3.847   4.575  10.979 -0.1728 -0.4936  0.0445
 3084TIP3    H130667   3.825   4.529  10.898 -0.0647  1.6778 -1.2864
 3084TIP3    H230668   3.888   4.656  10.950 -1.8071  1.2343  2.2105
 3085TIP3   OH230669   0.815   3.187   1.051 -0.0281 -0.3552 -0.5282
 3085TIP3    H130670   0.861   3.269   1.037 -0.2207 -0.2573 -0.5926
 3085TIP3    H230671   0.848   3.129   0.983  1.8657 -1.0862  0.9488
 3086TIP3   OH230672   3.058   6.579   4.858  0.2634 -0.1846  0.0528
 3086TIP3    H130673   3.017   6.511   4.912 -1.2591 -0.5489 -1.4723
 3086TIP3    H230674   3.122   6.531   4.805 -0.4106 -0.3576 -0.6200
 3087TIP3   OH230675   6.503   0.196  15.589 -0.3954 -0.0059 -0.0811
 3087TIP3    H130676   6.436   0.168  15.652  0.7011 -1.0564  0.6452
 3087TIP3    H230677   6.577   0.223  15.642 -0.2311  1.2274 -0.8821
 3088TIP3   OH230678   2.839   0.886   0.254  0.5181  0.0675 -0.6604
 3088TIP3    H130679   2.908   0.948   0.276 -0.5203  0.7794  0.7292
 3088TIP3    H230680   2.768   0.905   0.316 -0.7386 -0.9625 -1.7088
 3089TIP3   OH230681   5.884   4.894   4.937  0.5138 -0.1745  0.0698
 3089TIP3    H130682   5.949   4.925   4.874  0.9986 -0.7467  0.2815
 3089TIP3    H230683   5.921   4.814   4.972  0.4377  0.3441  1.3806
 3090TIP3   OH230684   1.053   5.432  14.371  0.2164  0.4170 -0.6284
 3090TIP3    H130685   0.989   5.438  14.301 -0.2040 -1.1070 -0.4066
 3090TIP3    H230686   1.075   5.523  14.392  0.5799  0.9170 -2.9144
 3091TIP3   OH230687   6.089   2.672  13.340 -0.0725  0.0931  0.2788
 3091TIP3    H130688   6.113   2.651  13.250  2.2617 -0.8674  1.0318
 3091TIP3    H230689   6.123   2.599  13.392  2.2756  2.3850  2.3096
 3092TIP3   OH230690   6.567   1.070  14.314 -0.1341 -0.0485 -0.1320
 3092TIP3    H130691   6.488   1.106  14.354  0.2086  0.7902 -0.1924
 3092TIP3    H230692   6.619   1.039  14.387  0.9945  2.4816  0.2372
 3093TIP3   OH230693   1.641   0.535   5.062 -0.2206  0.3268 -0.0466
 3093TIP3    H130694   1.718   0.510   5.114  1.0045 -0.6334 -2.1694
 3093TIP3    H230695   1.579   0.571   5.125  1.7876  0.6800  1.8114
 3094TIP3   OH230696   5.490   1.487  15.916 -0.1376  0.4881 -0.0747
 3094TIP3    H130697   5.559   1.551  15.902  0.2153  0.6727  2.2057
 3094TIP3    H230698   5.465   1.459  15.828  2.7942  0.4264 -0.9688
 3095TIP3   OH230699   6.000   4.695  14.760  0.4462 -0.1826 -0.0305
 3095TIP3    H130700   6.020   4.610  14.799  2.1017 -0.6227 -1.6985
 3095TIP3    H230701   6.075   4.714  14.704 -0.9137  1.3036 -1.4559
 3096TIP3   OH230702   2.422   5.496   3.281  0.0520 -0.2063 -0.4824
 3096TIP3    H130703   2.483   5.552   3.234 -1.4560  0.9233 -1.1726
 3096TIP3    H230704   2.337   5.536   3.267 -0.6401 -0.5195  2.1728
 3097TIP3   OH230705   4.055   5.181   4.060  0.1638  0.1649 -0.3153
 3097TIP3    H130706   3.989   5.226   4.114  0.4961  1.8098 -1.2184
 3097TIP3    H230707   4.111   5.136   4.124  0.0017  1.2952  0.6700
 3098TIP3   OH230708   0.419   3.588   0.363  0.1385 -0.6170  0.1704
 3098TIP3    H130709   0.462   3.593   0.449 -0.2241 -1.5025  0.4117
 3098TIP3    H230710   0.326   3.603   0.382  0.3467  2.0921 -0.4412
 3099TIP3   OH230711   3.322   1.287   0.597  0.0310 -0.0941  0.3213
 3099TIP3    H130712   3.313   1.372   0.553  0.1170 -0.2688 -0.0374
 3099TIP3    H230713   3.417   1.277   0.609 -0.0094  0.0794  0.7998
 3100TIP3   OH230714   0.401   3.475   4.902 -0.1169 -0.2750  0.1129
 3100TIP3    H130715   0.314   3.437   4.889 -1.3996  2.1214  1.1543
 3100TIP3    H230716   0.417   3.465   4.996  1.0733 -1.2559 -0.1605
 3101TIP3   OH230717   4.610   2.802   2.014 -0.1734 -0.4210  0.1116
 3101TIP3    H130718   4.660   2.877   2.045 -0.0191 -0.4366 -0.0952
 3101TIP3    H230719   4.615   2.808   1.918  0.3029 -1.0018  0.0973
 3102TIP3   OH230720   4.815   6.770  11.221 -0.8379  0.3610  0.0977
 3102TIP3    H130721   4.728   6.756  11.258 -0.7356  0.6591  0.4528
 3102TIP3    H230722   4.805   6.749  11.128 -1.3819  0.7459  0.0636
 3103TIP3   OH230723   1.249   0.725  15.539  0.1124 -0.0807  0.3399
 3103TIP3    H130724   1.304   0.799  15.512 -0.0263 -0.3796 -0.8169
 3103TIP3    H230725   1.159   0.758  15.533  0.0866 -0.0576  0.7708
 3104TIP3   OH230726   0.093   5.040  13.689 -0.5683  0.2444 -0.3272
 3104TIP3    H130727  -0.002   5.029  13.694 -0.9391  2.4864 -1.2616
 3104TIP3    H230728   0.106   5.107  13.622  1.7018 -0.0864 -0.2976
 3105TIP3   OH230729   3.075   0.069   0.483 -0.4763  0.2484 -0.3219
 3105TIP3    H130730   3.072  -0.018   0.444 -1.2166 -0.3000  0.9202
 3105TIP3    H230731   2.987   0.104   0.470 -0.6094  0.2191  0.5015
 3106TIP3   OH230732   3.677   0.554   6.324  0.0281  0.8047  0.2108
 3106TIP3    H130733   3.678   0.571   6.419  1.1307  0.2699  0.3128
 3106TIP3    H230734   3.621   0.478   6.314  0.1348  0.6872  0.4748
 3107TIP3   OH230735   2.624   3.507   0.979  0.4553  0.0275 -0.0176
 3107TIP3    H130736   2.569   3.514   1.057  0.5949 -0.7913  0.1703
 3107TIP3    H230737   2.712   3.487   1.012  0.8680  1.2705 -0.3193
 3108TIP3   OH230738   2.214   5.118   5.990 -0.0123 -0.0501 -0.6870
 3108TIP3    H130739   2.283   5.090   6.051 -0.5294  0.0976 -0.0201
 3108TIP3    H230740   2.259   5.130   5.906  1.0212  1.3272  0.0367
 3109TIP3   OH230741   5.796   2.434   6.298  0.3959  0.1953 -0.1642
 3109TIP3    H130742   5.886   2.425   6.266  0.2850 -1.0758 -0.1825
 3109TIP3    H230743   5.795   2.386   6.380  0.3034  2.2165  1.0819
 3110TIP3   OH230744   2.975   0.149  12.967  0.5609  0.8365  0.1205
 3110TIP3    H130745   2.955   0.203  13.044  0.4030 -0.2604  0.8731
 3110TIP3    H230746   2.893   0.103  12.948  1.6418 -2.0819  1.9144
 3111TIP3   OH230747   1.145   1.402  10.772  0.3992  0.0114 -0.0999
 3111TIP3    H130748   1.159   1.346  10.848  1.5746  1.1953  0.6092
 3111TIP3    H230749   1.226   1.394  10.722 -0.8252 -1.7298 -1.9517
 3112TIP3   OH230750   4.501   5.802  13.623  0.1509 -0.1433 -0.0925
 3112TIP3    H130751   4.571   5.866  13.633 -1.9642  2.6205 -1.4344
 3112TIP3    H230752   4.488   5.795  13.528 -1.6909 -0.1163  0.1071
 3113TIP3   OH230753   1.813   0.093  12.550 -0.4064  0.0712 -0.5703
 3113TIP3    H130754   1.765   0.036  12.611  1.3314 -0.8707 -0.0183
 3113TIP3    H230755   1.902   0.057  12.549  0.1024  1.2802 -2.1666
 3114TIP3   OH230756   0.150   4.128  15.166  0.1076 -0.2620  0.1365
 3114TIP3    H130757   0.101   4.139  15.085 -0.1542  2.5514  0.5419
 3114TIP3    H230758   0.211   4.057  15.149  0.3279  0.4902 -2.6833
 3115TIP3   OH230759   4.319   4.208  13.538  0.3741  0.3227  0.1814
 3115TIP3    H130760   4.252   4.140  13.531 -0.3357  1.1561 -2.4417
 3115TIP3    H230761   4.292   4.260  13.614 -1.9630  0.5537 -0.7162
 3116TIP3   OH230762   4.745   1.607  15.017 -0.0879 -0.4097 -0.6576
 3116TIP3    H130763   4.674   1.667  15.039  0.2732  0.1791 -1.0853
 3116TIP3    H230764   4.752   1.611  14.922 -0.8319 -2.0249 -0.8025
 3117TIP3   OH230765   5.797   4.536  15.716 -0.1000 -0.0374  0.2948
 3117TIP3    H130766   5.749   4.458  15.687 -0.6908 -0.2899  1.8817
 3117TIP3    H230767   5.858   4.554  15.644 -0.9864 -1.0632 -0.7617
 3118TIP3   OH230768   6.339   1.053   0.114 -0.4039  0.2427  0.7186
 3118TIP3    H130769   6.389   0.972   0.110  0.3776  0.7238  0.6004
 3118TIP3    H230770   6.261   1.031   0.166  0.6221 -0.1580  2.1529
 3119TIP3   OH230771   0.683   4.046  16.862  0.3493 -0.1499  0.2815
 3119TIP3    H130772   0.770   4.012  16.842  0.8408  0.5052  1.2056
 3119TIP3    H230773   0.700   4.124  16.914 -0.7961  0.0016  0.4454
 3120TIP3   OH230774   5.138   0.476   2.186  0.3188 -0.3333 -0.3487
 3120TIP3    H130775   5.088   0.518   2.117 -0.3277 -0.1422  0.2215
 3120TIP3    H230776   5.117   0.383   2.178 -2.2260 -0.0057  1.4809
 3121TIP3   OH230777   3.982   1.019   0.587  0.1962  0.4383  0.0773
 3121TIP3    H130778   3.887   1.032   0.591  0.2898  1.3095 -0.4065
 3121TIP3    H230779   4.017   1.086   0.647  0.4300 -1.0651  1.7128
 3122TIP3   OH230780   4.624   3.730   4.428  0.1720 -0.1053  0.6249
 3122TIP3    H130781   4.703   3.698   4.384 -0.0808 -1.5162  1.1305
 3122TIP3    H230782   4.596   3.805   4.376  0.7669 -0.7735 -0.7035
 3123TIP3   OH230783   3.877   4.664  11.577  0.0880  0.2476 -0.0374
 3123TIP3    H130784   3.927   4.587  11.607  1.0061 -0.3236 -2.7115
 3123TIP3    H230785   3.879   4.724  11.651  2.9023 -0.6659  0.7691
 3124TIP3   OH230786   5.860   5.699  12.427  0.3306  0.1866 -0.4832
 3124TIP3    H130787   5.894   5.613  12.404 -0.5076 -0.4633  0.5692
 3124TIP3    H230788   5.853   5.697  12.523  1.0222  1.7144 -0.3609
 3125TIP3   OH230789   6.298   2.906  15.906 -0.9372  0.2737  0.8603
 3125TIP3    H130790   6.268   2.815  15.915 -2.5561  0.3772 -2.1483
 3125TIP3    H230791   6.390   2.897  15.879 -0.3637 -0.3320  2.8702
 3126TIP3   OH230792   4.346   3.834  13.476  0.2644  0.0282  0.0049
 3126TIP3    H130793   4.363   3.886  13.554 -0.4540 -1.4264  1.1749
 3126TIP3    H230794   4.402   3.757  13.486  1.9635  0.8550 -2.1066
 3127TIP3   OH230795   1.678   0.968   4.538  0.0640  0.8527 -0.5671
 3127TIP3    H130796   1.640   0.927   4.460  0.7900  0.5701 -0.7910
 3127TIP3    H230797   1.607   0.970   4.602 -0.0986 -0.4482 -0.6740
 3128TIP3   OH230798   2.780   5.387  13.901  0.7681  0.1686  0.1733
 3128TIP3    H130799   2.861   5.389  13.952  0.6678  1.1964  0.3127
 3128TIP3    H230800   2.717   5.435  13.955 -0.3883 -1.8618  0.7811
 3129TIP3   OH230801   2.943   5.909  15.370 -0.1278  0.4094 -0.3655
 3129TIP3    H130802   3.001   5.833  15.371 -0.5373  0.0544 -1.3643
 3129TIP3    H230803   2.981   5.970  15.433  0.3859 -0.4919  0.2169
 3130TIP3   OH230804   1.330   2.419  13.299 -0.4244  0.1548  0.3131
 3130TIP3    H130805   1.254   2.414  13.240 -0.2479  0.1233  0.0876
 3130TIP3    H230806   1.347   2.328  13.323  0.5773 -0.0263 -0.9669
 3131TIP3   OH230807   5.212   5.488  11.097  0.4181  0.1671 -0.3475
 3131TIP3    H130808   5.184   5.479  11.006  2.2523 -1.5342 -0.8024
 3131TIP3    H230809   5.267   5.567  11.098 -0.4247  0.7704 -0.4588
 3132TIP3   OH230810   5.647   6.496  11.645 -0.1633 -0.4230  0.0518
 3132TIP3    H130811   5.582   6.439  11.605  0.5784 -1.6506  0.5296
 3132TIP3    H230812   5.656   6.463  11.735  0.6184  0.1533  0.1998
 3133TIP3   OH230813   2.432   4.419   1.875 -0.1958 -0.1666 -0.3431
 3133TIP3    H130814   2.410   4.384   1.962 -0.2669  0.9778  0.1191
 3133TIP3    H230815   2.431   4.343   1.817  0.6721 -1.0849  0.8071
 3134TIP3   OH230816   4.277   6.509  16.571  0.3430 -0.4231 -0.4321
 3134TIP3    H130817   4.258   6.517  16.664 -2.8402  0.5283 -1.0298
 3134TIP3    H230818   4.360   6.556  16.559 -0.8914  2.5280  1.4418
 3135TIP3   OH230819   3.334   2.679  16.245 -0.4395 -0.1104 -0.2990
 3135TIP3    H130820   3.338   2.681  16.340  0.5452  1.2800 -0.3337
 3135TIP3    H230821   3.301   2.766  16.220  0.1716 -0.1331 -1.2394
 3136TIP3   OH230822   1.014   1.943   2.372  0.7190 -0.0652  0.6057
 3136TIP3    H130823   0.999   1.857   2.332 -0.4510  0.3910  0.0069
 3136TIP3    H230824   1.078   1.927   2.441  3.8614 -0.6900 -2.1746
 3137TIP3   OH230825   0.968   0.241  16.580 -0.2320 -0.3291 -0.1985
 3137TIP3    H130826   1.031   0.304  16.614  0.1518 -1.0768  0.5005
 3137TIP3    H230827   1.021   0.165  16.556 -0.9460 -1.3281  1.2516
 3138TIP3   OH230828   4.283   1.111  11.911 -0.2807  0.4509 -0.1343
 3138TIP3    H130829   4.244   1.045  11.853 -0.9646 -0.5834  1.4432
 3138TIP3    H230830   4.259   1.194  11.870 -0.9180 -0.2315 -1.2356
 3139TIP3   OH230831   4.186   0.429  12.074  1.0439  0.4249 -0.1503
 3139TIP3    H130832   4.137   0.430  12.156  1.4413 -1.4197  0.1599
 3139TIP3    H230833   4.174   0.517  12.037  0.7935  1.2583  1.8221
 3140TIP3   OH230834   5.050   5.368  15.934 -0.2489  0.0312 -0.1129
 3140TIP3    H130835   4.973   5.416  15.964 -0.7349 -0.3381 -0.7583
 3140TIP3    H230836   5.024   5.276  15.936 -1.0201  0.0427 -3.4632
 3141TIP3   OH230837   3.944   5.092  13.838 -0.3235  0.1801  0.2810
 3141TIP3    H130838   3.898   5.093  13.922 -1.0009 -0.0934 -0.0805
 3141TIP3    H230839   3.985   5.178  13.833 -1.5797  0.7959  0.1954
 3142TIP3   OH230840   3.687   2.157  15.123  0.0992  0.4338 -0.0556
 3142TIP3    H130841   3.599   2.186  15.149  0.2095 -0.4807  1.4735
 3142TIP3    H230842   3.683   2.062  15.125  0.3597  0.2941 -2.8486
 3143TIP3   OH230843   5.259   1.992   3.130  0.2677 -0.5457 -0.1669
 3143TIP3    H130844   5.254   1.989   3.035  1.4152 -0.5878 -0.2303
 3143TIP3    H230845   5.223   2.078   3.153 -1.9496 -1.3244 -0.4703
 3144TIP3   OH230846   2.605   0.388  16.985 -0.0029 -0.0581  0.1702
 3144TIP3    H130847   2.690   0.430  16.994 -0.3610  0.8153 -0.4071
 3144TIP3    H230848   2.626   0.295  16.973  0.9061  0.2135 -0.5059
 3145TIP3   OH230849   3.378   0.365   0.854  0.1913  0.1189  0.2998
 3145TIP3    H130850   3.319   0.440   0.841  1.0044  0.7215 -0.0117
 3145TIP3    H230851   3.365   0.311   0.777 -0.6468 -0.2380  0.6837
 3146TIP3   OH230852   5.777   2.940  16.124 -0.8359  0.0000  0.5143
 3146TIP3    H130853   5.809   3.024  16.156 -0.3521  0.4325 -1.0296
 3146TIP3    H230854   5.699   2.922  16.178 -0.9128  1.3963  0.9087
 3147TIP3   OH230855   0.313   3.710  16.332  0.6430  0.2535  0.5306
 3147TIP3    H130856   0.398   3.709  16.377  0.9931 -2.2617 -0.0327
 3147TIP3    H230857   0.332   3.680  16.243 -0.5987  1.5044 -0.2127
 3148TIP3   OH230858   3.596   3.267   3.934 -0.0786  0.2517  0.3897
 3148TIP3    H130859   3.517   3.232   3.892  0.4792 -0.0472 -0.4221
 3148TIP3    H230860   3.630   3.195   3.987  0.5278 -0.1490 -0.5184
 3149TIP3   OH230861   0.814   0.667   2.151 -0.3019  0.3813 -0.1203
 3149TIP3    H130862   0.906   0.682   2.129 -0.2451  0.0025 -0.1441
 3149TIP3    H230863   0.773   0.754   2.144  0.1044  0.5978  0.1420
 3150TIP3   OH230864   3.517   5.055   5.650 -0.2883  0.6081  0.3051
 3150TIP3    H130865   3.540   5.062   5.742  0.3260  2.3634  0.0593
 3150TIP3    H230866   3.459   4.979   5.645  2.6875 -1.9849  1.5185
 3151TIP3   OH230867   6.414   2.967  14.166 -0.2712  0.0083 -0.1630
 3151TIP3    H130868   6.506   2.940  14.170 -0.4406 -0.6177 -0.3939
 3151TIP3    H230869   6.401   2.995  14.076 -0.9029 -2.1457 -0.8030
 3152TIP3   OH230870   6.271   5.184   4.617 -0.3567 -0.1554 -0.1069
 3152TIP3    H130871   6.358   5.149   4.636 -0.0671  0.6124 -0.0093
 3152TIP3    H230872   6.283   5.236   4.537  0.1725  3.2348  1.9927
 3153TIP3   OH230873   5.473   1.967   3.536  0.0027 -0.3630 -0.1759
 3153TIP3    H130874   5.409   1.909   3.495 -0.1506 -1.5466  1.6125
 3153TIP3    H230875   5.492   2.033   3.469 -1.1714 -1.4345 -1.6436
 3154TIP3   OH230876   1.778   2.004  14.684 -0.0576 -0.0804 -0.0104
 3154TIP3    H130877   1.784   1.998  14.588 -0.4256  1.3221 -0.1471
 3154TIP3    H230878   1.851   2.062  14.708 -0.9669  0.9504  0.3559
 3155TIP3   OH230879   3.303   5.561  12.810 -0.1303 -0.3883  0.2265
 3155TIP3    H130880   3.324   5.467  12.815  0.2173 -0.2500  2.0143
 3155TIP3    H230881   3.386   5.602  12.786  0.0239 -0.4457  0.6455
 3156TIP3   OH230882   6.784   0.466  14.489  0.6525  0.3000 -0.3988
 3156TIP3    H130883   6.785   0.460  14.585 -1.7947  0.5756 -0.2942
 3156TIP3    H230884   6.806   0.557  14.471  2.2309 -0.0085 -0.1998
 3157TIP3   OH230885   5.864   1.742   5.683  0.2820  0.3557 -0.5812
 3157TIP3    H130886   5.894   1.754   5.592 -1.3635 -0.3115 -1.2584
 3157TIP3    H230887   5.848   1.648   5.690  0.0407  0.4554  0.2998
 3158TIP3   OH230888   0.650   4.638  11.741 -0.3376 -0.1818 -0.0662
 3158TIP3    H130889   0.673   4.626  11.834  1.2177 -0.7566 -0.4925
 3158TIP3    H230890   0.720   4.594  11.694 -0.0153  1.8460 -1.5685
 3159TIP3   OH230891   2.246   5.375   1.748  0.3539  0.2271 -0.5374
 3159TIP3    H130892   2.205   5.462   1.753 -0.6557 -0.2148 -0.9297
 3159TIP3    H230893   2.195   5.321   1.808 -0.0872 -0.5072 -1.5497
 3160TIP3   OH230894   2.003   2.336  16.733 -0.1909 -0.7302 -0.1860
 3160TIP3    H130895   1.908   2.342  16.742 -0.2112 -2.6327  1.6369
 3160TIP3    H230896   2.017   2.305  16.643 -1.2351  0.0897 -0.6484
 3161TIP3   OH230897   2.628   2.196  13.133 -0.0881 -0.5018 -0.7048
 3161TIP3    H130898   2.646   2.209  13.226 -1.6772  2.4261 -0.6931
 3161TIP3    H230899   2.706   2.152  13.099  1.9587  1.2796  1.4130
 3162TIP3   OH230900   6.539   5.741  16.966  0.2175  0.1100 -0.0270
 3162TIP3    H130901   6.556   5.657  16.923  0.5640  0.1848 -0.0402
 3162TIP3    H230902   6.516   5.800  16.895 -0.4994 -0.0887  0.0311
 3163TIP3   OH230903   0.891   1.929   0.485 -0.4979  0.1191  0.3516
 3163TIP3    H130904   0.874   2.009   0.436 -1.3559 -0.7502 -0.8378
 3163TIP3    H230905   0.926   1.959   0.569  0.3368  1.6767 -0.5106
 3164TIP3   OH230906   4.537   1.877   2.305 -0.4868  0.0776 -0.1213
 3164TIP3    H130907   4.601   1.867   2.376  0.0541 -0.6342 -0.6952
 3164TIP3    H230908   4.522   1.972   2.299  1.8790  0.4575 -1.1365
 3165TIP3   OH230909   2.313   3.605  11.402 -0.3161 -0.1024 -0.1689
 3165TIP3    H130910   2.367   3.569  11.471 -2.2927  0.5207  1.8190
 3165TIP3    H230911   2.375   3.632  11.334  1.5082 -3.3434  0.0146
 3166TIP3   OH230912   5.888   2.318   3.683  0.4553  0.0105 -0.3068
 3166TIP3    H130913   5.830   2.242   3.689 -0.0032  0.2748 -1.1285
 3166TIP3    H230914   5.976   2.282   3.676  0.2074 -0.4596 -1.0709
 3167TIP3   OH230915   2.682   4.180   6.117 -0.2979  0.1571  0.0049
 3167TIP3    H130916   2.738   4.102   6.115 -0.0787  0.3229 -0.6521
 3167TIP3    H230917   2.742   4.251   6.142 -0.6067  0.0370  1.1367
 3168TIP3   OH230918   3.766   2.594  15.271  0.2687 -0.3170 -0.2385
 3168TIP3    H130919   3.697   2.531  15.289  1.4682 -1.4725  0.4568
 3168TIP3    H230920   3.732   2.677  15.303  0.5288 -1.4664  3.4237
 3169TIP3   OH230921   0.292   1.976   0.740  0.1967  0.5358  0.0440
 3169TIP3    H130922   0.384   1.984   0.764 -0.1414  3.1815  0.7802
 3169TIP3    H230923   0.293   1.934   0.654  2.0809  0.3639  0.1127
 3170TIP3   OH230924   4.194   6.780   0.966 -0.0847  0.2332  0.0522
 3170TIP3    H130925   4.196   6.685   0.955 -0.9847 -0.0911  2.1891
 3170TIP3    H230926   4.136   6.811   0.896 -0.3948 -0.8760 -0.2067
 3171TIP3   OH230927   6.651   2.394  12.690 -0.0736 -0.6503  0.1176
 3171TIP3    H130928   6.565   2.355  12.701 -0.1951 -0.1450  1.0715
 3171TIP3    H230929   6.713   2.325  12.714 -0.1350 -1.5071 -2.0288
 3172TIP3   OH230930   1.327   4.008  15.254  0.3026 -0.1559  0.4036
 3172TIP3    H130931   1.347   4.095  15.289  1.0807 -0.6782  1.3200
 3172TIP3    H230932   1.262   3.973  15.314  0.0990 -0.2642  0.1201
 3173TIP3   OH230933   5.232   4.229   1.712 -0.0702  0.1176  0.6635
 3173TIP3    H130934   5.139   4.242   1.695 -1.2201 -1.7759  4.2023
 3173TIP3    H230935   5.263   4.176   1.639 -0.7086  3.6118 -2.4097
 3174TIP3   OH230936   5.078   2.736   0.389 -0.1081  0.1568 -0.4857
 3174TIP3    H130937   5.117   2.649   0.389  0.1769  0.2805  0.2793
 3174TIP3    H230938   4.984   2.720   0.398  0.1290 -0.0440  3.4404
 3175TIP3   OH230939   6.609   2.943  16.449  0.0074  0.1842  0.1089
 3175TIP3    H130940   6.696   2.948  16.410 -0.2329  1.6921 -0.3051
 3175TIP3    H230941   6.557   2.892  16.387  0.4637 -0.2647  0.0965
 3176TIP3   OH230942   6.028   2.178  17.102  0.1086 -0.0616  0.2315
 3176TIP3    H130943   6.067   2.101  17.144 -1.1628  0.6790  2.9362
 3176TIP3    H230944   6.053   2.252  17.157 -1.0974  1.0871 -0.6730
 3177TIP3   OH230945   0.151   1.990  15.375 -0.3314  0.2503 -0.4317
 3177TIP3    H130946   0.108   2.073  15.396 -1.2524 -0.0887 -0.9114
 3177TIP3    H230947   0.103   1.957  15.299  0.4681 -0.3965 -0.6717
 3178TIP3   OH230948   1.730   5.050  11.567 -0.4622 -0.2332 -0.1433
 3178TIP3    H130949   1.815   5.065  11.607 -0.0129 -1.5569 -0.5654
 3178TIP3    H230950   1.720   4.955  11.565 -1.3072 -0.1482 -1.4222
 3179TIP3   OH230951   1.787   1.180   0.173 -0.0588 -0.3723 -0.2000
 3179TIP3    H130952   1.787   1.235   0.252  1.4638  0.7355 -0.9251
 3179TIP3    H230953   1.701   1.138   0.173 -0.0379 -0.5721  2.1565
 3180TIP3   OH230954   5.321   1.721   3.086 -1.1481  0.0813  0.8144
 3180TIP3    H130955   5.347   1.813   3.094  2.1060 -0.5878 -0.7636
 3180TIP3    H230956   5.292   1.713   2.995  1.5693 -1.0035 -0.0478
 3181TIP3   OH230957   3.564   1.313  12.327  0.3568 -0.1957  0.0674
 3181TIP3    H130958   3.552   1.267  12.411 -2.3548  0.6522  0.2597
 3181TIP3    H230959   3.519   1.257  12.263 -0.3921  0.6997 -0.2157
 3182TIP3   OH230960   4.656   0.028   5.506  0.6910  0.5079 -0.2868
 3182TIP3    H130961   4.687  -0.060   5.528  1.8064  1.2634  1.3867
 3182TIP3    H230962   4.579   0.041   5.562  0.4436  0.5363 -0.6352
 3183TIP3   OH230963   5.820   0.069  12.792  0.1666  0.1310  0.2785
 3183TIP3    H130964   5.887   0.117  12.841  0.1375  1.5654 -1.0301
 3183TIP3    H230965   5.737   0.099  12.829  0.1722  0.4135  0.0614
 3184TIP3   OH230966   4.129   3.639   2.849 -0.1156  0.1145  0.0496
 3184TIP3    H130967   4.086   3.568   2.896  0.1402  0.7652  1.3086
 3184TIP3    H230968   4.193   3.595   2.792 -0.2976 -0.6740  0.4369
 3185TIP3   OH230969   1.351   0.012  15.379  0.0900  0.5957 -0.3726
 3185TIP3    H130970   1.403   0.044  15.305 -0.8159  1.4505 -0.6578
 3185TIP3    H230971   1.336  -0.080  15.359  0.4762  0.6347 -0.8774
 3186TIP3   OH230972   5.894   2.839  12.292  0.2839 -0.5252  0.3798
 3186TIP3    H130973   5.911   2.914  12.349  1.2123 -1.2340  1.0677
 3186TIP3    H230974   5.811   2.860  12.249  0.7017  1.0712  0.2693
 3187TIP3   OH230975   1.694   3.938  14.474 -0.0764 -0.2183  0.4293
 3187TIP3    H130976   1.643   3.898  14.545  1.0821 -3.4527 -0.3686
 3187TIP3    H230977   1.714   4.026  14.505 -1.3694 -0.7852  3.1908
 3188TIP3   OH230978   3.977   5.099  11.667 -0.1390  0.1528  0.1184
 3188TIP3    H130979   4.054   5.103  11.610  1.2241 -0.0158  1.8283
 3188TIP3    H230980   4.003   5.147  11.746 -1.3293 -0.9226  1.2336
 3189TIP3   OH230981   1.096   3.761   1.138 -0.1824  0.4475 -0.7545
 3189TIP3    H130982   1.022   3.701   1.146  0.3631 -0.4054 -1.8441
 3189TIP3    H230983   1.069   3.839   1.186 -1.1743 -0.4131  0.1177
 3190TIP3   OH230984   5.342   5.498   2.155 -0.3727  0.5834 -0.5628
 3190TIP3    H130985   5.297   5.580   2.131 -0.2719  0.5408 -0.8899
 3190TIP3    H230986   5.334   5.495   2.251  0.7225  1.6211 -0.4087
 3191TIP3   OH230987   4.251   1.271   6.182  0.0026 -0.5013  0.2745
 3191TIP3    H130988   4.282   1.264   6.272 -0.0066 -0.4301  0.2831
 3191TIP3    H230989   4.329   1.296   6.132 -0.2246  0.5368  0.4239
 3192TIP3   OH230990   6.263   1.888  14.235 -0.3904  0.4876  0.0071
 3192TIP3    H130991   6.225   1.929  14.312 -2.8638 -0.3822 -0.6389
 3192TIP3    H230992   6.239   1.946  14.162 -2.1298 -0.9690 -0.6454
 3193TIP3   OH230993   0.733   1.507   0.385  0.2063  0.0409  0.8660
 3193TIP3    H130994   0.746   1.577   0.449 -0.5060 -0.9118  2.0981
 3193TIP3    H230995   0.718   1.428   0.438 -1.7360 -0.5294 -0.4319
 3194TIP3   OH230996   1.776   6.231  15.786 -0.0014  0.4831 -0.4867
 3194TIP3    H130997   1.726   6.186  15.718  0.7589  0.5514 -1.1016
 3194TIP3    H230998   1.710   6.262  15.847 -0.7318  0.6766 -1.3509
 3195TIP3   OH230999   3.133   0.835  14.230 -1.1193  0.2240 -0.1041
 3195TIP3    H131000   3.046   0.873  14.224 -0.2124  2.3532 -0.9815
 3195TIP3    H231001   3.167   0.841  14.140 -0.1652 -0.7828  0.1760
 3196TIP3   OH231002   1.307   5.776   5.326  0.0459 -0.0688  0.2611
 3196TIP3    H131003   1.358   5.761   5.405 -1.8843  0.1902  1.6206
 3196TIP3    H231004   1.325   5.699   5.272  1.5747 -0.1452  0.8035
 3197TIP3   OH231005   0.925   2.476  15.750 -0.3016  0.1976  0.4915
 3197TIP3    H131006   0.950   2.538  15.681  0.7519 -0.4237  0.2955
 3197TIP3    H231007   0.876   2.529  15.813  0.8554  1.3072  0.4975
 3198TIP3   OH231008   6.127   0.421   2.795 -0.2955  0.2637  0.0500
 3198TIP3    H131009   6.048   0.474   2.798 -0.8244 -0.5367  1.1583
 3198TIP3    H231010   6.132   0.381   2.882  0.4135 -0.9884 -0.5414
 3199TIP3   OH231011   6.279   0.417   2.228 -0.7794  0.3854 -0.2534
 3199TIP3    H131012   6.192   0.377   2.237 -0.9797  1.2054  2.4666
 3199TIP3    H231013   6.283   0.480   2.300  1.9311  0.6727 -0.5676
 3200TIP3   OH231014   1.867   5.243  12.147  0.0391 -0.0127 -0.2501
 3200TIP3    H131015   1.920   5.283  12.078 -0.6136 -0.0769 -0.7980
 3200TIP3    H231016   1.805   5.186  12.100 -1.1331  0.7613  0.3022
 3201TIP3   OH231017   5.887   2.887   6.359 -0.3102 -0.0908 -0.1940
 3201TIP3    H131018   5.821   2.955   6.342 -0.9826 -1.2182 -2.4857
 3201TIP3    H231019   5.969   2.935   6.372 -1.2372  1.2487  1.0248
 3202TIP3   OH231020   4.567   5.652   1.644  0.0944 -0.1658 -0.2965
 3202TIP3    H131021   4.656   5.643   1.609  0.6794  0.1112  1.0614
 3202TIP3    H231022   4.541   5.562   1.665 -0.1575 -0.3040 -1.1490
 3203TIP3   OH231023   1.714   2.491  13.856 -0.3196 -0.7811  0.9830
 3203TIP3    H131024   1.662   2.535  13.789  1.0064  1.2217  1.1939
 3203TIP3    H231025   1.650   2.439  13.905 -1.6011 -0.8527 -0.6487
 3204TIP3   OH231026   5.561   1.164  14.067  0.1148  0.5674  0.1521
 3204TIP3    H131027   5.647   1.187  14.035  0.2855 -0.7729 -0.4266
 3204TIP3    H231028   5.524   1.246  14.100  1.7077  1.1040  0.6746
 3205TIP3   OH231029   3.071   5.489  14.685 -0.0040  0.0183 -0.2648
 3205TIP3    H131030   3.010   5.415  14.686  2.2026 -1.8844 -0.5141
 3205TIP3    H231031   3.016   5.565  14.707 -2.0952 -1.8471  1.3983
 3206TIP3   OH231032   1.367   5.328   2.535  0.0214 -0.0061 -0.1770
 3206TIP3    H131033   1.383   5.249   2.585  2.3071  1.1869  1.1153
 3206TIP3    H231034   1.311   5.300   2.463 -0.4487 -2.4714  1.0565
 3207TIP3   OH231035   1.828   3.329  12.038 -0.3046  0.0677 -0.1909
 3207TIP3    H131036   1.840   3.407  11.983  1.7651  0.2466  0.4230
 3207TIP3    H231037   1.756   3.352  12.096  0.8075  1.9384  0.5725
 3208TIP3   OH231038   1.054   5.095  13.911 -0.6090  0.1580 -0.0476
 3208TIP3    H131039   0.983   5.150  13.878 -0.8982 -0.0944  0.1524
 3208TIP3    H231040   1.029   5.074  14.001 -0.0971  0.3787  0.1519
 3209TIP3   OH231041   5.085   5.583   5.800 -0.1902  0.1591 -0.5845
 3209TIP3    H131042   5.003   5.602   5.754 -1.9563 -0.9057  1.9014
 3209TIP3    H231043   5.066   5.506   5.853  2.3930  0.0124  0.2688
 3210TIP3   OH231044   6.762   3.434   2.752 -0.4370 -0.0239  0.4483
 3210TIP3    H131045   6.709   3.488   2.811 -2.9666 -1.8953  0.0672
 3210TIP3    H231046   6.757   3.478   2.667 -0.0930  0.5918  0.7410
 3211TIP3   OH231047   6.749   4.000  11.281 -0.5022  0.1093  0.0074
 3211TIP3    H131048   6.708   4.038  11.203 -0.8385  0.1840  0.2184
 3211TIP3    H231049   6.707   3.914  11.290 -1.4918  0.6650  0.9078
 3212TIP3   OH231050   2.499   1.811  11.356  0.2113 -0.2288  0.2429
 3212TIP3    H131051   2.590   1.781  11.357  0.5589  0.7949  0.6838
 3212TIP3    H231052   2.495   1.874  11.285  0.3708  1.2070  1.4478
 3213TIP3   OH231053   5.803   1.189   0.391 -0.6033  0.7488  0.3028
 3213TIP3    H131054   5.725   1.187   0.447 -0.9738 -1.0403 -0.1941
 3213TIP3    H231055   5.769   1.175   0.303  0.2892 -0.7509  0.1613
 3214TIP3   OH231056   4.498   4.043   2.586 -0.0802  0.3361  0.4927
 3214TIP3    H131057   4.588   4.060   2.613  0.6224 -1.6972 -0.3932
 3214TIP3    H231058   4.502   4.034   2.491 -1.2080  0.0780  0.4503
 3215TIP3   OH231059   0.593   1.321  16.606 -0.0440 -0.3470 -0.3378
 3215TIP3    H131060   0.687   1.307  16.594 -0.2530 -1.9626 -0.3182
 3215TIP3    H231061   0.573   1.277  16.688 -0.8541 -0.1370 -0.4129
 3216TIP3   OH231062   3.375   3.099  16.914 -0.1485 -0.4668  0.2356
 3216TIP3    H131063   3.462   3.061  16.903 -0.0655  0.1002 -1.3518
 3216TIP3    H231064   3.331   3.042  16.977 -0.3873 -3.8654 -2.6728
 3217TIP3   OH231065   5.094   0.241  15.144 -0.2667  0.1241 -0.7174
 3217TIP3    H131066   5.069   0.218  15.055  0.6786  0.6464 -1.1366
 3217TIP3    H231067   5.071   0.334  15.152  0.2819  0.2559 -0.6522
 3218TIP3   OH231068   5.245   4.575   2.811 -0.4682  0.5576 -0.6385
 3218TIP3    H131069   5.259   4.623   2.729  0.6839  1.3795  0.0133
 3218TIP3    H231070   5.296   4.623   2.876  1.9265 -2.3255 -0.2107
 3219TIP3   OH231071   0.654   6.679   1.562  0.2397 -0.4551 -0.4691
 3219TIP3    H131072   0.659   6.632   1.478 -0.9182  1.3630 -1.6418
 3219TIP3    H231073   0.740   6.720   1.571  0.2283 -0.2819 -1.0478
 3220TIP3   OH231074   0.359   2.911  12.357 -0.7399 -0.1469  0.3907
 3220TIP3    H131075   0.333   2.953  12.439 -1.2914  0.2754  0.0055
 3220TIP3    H231076   0.451   2.936  12.345 -1.0788  1.0362  0.1244
 3221TIP3   OH231077   5.315   5.301  16.047 -0.9494  0.7543  0.0857
 3221TIP3    H131078   5.237   5.319  15.994 -1.0618  2.0809  0.6510
 3221TIP3    H231079   5.375   5.373  16.027  0.7465 -0.9413 -1.3604
 3222TIP3   OH231080   1.151   3.320  14.365 -0.5634  0.1023  0.0054
 3222TIP3    H131081   1.091   3.377  14.413 -1.6033  0.1016 -1.2439
 3222TIP3    H231082   1.120   3.322  14.275  0.9957 -0.3428 -0.5855
 3223TIP3   OH231083   3.658   1.905  13.399 -0.1118 -0.0948 -0.7374
 3223TIP3    H131084   3.644   2.000  13.405 -0.3859 -0.1566 -0.3720
 3223TIP3    H231085   3.576   1.867  13.431  0.6733 -0.4594  0.9215
 3224TIP3   OH231086   4.996   1.291   0.617  0.1355 -0.3418  0.4200
 3224TIP3    H131087   4.904   1.265   0.627 -0.4311  1.2113 -0.3285
 3224TIP3    H231088   5.015   1.276   0.525  0.0629  0.9264  0.1730
 3225TIP3   OH231089   2.869   1.709   6.385  0.2066 -0.4892 -0.4026
 3225TIP3    H131090   2.790   1.762   6.370  1.0546  0.5138 -1.4969
 3225TIP3    H231091   2.892   1.725   6.476 -0.0691  0.3141 -0.4684
 3226TIP3   OH231092   0.416   1.445  11.043 -0.0195  0.3336  0.1221
 3226TIP3    H131093   0.343   1.434  10.982 -1.5903  2.0784  1.5609
 3226TIP3    H231094   0.451   1.531  11.023  0.1283  0.4797  0.9734
 3227TIP3   OH231095   4.881   5.994  10.443 -0.2459 -0.2608  0.0236
 3227TIP3    H131096   4.880   6.056  10.370  0.6387 -1.0358 -0.6719
 3227TIP3    H231097   4.807   5.935  10.427  0.4049 -0.8984 -0.6779
 3228TIP3   OH231098   1.131   6.207  14.554 -0.0060 -0.1013 -0.2431
 3228TIP3    H131099   1.103   6.263  14.482 -1.5204  0.3595  0.6648
 3228TIP3    H231100   1.065   6.138  14.559 -0.7579  0.6869  1.6048
 3229TIP3   OH231101   0.463   4.349  16.916 -0.4226  0.5425  0.4534
 3229TIP3    H131102   0.450   4.274  16.858  0.4955  0.7786 -0.0776
 3229TIP3    H231103   0.557   4.365  16.913 -0.4805  1.1025  1.3359
 3230TIP3   OH231104   4.599   6.149   4.197  0.6762  0.4144  0.4010
 3230TIP3    H131105   4.678   6.098   4.181  0.9398  0.5322  1.3071
 3230TIP3    H231106   4.613   6.231   4.150  0.8454  0.2056  0.0881
 3231TIP3   OH231107   2.086   4.980   4.574  0.3212 -0.5456 -0.5792
 3231TIP3    H131108   2.174   5.017   4.562  0.1462 -0.0981 -0.4969
 3231TIP3    H231109   2.067   4.994   4.667  0.2770 -0.8992 -0.5335
 3232TIP3   OH231110   6.033   3.385  11.419 -0.6420  0.4465  0.0933
 3232TIP3    H131111   6.110   3.379  11.361 -0.6557  4.0916 -0.5431
 3232TIP3    H231112   5.959   3.367  11.361 -0.4207 -0.3461  0.0504
 3233TIP3   OH231113   3.241   0.855   5.128  0.1770 -0.1001 -0.7631
 3233TIP3    H131114   3.228   0.920   5.059 -1.5206  0.2365 -0.1895
 3233TIP3    H231115   3.314   0.888   5.180 -0.6691  1.3947 -0.4616
 3234TIP3   OH231116   0.073   2.495  16.420  0.6138 -0.4046  0.7998
 3234TIP3    H131117   0.118   2.530  16.344  1.9988 -1.1426  1.2455
 3234TIP3    H231118   0.028   2.570  16.459 -0.6888 -0.1465 -1.1013
 3235TIP3   OH231119   3.081   4.503  15.335  0.7703  0.0501  0.2676
 3235TIP3    H131120   3.079   4.595  15.361  1.3358  0.0455  0.3399
 3235TIP3    H231121   3.077   4.504  15.240 -2.3773  0.0351  0.3079
 3236TIP3   OH231122   6.783   5.869   0.069  0.2653 -0.2501 -0.1976
 3236TIP3    H131123   6.824   5.810   0.006  1.0315  1.3341 -1.2501
 3236TIP3    H231124   6.856   5.913   0.113 -0.2204 -1.8375  2.4114
 3237TIP3   OH231125   6.525   5.630  12.723  0.2450  0.5803 -0.5178
 3237TIP3    H131126   6.433   5.604  12.717  0.3155  0.4688 -1.1478
 3237TIP3    H231127   6.571   5.573  12.661  0.9476 -0.3132  0.7846
 3238TIP3   OH231128   6.331   5.228  12.018  0.3487  0.0356 -0.1943
 3238TIP3    H131129   6.414   5.198  11.980 -0.5541 -1.2233 -1.2727
 3238TIP3    H231130   6.281   5.262  11.943 -0.5971 -0.4064  0.2178
 3239TIP3   OH231131   5.829   1.478   4.896  0.9392  0.4829  0.3785
 3239TIP3    H131132   5.735   1.484   4.878  0.7437 -0.9838  0.7365
 3239TIP3    H231133   5.859   1.404   4.844  2.1476  1.6032 -0.5734
 3240TIP3   OH231134   2.425   3.665  14.642  0.2928  0.4546 -0.6007
 3240TIP3    H131135   2.507   3.620  14.660 -0.3804 -0.4119  0.4045
 3240TIP3    H231136   2.373   3.601  14.593  0.0945  0.8977 -0.9794
 3241TIP3   OH231137   6.468   0.160  14.141  0.3956  0.1504 -0.8569
 3241TIP3    H131138   6.376   0.182  14.151 -0.1861 -0.4210 -4.0029
 3241TIP3    H231139   6.513   0.217  14.204 -1.9009  2.2433 -0.9679
 3242TIP3   OH231140   0.823   2.417   3.826  0.1482 -0.5585  0.1059
 3242TIP3    H131141   0.887   2.391   3.891 -0.8016 -0.0840  1.2662
 3242TIP3    H231142   0.855   2.501   3.793  0.8899 -1.0353 -0.4264
 3243TIP3   OH231143   2.035   4.654   3.522  0.1953  0.5782 -0.0931
 3243TIP3    H131144   1.994   4.623   3.441  0.1241  1.9113 -0.5843
 3243TIP3    H231145   2.045   4.575   3.575 -1.2634 -0.0690 -0.7261
 3244TIP3   OH231146   3.136   6.638   6.461  0.3257  0.5737 -0.2031
 3244TIP3    H131147   3.135   6.554   6.506 -0.6632  1.5867  1.8248
 3244TIP3    H231148   3.054   6.640   6.411  0.6817  0.0707 -0.8155
 3245TIP3   OH231149   3.802   1.413   4.708  0.2987 -0.0871  0.2725
 3245TIP3    H131150   3.894   1.387   4.712  0.2706 -0.0379  1.5707
 3245TIP3    H231151   3.786   1.431   4.615  1.2639 -1.2887 -0.1525
 3246TIP3   OH231152   6.197   3.335   3.856  0.4029 -0.1802  0.1163
 3246TIP3    H131153   6.125   3.332   3.919  0.7047 -2.3986  0.4355
 3246TIP3    H231154   6.154   3.332   3.771  0.0588  0.8877  0.2436
 3247TIP3   OH231155   2.811   2.862  14.633  0.1433  0.5317  0.5737
 3247TIP3    H131156   2.883   2.921  14.655 -0.0555  0.7616  0.6184
 3247TIP3    H231157   2.766   2.906  14.561  2.2819 -1.3699 -2.1523
 3248TIP3   OH231158   5.736   5.602  15.517 -0.7205 -0.1111  0.4091
 3248TIP3    H131159   5.747   5.687  15.561  0.7663 -0.5123  0.8650
 3248TIP3    H231160   5.645   5.578  15.535 -0.8600  0.8967  1.1837
 3249TIP3   OH231161   0.365   3.856   3.570 -0.1351  0.3877 -0.3396
 3249TIP3    H131162   0.328   3.837   3.484 -1.7374  0.7030  0.2438
 3249TIP3    H231163   0.293   3.839   3.631  1.3490 -1.0772  1.0830
 3250TIP3   OH231164   4.078   1.633   0.412  0.0570 -0.7242 -0.1468
 3250TIP3    H131165   4.001   1.584   0.384  0.8730 -3.1149  1.5111
 3250TIP3    H231166   4.062   1.652   0.504  0.7093  0.2668 -0.2243
 3251TIP3   OH231167   2.499   5.552   0.032  0.7385 -0.3563  0.5137
 3251TIP3    H131168   2.473   5.522  -0.055 -2.8680  1.0328  0.9423
 3251TIP3    H231169   2.458   5.490   0.093  0.6769  0.3958  1.2563
 3252TIP3   OH231170   1.578   3.176  16.187 -0.2681 -0.0127  0.4084
 3252TIP3    H131171   1.511   3.244  16.190  0.1561  0.4104  0.3025
 3252TIP3    H231172   1.532   3.100  16.152 -0.4640  0.5491 -0.5832
 3253TIP3   OH231173   2.662   2.266   3.697  0.1812  0.5904  0.0637
 3253TIP3    H131174   2.669   2.229   3.785 -0.0338  0.5981  0.0856
 3253TIP3    H231175   2.742   2.238   3.652 -0.7534 -1.3682 -0.4758
 3254TIP3   OH231176   0.345   1.856  15.234 -0.2010 -0.4080  0.9583
 3254TIP3    H131177   0.301   1.868  15.150  1.0328  0.0734  0.3479
 3254TIP3    H231178   0.308   1.922  15.292  2.0520  2.3516 -0.5327
 3255TIP3   OH231179   2.783   2.434  13.052 -0.4656 -0.0454  0.0201
 3255TIP3    H131180   2.757   2.342  13.047  0.4650 -0.4285  1.5147
 3255TIP3    H231181   2.711   2.478  13.096 -1.4572  0.2281 -1.7548
 3256TIP3   OH231182   0.148   4.931   4.735 -0.0453 -0.4448  0.4033
 3256TIP3    H131183   0.173   4.841   4.756 -0.1688 -0.3336  1.0490
 3256TIP3    H231184   0.201   4.985   4.793  0.3894 -0.0730 -0.3291
 3257TIP3   OH231185   1.538   5.638   0.380 -0.2075  0.2672  0.2999
 3257TIP3    H131186   1.530   5.724   0.420 -1.1687  1.5827 -2.5085
 3257TIP3    H231187   1.626   5.636   0.342 -1.3816  1.6122 -2.8070
 3258TIP3   OH231188   1.585   1.761  15.952  0.0907 -0.2612 -0.0243
 3258TIP3    H131189   1.626   1.759  15.865 -1.6542  0.5681 -0.9222
 3258TIP3    H231190   1.603   1.675  15.989  2.3519 -0.0350 -0.4603
 3259TIP3   OH231191   2.112   2.098  14.609 -0.0629 -0.9284 -0.0138
 3259TIP3    H131192   2.150   2.011  14.597  0.7363 -0.8931  1.9509
 3259TIP3    H231193   2.177   2.158  14.574  0.7962 -0.9890  1.4077
 3260TIP3   OH231194   4.527   4.801  15.975  0.5179  0.2331  0.2908
 3260TIP3    H131195   4.572   4.727  16.015  2.6202  1.3991  0.2193
 3260TIP3    H231196   4.597   4.856  15.939 -0.9862  2.0235 -0.0922
 3261TIP3   OH231197   4.430   0.095  16.722  0.2530 -0.5115  0.1730
 3261TIP3    H131198   4.454   0.074  16.813  0.6989  1.6812  0.6011
 3261TIP3    H231199   4.432   0.190  16.718 -0.5786 -0.5436 -1.9494
 3262TIP3   OH231200   4.638   4.917  16.286  0.3396 -0.1244  0.3516
 3262TIP3    H131201   4.575   4.937  16.355  0.0710  2.3453 -0.5161
 3262TIP3    H231202   4.597   4.950  16.206  1.1581 -1.8576 -0.8388
 3263TIP3   OH231203   0.375   3.841   0.751  0.1139  0.7611 -0.0727
 3263TIP3    H131204   0.368   3.930   0.719  0.8180  0.9917  0.3956
 3263TIP3    H231205   0.386   3.850   0.846 -2.0226  0.0943  0.2980
 3264TIP3   OH231206   5.611   3.967  14.155  0.1677 -0.9742  0.3305
 3264TIP3    H131207   5.668   4.010  14.219  1.0199 -2.2187  0.4273
 3264TIP3    H231208   5.586   3.884  14.196 -0.9652 -0.8714 -0.1085
 3265TIP3   OH231209   3.426   3.780  16.238 -0.3352 -0.1257  0.9105
 3265TIP3    H131210   3.334   3.755  16.242 -0.6302  0.9708  1.3489
 3265TIP3    H231211   3.460   3.762  16.325 -0.0197 -0.8955  0.6389
 3266TIP3   OH231212   3.191   0.976  16.989 -0.3852  0.1149  0.2738
 3266TIP3    H131213   3.221   1.008  16.904  0.2600 -2.0312 -0.3604
 3266TIP3    H231214   3.231   1.035  17.053  4.5385 -1.9356 -0.5430
 3267TIP3   OH231215   2.920   2.826   3.077 -1.3535 -0.7272 -0.8993
 3267TIP3    H131216   3.005   2.846   3.118 -2.5857  2.2805  0.5048
 3267TIP3    H231217   2.879   2.763   3.135 -2.1013  1.7102  1.3865
 3268TIP3   OH231218   1.334   1.601   3.014 -0.0762 -0.1706  0.4393
 3268TIP3    H131219   1.407   1.613   2.954  0.5126  2.0954  1.4884
 3268TIP3    H231220   1.259   1.583   2.957  0.3722  2.2327 -1.1048
 3269TIP3   OH231221   3.299   2.438   4.085 -0.0420 -0.5804  0.0915
 3269TIP3    H131222   3.282   2.390   4.004 -1.9731 -1.3759  0.8959
 3269TIP3    H231223   3.231   2.408   4.145  1.7104 -0.4932  2.2336
 3270TIP3   OH231224   6.480   6.781   0.898 -0.6308  0.1270 -0.0452
 3270TIP3    H131225   6.461   6.710   0.836 -0.7163  0.4276 -0.3651
 3270TIP3    H231226   6.457   6.861   0.851  2.2240  0.6237 -0.8490
 3271TIP3   OH231227   3.197   5.827   5.946 -0.3115 -0.3769 -0.7407
 3271TIP3    H131228   3.184   5.907   5.996 -2.7544 -0.7232 -0.6609
 3271TIP3    H231229   3.228   5.763   6.010 -0.6527 -0.0832 -0.2759
 3272TIP3   OH231230   4.538   0.217  15.728  0.1114 -0.6517  0.0314
 3272TIP3    H131231   4.623   0.259  15.726 -0.3893  0.4427 -2.2039
 3272TIP3    H231232   4.513   0.209  15.636 -3.4840  1.8954  0.5237
 3273TIP3   OH231233   4.183   5.457  15.639  0.5668 -0.8368  0.4030
 3273TIP3    H131234   4.096   5.457  15.598  1.5677 -0.0793 -1.9321
 3273TIP3    H231235   4.183   5.534  15.694 -0.2244 -0.8061  0.3813
 3274TIP3   OH231236   2.357   4.116   5.730 -0.5266  0.6380 -0.2373
 3274TIP3    H131237   2.405   4.054   5.675 -0.1576  1.7103 -1.1553
 3274TIP3    H231238   2.412   4.126   5.808 -0.6871 -0.3219  0.0148
 3275TIP3   OH231239   3.374   3.184  15.453  0.5534 -0.1366  0.3267
 3275TIP3    H131240   3.378   3.091  15.475 -0.9690 -0.3076 -0.0417
 3275TIP3    H231241   3.300   3.192  15.393  0.5364  1.3470  0.5061
 3276TIP3   OH231242   0.799   0.342   0.918  0.4627  0.1599 -0.1493
 3276TIP3    H131243   0.779   0.388   1.000  0.5110 -0.9667  0.5215
 3276TIP3    H231244   0.885   0.376   0.892  1.0916 -0.4670  1.0279
 3277TIP3   OH231245   0.780   4.435   5.842  0.2376  0.5105 -0.3621
 3277TIP3    H131246   0.775   4.343   5.816  1.5322  0.6329 -1.1696
 3277TIP3    H231247   0.866   4.464   5.812  0.8588  1.3582  1.9752
 3278TIP3   OH231248   1.059   6.726   0.800  0.1801  0.1582  0.5930
 3278TIP3    H131249   1.006   6.719   0.720  1.5172  0.6171 -0.3609
 3278TIP3    H231250   1.069   6.820   0.813  0.6126  0.0745  0.8658
 3279TIP3   OH231251   4.448   0.924  11.611 -0.1024  0.3755  0.2097
 3279TIP3    H131252   4.513   0.903  11.544 -0.3738  0.7654 -0.1832
 3279TIP3    H231253   4.364   0.922  11.565 -0.5419 -1.4527  0.9944
 3280TIP3   OH231254   3.813   3.812  14.708 -0.4594 -0.0704 -0.5181
 3280TIP3    H131255   3.752   3.873  14.750  0.6439  0.6105  0.1512
 3280TIP3    H231256   3.776   3.797  14.621 -1.4600  0.4928 -0.2062
 3281TIP3   OH231257   0.108   6.606   2.961  0.0746 -0.2717 -0.2447
 3281TIP3    H131258   0.064   6.679   3.005  0.6036  0.5835 -1.0946
 3281TIP3    H231259   0.125   6.638   2.872  0.6709 -1.2920 -0.5163
 3282TIP3   OH231260   4.552   4.113  15.647  0.1669  0.2148 -0.3448
 3282TIP3    H131261   4.546   4.025  15.609  1.8404  0.4861 -1.3378
 3282TIP3    H231262   4.478   4.161  15.609 -1.0913 -0.8775  0.6340
 3283TIP3   OH231263   4.099   4.431   0.235  0.5064 -0.0538  0.4339
 3283TIP3    H131264   4.053   4.509   0.205 -0.1320  0.0217  1.5526
 3283TIP3    H231265   4.030   4.369   0.256  1.0052 -2.1230 -3.2980
 3284TIP3   OH231266   1.073   4.098   3.187 -0.4289 -0.0627 -0.3071
 3284TIP3    H131267   1.075   4.193   3.197  2.2497 -0.0072 -0.7268
 3284TIP3    H231268   1.060   4.064   3.275  2.4671  0.6919  0.4947
 3285TIP3   OH231269   5.982   4.331  15.334 -0.1100  0.4386 -0.0186
 3285TIP3    H131270   6.008   4.328  15.242 -1.1124  0.3212 -0.3125
 3285TIP3    H231271   5.894   4.292  15.335 -0.4066  1.1028  0.8709
 3286TIP3   OH231272   5.326   5.122   5.291 -0.2704 -0.5799  0.2173
 3286TIP3    H131273   5.272   5.166   5.357 -0.4473 -0.8057  0.2232
 3286TIP3    H231274   5.375   5.193   5.249 -1.6979 -0.1657 -0.8423
 3287TIP3   OH231275   6.514   1.950  17.062  0.0887  0.1601 -0.2543
 3287TIP3    H131276   6.487   1.978  16.974  0.6623  0.0225 -0.4829
 3287TIP3    H231277   6.465   1.870  17.078  1.4352 -0.9276 -1.2899
 3288TIP3   OH231278   4.958   0.664  12.698  0.0526  0.2408 -0.1419
 3288TIP3    H131279   4.908   0.596  12.744  0.5322 -1.1608 -1.6252
 3288TIP3    H231280   5.046   0.628  12.689 -0.2134  0.0522 -2.8473
 3289TIP3   OH231281   0.768   0.233  16.783 -0.2672 -0.5678  0.1994
 3289TIP3    H131282   0.716   0.159  16.751 -2.2364  0.5512  0.6060
 3289TIP3    H231283   0.800   0.276  16.703 -1.1873 -0.4769 -0.1375
 3290TIP3   OH231284   3.603   3.957   5.892  0.3935  0.0232 -0.7540
 3290TIP3    H131285   3.688   3.984   5.859  0.0222  1.1328 -0.8447
 3290TIP3    H231286   3.541   3.981   5.822 -0.0739 -0.1732 -0.4150
 3291TIP3   OH231287   3.345   2.095   0.932 -0.3927 -0.5160  0.3470
 3291TIP3    H131288   3.297   2.040   0.869 -1.4028 -0.4134  0.9952
 3291TIP3    H231289   3.277   2.128   0.991  0.1180  1.7635 -0.2413
 3292TIP3   OH231290   1.349   6.006  12.700  0.5991  0.6285 -0.8997
 3292TIP3    H131291   1.434   6.047  12.711 -0.5862  2.5472  2.4660
 3292TIP3    H231292   1.329   5.966  12.785 -2.2875  1.2099 -1.1724
 3293TIP3   OH231293   5.435   2.028  15.868 -0.2232  0.1749  0.2537
 3293TIP3    H131294   5.375   1.955  15.879 -0.7800  0.7115  0.9045
 3293TIP3    H231295   5.509   1.992  15.820 -0.8637 -0.6057 -0.1641
 3294TIP3   OH231296   0.441   4.096   3.968  0.5545 -0.6645  0.8696
 3294TIP3    H131297   0.375   4.156   3.935 -0.8803 -1.3180  2.4222
 3294TIP3    H231298   0.504   4.087   3.896  0.2631  1.8339  0.2115
 3295TIP3   OH231299   2.851   6.635  14.420 -0.1005  0.4017 -0.3468
 3295TIP3    H131300   2.928   6.627  14.364 -0.4742 -0.7759 -0.7216
 3295TIP3    H231301   2.816   6.722  14.401  2.6722  2.2115  1.8768
 3296TIP3   OH231302   6.565   0.412  14.272 -0.0407 -0.0714  0.0401
 3296TIP3    H131303   6.585   0.429  14.363 -1.3047 -0.2668  0.3743
 3296TIP3    H231304   6.552   0.499  14.233 -2.3030 -0.0215  0.7471
 3297TIP3   OH231305   6.144   2.388   4.527 -0.2139  0.2263 -0.0657
 3297TIP3    H131306   6.211   2.326   4.498 -1.3205 -0.4366 -1.3395
 3297TIP3    H231307   6.167   2.470   4.484  1.0530  0.6506  1.3364
 3298TIP3   OH231308   5.552   0.230  14.215 -0.1866 -0.5129  0.3620
 3298TIP3    H131309   5.459   0.246  14.206  0.0039  0.6440  0.3091
 3298TIP3    H231310   5.579   0.285  14.289  0.3287 -1.3882  0.8487
 3299TIP3   OH231311   0.190   0.331  14.798  0.6703  0.3124  0.1478
 3299TIP3    H131312   0.175   0.258  14.738  1.8623 -1.2282  1.5897
 3299TIP3    H231313   0.108   0.379  14.799 -0.0487 -0.8191 -1.1092
 3300TIP3   OH231314   2.917   4.628   1.430 -0.0736  0.1055  0.7588
 3300TIP3    H131315   2.951   4.574   1.359 -1.1805 -0.0260  0.3019
 3300TIP3    H231316   2.969   4.604   1.506  1.8962  1.0662 -0.2212
 3301TIP3   OH231317   1.186   5.526   1.801 -0.2759  0.4104 -0.2240
 3301TIP3    H131318   1.237   5.473   1.863  0.3124 -0.6286 -1.5298
 3301TIP3    H231319   1.098   5.529   1.839  0.6789  2.2586  2.0964
 3302TIP3   OH231320   6.663   2.272  12.397  0.1516  0.3400 -0.0338
 3302TIP3    H131321   6.605   2.195  12.396  1.4418 -0.7562  2.0028
 3302TIP3    H231322   6.628   2.328  12.466  0.1603  0.8031 -0.4018
 3303TIP3   OH231323   2.322   0.215   2.521  0.0339 -0.0459 -0.5404
 3303TIP3    H131324   2.304   0.296   2.474  0.5809  1.6482  1.9608
 3303TIP3    H231325   2.316   0.239   2.614 -1.3993 -3.2387  0.3549
 3304TIP3   OH231326   4.148   3.377  11.207  0.1411  0.0732 -0.1257
 3304TIP3    H131327   4.095   3.297  11.195  1.1653 -0.6689  0.2066
 3304TIP3    H231328   4.151   3.416  11.120 -2.3879  1.0778  0.1571
 3305TIP3   OH231329   4.166   5.186  16.364 -0.3083  0.2404 -0.1656
 3305TIP3    H131330   4.157   5.261  16.423 -0.8514  0.1094 -0.0733
 3305TIP3    H231331   4.154   5.222  16.277 -1.3454  0.1540 -0.0765
 3306TIP3   OH231332   4.389   1.778   5.366 -0.1944  0.1733 -0.9698
 3306TIP3    H131333   4.411   1.853   5.422  3.5141 -0.1228 -1.7591
 3306TIP3    H231334   4.300   1.795   5.337 -0.5554  2.7299  1.2483
 3307TIP3   OH231335   3.024   0.011  12.367  0.7069  0.2641  0.3780
 3307TIP3    H131336   3.119   0.011  12.380  0.7234  1.2518  0.3120
 3307TIP3    H231337   2.998   0.102  12.381 -0.0486  0.2511 -0.8297
 3308TIP3   OH231338   4.340   1.460   1.415 -0.0270 -0.1346 -0.4299
 3308TIP3    H131339   4.400   1.524   1.378 -0.7058  0.4016 -0.6265
 3308TIP3    H231340   4.342   1.386   1.354 -0.2226  0.2454 -0.9046
 3309TIP3   OH231341   1.750   5.359   0.154 -0.4651 -0.2119 -0.4163
 3309TIP3    H131342   1.730   5.449   0.181  0.6473  0.0555 -0.4496
 3309TIP3    H231343   1.679   5.307   0.192 -1.3742  0.7231 -0.7690
 3310TIP3   OH231344   3.572   5.777  13.361 -0.0272  0.2397 -0.1024
 3310TIP3    H131345   3.516   5.841  13.405 -0.9828 -1.6736  1.6722
 3310TIP3    H231346   3.658   5.818  13.358 -0.9489  2.2489 -0.5758
 3311TIP3   OH231347   4.983   1.662   6.243 -0.1852 -0.4067  0.1894
 3311TIP3    H131348   5.051   1.622   6.297 -0.4529 -0.1443  0.7269
 3311TIP3    H231349   5.030   1.694   6.165  0.9605  2.8878  2.0624
 3312TIP3   OH231350   4.046   2.730  11.681  0.4050  0.2551 -0.4968
 3312TIP3    H131351   4.129   2.777  11.665  0.0281  0.7685 -1.0110
 3312TIP3    H231352   4.033   2.736  11.775  0.7652  0.5060 -0.4578
 3313TIP3   OH231353   0.258   2.947   2.601 -0.0198 -0.0736 -0.1628
 3313TIP3    H131354   0.199   2.999   2.547  0.9704 -0.0295 -1.2633
 3313TIP3    H231355   0.345   2.981   2.580  0.4359 -0.2943  1.2281
 3314TIP3   OH231356   6.611   4.812  14.744  0.2340  0.0106  0.0970
 3314TIP3    H131357   6.675   4.837  14.811  1.4752 -1.3553 -0.5232
 3314TIP3    H231358   6.540   4.772  14.793  0.7830 -0.2894  0.6644
 3315TIP3   OH231359   3.211   0.447  15.673  0.5237 -0.0914  0.3460
 3315TIP3    H131360   3.192   0.367  15.624  0.8860 -0.8203  1.3492
 3315TIP3    H231361   3.305   0.441  15.691  0.5335  0.5199  0.4969
 3316TIP3   OH231362   5.482   3.325  13.421 -0.6309  0.0046 -0.2198
 3316TIP3    H131363   5.546   3.318  13.492  0.0303 -0.9279 -0.8969
 3316TIP3    H231364   5.402   3.354  13.465  0.1796  0.9905  0.6686
 3317TIP3   OH231365   0.762   6.382   2.561 -0.1831  0.1883  0.1224
 3317TIP3    H131366   0.700   6.402   2.491  0.3775 -0.0746 -0.4610
 3317TIP3    H231367   0.708   6.343   2.630 -0.5885 -0.5857 -0.6157
 3318TIP3   OH231368   4.241   4.925  13.532 -0.1661 -1.1814 -0.7542
 3318TIP3    H131369   4.247   5.020  13.521 -1.0578 -0.9126  0.8593
 3318TIP3    H231370   4.289   4.890  13.457  1.6125  0.5434 -0.4986
 3319TIP3   OH231371   3.938   1.084   1.122  0.0140 -0.3015  0.2060
 3319TIP3    H131372   3.882   1.030   1.066 -1.1434  2.0112 -1.0089
 3319TIP3    H231373   3.932   1.172   1.084  2.6313  0.5171  1.4673
 3320TIP3   OH231374   2.007   6.468  11.582 -0.2415  0.1379 -0.2434
 3320TIP3    H131375   2.025   6.533  11.514  0.1128  0.3840  0.0814
 3320TIP3    H231376   1.990   6.387  11.534 -0.0130  0.3157 -0.6270
 3321TIP3   OH231377   5.243   5.335  13.193  0.1519  0.1315  0.1439
 3321TIP3    H131378   5.284   5.380  13.266  2.3309 -0.4125 -0.6489
 3321TIP3    H231379   5.227   5.246  13.225  3.1286 -0.7931 -0.5383
 3322TIP3   OH231380   6.438   0.450   3.720 -0.1285  0.8238  0.3495
 3322TIP3    H131381   6.346   0.468   3.699 -0.8709 -1.9763  0.8051
 3322TIP3    H231382   6.486   0.479   3.643 -1.7695 -0.5909 -1.3041
 3323TIP3   OH231383   2.279   5.377  14.466  0.2051 -0.6251 -0.3211
 3323TIP3    H131384   2.259   5.299  14.414 -0.5635 -0.8753  0.3271
 3323TIP3    H231385   2.221   5.445  14.431  1.6892  0.0079 -1.6648
 3324TIP3   OH231386   1.052   1.971  13.423  0.4551 -0.3352 -0.3446
 3324TIP3    H131387   1.110   2.006  13.492 -0.5216 -3.3173  2.2322
 3324TIP3    H231388   1.011   2.048  13.385  0.3579  1.5243  3.1087
 3325TIP3   OH231389   5.838   2.463   6.642 -0.0607  0.1482 -0.4489
 3325TIP3    H131390   5.919   2.436   6.686  0.6770  1.0000 -1.2339
 3325TIP3    H231391   5.867   2.528   6.578 -1.3026  0.0324 -1.1463
 3326TIP3   OH231392   5.175   5.433   3.790  0.3294  0.6617  0.1333
 3326TIP3    H131393   5.163   5.460   3.880 -1.1192  1.5413 -0.2987
 3326TIP3    H231394   5.124   5.352   3.782 -0.2751  1.0696 -0.1296
 3327TIP3   OH231395   2.579   6.277  12.586  0.5282  0.4000  0.3732
 3327TIP3    H131396   2.612   6.366  12.599 -0.7445  1.0613 -0.7303
 3327TIP3    H231397   2.512   6.266  12.654 -0.3004  0.8283 -0.3479
 3328TIP3   OH231398   5.595   4.689   2.044 -0.2839 -0.1674 -0.5087
 3328TIP3    H131399   5.632   4.624   1.984 -1.3229  0.8645 -2.3676
 3328TIP3    H231400   5.502   4.692   2.021 -0.2878  1.8405 -0.3780
 3329TIP3   OH231401   4.545   1.355  15.748 -0.5690  0.0479  0.5169
 3329TIP3    H131402   4.520   1.439  15.710 -1.9192 -1.1387 -1.4024
 3329TIP3    H231403   4.594   1.311  15.678 -0.3250 -0.9647  1.3010
 3330TIP3   OH231404   1.993   3.964   4.529  0.3895  0.2555 -0.6656
 3330TIP3    H131405   2.062   4.023   4.499 -0.1371  0.1357 -2.1893
 3330TIP3    H231406   1.978   3.989   4.621  1.5090  1.1736 -0.7117
 3331TIP3   OH231407   4.234   5.470  11.890  0.2072 -0.4486  0.0394
 3331TIP3    H131408   4.228   5.523  11.969 -3.3640  0.0237 -0.3924
 3331TIP3    H231409   4.319   5.426  11.897 -0.4275 -1.4730  4.8008
 3332TIP3   OH231410   6.672   4.036   3.377  0.3408 -0.4244 -0.6272
 3332TIP3    H131411   6.749   4.016   3.325  0.0889  1.0561 -1.6182
 3332TIP3    H231412   6.705   4.042   3.467  1.0190 -1.6396 -0.7718
 3333TIP3   OH231413   2.875   2.401  16.403 -0.4151 -0.4152 -0.3815
 3333TIP3    H131414   2.857   2.460  16.330  0.4961 -1.6687 -1.6616
 3333TIP3    H231415   2.955   2.435  16.443  0.0927 -0.7573 -1.0977
 3334TIP3   OH231416   5.819   5.529   2.747 -0.3045  0.3952 -0.1569
 3334TIP3    H131417   5.804   5.462   2.681 -0.2305 -0.4567  0.6815
 3334TIP3    H231418   5.909   5.517   2.776 -0.5370  0.3245  0.5738
 3335TIP3   OH231419   0.646   3.425  14.080 -0.0912 -0.4202  0.6901
 3335TIP3    H131420   0.720   3.393  14.028  0.9828  0.1986  1.7807
 3335TIP3    H231421   0.605   3.491  14.024  0.3869 -0.5378  0.1916
 3336TIP3   OH231422   0.305   0.688  13.401 -0.0107 -0.4408 -0.0960
 3336TIP3    H131423   0.372   0.672  13.335  1.2882  0.6599  0.8844
 3336TIP3    H231424   0.298   0.606  13.450 -1.1350 -1.3359 -1.6543
 3337TIP3   OH231425   1.221   4.913  15.504 -0.1719  0.3983  0.0833
 3337TIP3    H131426   1.279   4.898  15.429  1.3519 -0.9112  1.4460
 3337TIP3    H231427   1.133   4.910  15.467  0.5479  0.6350 -1.7743
 3338TIP3   OH231428   3.782   4.716   2.817  0.0311 -0.0743  0.2074
 3338TIP3    H131429   3.852   4.658   2.848  0.0943 -0.4083 -0.5349
 3338TIP3    H231430   3.739   4.666   2.748  0.6102  1.0762 -1.0247
 3339TIP3   OH231431   1.269   4.224  17.015 -0.4370  0.2430  0.2161
 3339TIP3    H131432   1.216   4.151  17.048 -1.1014 -0.0943 -1.4781
 3339TIP3    H231433   1.229   4.246  16.931  2.7224 -0.7784 -1.7309
 3340TIP3   OH231434   1.865   3.824   5.960  0.2759 -0.2482 -0.1486
 3340TIP3    H131435   1.891   3.915   5.978 -0.1687  0.0088 -0.7615
 3340TIP3    H231436   1.861   3.819   5.864 -0.6395 -0.6366 -0.1063
 3341TIP3   OH231437   2.404   4.485  11.902 -0.5293  0.0820  0.4844
 3341TIP3    H131438   2.478   4.531  11.864 -0.4284 -0.9057 -0.5464
 3341TIP3    H231439   2.435   4.456  11.988  0.1806 -0.0737  0.1809
 3342TIP3   OH231440   0.692   2.237   0.623  0.4879 -0.1032  0.3572
 3342TIP3    H131441   0.778   2.225   0.664  1.0197  0.6189 -0.5215
 3342TIP3    H231442   0.708   2.223   0.529 -0.1953  0.8074  0.0959
 3343TIP3   OH231443   5.780   2.502   4.860  0.2051 -0.6280  0.3585
 3343TIP3    H131444   5.859   2.451   4.838 -1.1017 -2.0526 -1.3335
 3343TIP3    H231445   5.711   2.463   4.807 -1.1384  2.2498 -0.2100
 3344TIP3   OH231446   6.422   3.498  15.237  0.0778  0.5022  0.1351
 3344TIP3    H131447   6.492   3.564  15.243  0.1978  0.7454 -2.8194
 3344TIP3    H231448   6.389   3.505  15.148 -1.6849 -1.7207  0.5186
 3345TIP3   OH231449   6.678   6.161  16.668  0.3547 -0.7049 -0.4398
 3345TIP3    H131450   6.688   6.159  16.573  2.2886  0.3650 -0.3067
 3345TIP3    H231451   6.711   6.076  16.698 -0.3062 -1.0638 -0.6979
 3346TIP3   OH231452   4.030   6.086  15.080 -0.0910 -1.0700 -0.4809
 3346TIP3    H131453   3.996   6.138  15.153 -0.1946  2.6086 -2.9112
 3346TIP3    H231454   3.953   6.063  15.028  0.1553 -2.1749 -0.3905
 3347TIP3   OH231455   0.382   5.270  10.380  0.3509  0.3585 -0.3342
 3347TIP3    H131456   0.366   5.185  10.339  0.9613 -0.6105  1.3341
 3347TIP3    H231457   0.476   5.285  10.369  0.4671  0.2248  0.4358
 3348TIP3   OH231458   6.495   3.183  14.596  0.7478 -0.0558  0.2135
 3348TIP3    H131459   6.450   3.111  14.551 -1.0939  0.6541  0.7994
 3348TIP3    H231460   6.514   3.149  14.683  2.1715 -0.6475 -0.3131
 3349TIP3   OH231461   5.404   2.574  14.206 -0.2233  0.0143  0.5970
 3349TIP3    H131462   5.483   2.573  14.152 -0.8987  1.4128 -0.4823
 3349TIP3    H231463   5.348   2.507  14.167 -0.5892  0.8166 -0.2949
 3350TIP3   OH231464   1.892   5.597  13.532 -0.4879  0.5923  0.0939
 3350TIP3    H131465   1.833   5.544  13.586  0.8794 -2.5648 -1.2694
 3350TIP3    H231466   1.966   5.617  13.591 -0.8863  0.7716  0.5414
 3351TIP3   OH231467   0.421   1.047   5.457 -0.3278  0.1607 -0.3704
 3351TIP3    H131468   0.379   1.100   5.389  1.6629  0.0519 -1.7571
 3351TIP3    H231469   0.425   0.959   5.419  0.7922  0.0948 -0.1345
 3352TIP3   OH231470   2.628   6.701   2.521 -0.3163 -0.9483  0.2487
 3352TIP3    H131471   2.579   6.765   2.469 -0.9440 -1.2992  0.4089
 3352TIP3    H231472   2.563   6.636   2.547 -0.0406 -0.6965  1.6093
 3353TIP3   OH231473   6.135   4.579  11.179 -0.0809  0.3110 -0.2045
 3353TIP3    H131474   6.081   4.546  11.250 -1.4986  0.1586 -1.3113
 3353TIP3    H231475   6.224   4.580  11.215 -0.2460 -2.7332  0.5669
 3354TIP3   OH231476   2.803   0.715  17.131 -0.1809  0.2482  0.1400
 3354TIP3    H131477   2.886   0.706  17.180 -0.7173 -0.4049  0.9623
 3354TIP3    H231478   2.829   0.756  17.049  0.9459  0.2150  0.4479
 3355TIP3   OH231479   4.826   4.518   0.149  0.3665 -0.2867 -0.4364
 3355TIP3    H131480   4.774   4.595   0.127  1.2060  0.5667  0.4177
 3355TIP3    H231481   4.846   4.528   0.243 -0.5988 -2.2367  0.0351
 3356TIP3   OH231482   0.836   6.583  14.842  0.0697 -0.8982  0.4628
 3356TIP3    H131483   0.920   6.584  14.795 -0.0681 -0.3984  0.2208
 3356TIP3    H231484   0.773   6.616  14.778 -0.4203 -1.8209  0.4498
 3357TIP3   OH231485   4.905   3.476   3.572 -0.4247  0.0705 -0.0862
 3357TIP3    H131486   4.953   3.510   3.648 -0.7101  1.4333 -0.4853
 3357TIP3    H231487   4.956   3.401   3.543 -0.0978 -0.2349  1.2181
 3358TIP3   OH231488   0.252   0.981  11.614 -0.0656 -0.0398  0.3788
 3358TIP3    H131489   0.213   0.894  11.624 -0.4341  0.2267  1.4355
 3358TIP3    H231490   0.307   0.974  11.536 -0.5435 -1.0507  0.1161
 3359TIP3   OH231491   0.931   1.970   4.157  0.1532 -0.3289 -0.2896
 3359TIP3    H131492   0.929   1.960   4.252 -0.8565  2.7272  0.1290
 3359TIP3    H231493   0.840   1.961   4.130 -0.2055  2.5256 -0.3563
 3360TIP3   OH231494   3.210   1.121  12.387 -0.0269 -0.3959 -0.3430
 3360TIP3    H131495   3.237   1.070  12.311  0.7080 -0.2508 -0.1925
 3360TIP3    H231496   3.290   1.130  12.439  0.1905  1.8944 -0.9323
 3361TIP3   OH231497   3.741   2.930  16.556 -0.2667 -0.7766  0.0791
 3361TIP3    H131498   3.651   2.899  16.565 -0.7516  0.7548  0.7763
 3361TIP3    H231499   3.767   2.901  16.468 -1.2564 -1.6306  0.0390
 3362TIP3   OH231500   6.446   6.009  14.936  0.5593  0.1134  0.0214
 3362TIP3    H131501   6.357   6.010  14.971  1.1091 -0.1144  1.4824
 3362TIP3    H231502   6.434   5.991  14.842 -0.9579  0.7524  0.0469
 3363TIP3   OH231503   2.505   5.554   4.070  0.1177 -0.4054 -0.6422
 3363TIP3    H131504   2.537   5.644   4.073 -0.5755 -0.0636 -2.3756
 3363TIP3    H231505   2.576   5.502   4.109 -0.2920  1.0195  2.3462
 3364TIP3   OH231506   1.590   2.346  14.494  0.2044 -0.0608  0.6450
 3364TIP3    H131507   1.495   2.336  14.496  0.2786 -0.8502  0.7260
 3364TIP3    H231508   1.618   2.326  14.583  0.3407  1.5488  0.9860
 3365TIP3   OH231509   0.467   0.638   3.011 -0.2541  0.3377  0.5590
 3365TIP3    H131510   0.395   0.593   2.968  0.8739 -0.7109 -0.2948
 3365TIP3    H231511   0.451   0.731   2.993  0.0729 -0.0453 -2.0226
 3366TIP3   OH231512   3.866   6.435  15.204  0.3158  0.6057 -0.2512
 3366TIP3    H131513   3.875   6.398  15.116 -0.2327  0.5716 -0.2984
 3366TIP3    H231514   3.946   6.486  15.217  0.7554 -0.0093 -0.4698
 3367TIP3   OH231515   4.839   2.423  13.673  0.7231 -0.5476  0.1715
 3367TIP3    H131516   4.805   2.480  13.604  2.4919 -1.3134 -1.4044
 3367TIP3    H231517   4.819   2.335  13.644 -1.5805 -0.8694  2.3750
 3368TIP3   OH231518   0.006   6.246   2.165 -0.2738  0.2422  0.2722
 3368TIP3    H131519  -0.074   6.261   2.115 -1.6412  0.8074  2.4817
 3368TIP3    H231520  -0.001   6.304   2.240  2.4037  0.5453  0.4044
 3369TIP3   OH231521   1.345   3.155   4.974 -0.0619  0.3629 -0.2760
 3369TIP3    H131522   1.298   3.075   4.998  1.5863 -1.5289 -2.9210
 3369TIP3    H231523   1.395   3.177   5.052 -0.6964 -1.0681  0.5785
 3370TIP3   OH231524   2.094   3.196  12.488  0.8393 -0.1551  0.4619
 3370TIP3    H131525   2.046   3.271  12.453  1.0022 -0.6274 -0.8049
 3370TIP3    H231526   2.027   3.131  12.507  0.7767  0.0083  0.8151
 3371TIP3   OH231527   1.699   2.641   3.692 -0.3483 -0.1629 -0.2085
 3371TIP3    H131528   1.619   2.689   3.712 -1.3136 -1.8258  0.0889
 3371TIP3    H231529   1.679   2.550   3.713  1.2807 -0.7853 -1.1345
 3372TIP3   OH231530   0.033   2.191  16.243 -0.0047  0.6073 -0.4962
 3372TIP3    H131531  -0.049   2.239  16.250 -0.2838  0.3869 -1.9050
 3372TIP3    H231532   0.035   2.136  16.321 -0.9701  0.9525 -0.2086
 3373TIP3   OH231533   6.751   5.399   5.537  0.0232 -0.1086  0.5036
 3373TIP3    H131534   6.739   5.460   5.609 -0.8238 -0.7485  0.9267
 3373TIP3    H231535   6.822   5.341   5.565 -0.1755 -0.2363  0.7414
 3374TIP3   OH231536   4.666   4.278  12.018  0.3731 -0.2126 -0.2179
 3374TIP3    H131537   4.716   4.304  12.095 -1.6181 -0.2944  1.1941
 3374TIP3    H231538   4.682   4.347  11.954 -1.4590  2.4319  1.9177
 3375TIP3   OH231539   4.900   3.358  15.179  0.4238 -0.6142 -0.2305
 3375TIP3    H131540   4.816   3.343  15.136 -0.9613  1.3681  1.5651
 3375TIP3    H231541   4.959   3.381  15.108 -1.9486  3.3718 -1.2633
 3376TIP3   OH231542   3.906   5.642  12.727 -0.7148 -0.4725 -0.4935
 3376TIP3    H131543   3.844   5.707  12.758 -1.5214 -1.7380  0.6979
 3376TIP3    H231544   3.987   5.690  12.709 -1.5941  0.9743 -0.6563
 3377TIP3   OH231545   2.565   1.927   1.051 -0.3446  0.4237 -0.1148
 3377TIP3    H131546   2.497   1.980   1.092 -1.2016  0.0692 -1.0387
 3377TIP3    H231547   2.568   1.958   0.960 -0.2125 -0.4691 -0.4215
 3378TIP3   OH231548   2.708   1.469   2.204 -0.3985 -0.0587  0.3603
 3378TIP3    H131549   2.755   1.455   2.121  0.9350  2.5029  0.5686
 3378TIP3    H231550   2.624   1.505   2.178 -1.0223 -1.6396  0.0851
 3379TIP3   OH231551   3.200   1.906   2.307 -0.3888  0.1881 -0.0956
 3379TIP3    H131552   3.195   1.828   2.363 -0.6353  1.1495  1.2642
 3379TIP3    H231553   3.293   1.930   2.310 -0.6306  1.0796  1.1394
 3380TIP3   OH231554   4.979   1.302   3.713  0.5413  0.0684 -0.3277
 3380TIP3    H131555   5.044   1.243   3.675  2.2441  1.0538  0.9311
 3380TIP3    H231556   4.965   1.369   3.645  1.2138  0.1116 -0.4318
 3381TIP3   OH231557   5.876   2.501  12.784  0.6447 -0.5705 -0.4560
 3381TIP3    H131558   5.898   2.412  12.756  1.7438 -0.5986  0.4214
 3381TIP3    H231559   5.912   2.509  12.872  0.3936  0.6863 -0.4370
 3382TIP3   OH231560   0.165   2.271  15.971 -0.0201  0.4820 -0.4983
 3382TIP3    H131561   0.149   2.177  15.966 -0.3908  0.3398  1.9718
 3382TIP3    H231562   0.253   2.279  16.007 -0.5876  1.0197  0.8328
 3383TIP3   OH231563   3.877   6.810  10.674 -0.3784  0.1476 -0.2845
 3383TIP3    H131564   3.935   6.764  10.613  1.4111  0.2428  1.2537
 3383TIP3    H231565   3.796   6.758  10.674  0.3260 -1.0020 -1.1924
 3384TIP3   OH231566   1.228   2.226   2.580  0.7290  0.0212 -0.0820
 3384TIP3    H131567   1.279   2.293   2.534  0.7024 -0.2556 -0.5294
 3384TIP3    H231568   1.150   2.272   2.611 -0.3008 -0.2143 -2.1694
 3385TIP3   OH231569   1.524   2.150   2.657  0.2043  0.2059 -0.2268
 3385TIP3    H131570   1.507   2.169   2.564  1.2820 -1.4187 -0.7960
 3385TIP3    H231571   1.574   2.069   2.656 -1.5398 -0.9824  1.9106
 3386TIP3   OH231572   5.755   4.979  15.198  0.2361 -0.2556  0.2615
 3386TIP3    H131573   5.676   4.984  15.145 -0.4629  0.0645  1.3119
 3386TIP3    H231574   5.740   4.907  15.258  0.2116  0.5646  1.2756
 3387TIP3   OH231575   0.444   1.745   0.598 -0.0795  0.3630 -0.2358
 3387TIP3    H131576   0.531   1.705   0.604  0.0714  0.4442 -1.5520
 3387TIP3    H231577   0.426   1.748   0.504 -1.4421  0.4984  0.0128
 3388TIP3   OH231578   3.818   1.216  15.661  0.3481  0.0272  0.1981
 3388TIP3    H131579   3.884   1.146  15.656 -0.6920 -1.0096  0.3521
 3388TIP3    H231580   3.829   1.266  15.580  1.8731  0.4070  0.6132
 3389TIP3   OH231581   1.313   6.172  11.991  0.2654  0.4632  0.2173
 3389TIP3    H131582   1.362   6.130  12.061 -1.7876 -0.9472  0.8991
 3389TIP3    H231583   1.267   6.101  11.947 -0.0505  1.5489 -1.2991
 3390TIP3   OH231584   3.720   2.550  16.108  0.5464 -0.2179  0.4252
 3390TIP3    H131585   3.737   2.481  16.044 -1.7143  1.6634 -2.4606
 3390TIP3    H231586   3.801   2.601  16.111  1.0830 -1.0289 -0.0213
 3391TIP3   OH231587   3.000   5.263  13.069 -0.6718  0.6132 -0.1988
 3391TIP3    H131588   3.038   5.329  13.011 -0.7626  0.5553 -0.3224
 3391TIP3    H231589   3.020   5.295  13.157  3.1902 -1.3719 -0.1427
 3392TIP3   OH231590   0.818   3.513   1.590 -0.1291 -0.3958  0.6292
 3392TIP3    H131591   0.901   3.466   1.579  0.5219  1.0327 -1.0384
 3392TIP3    H231592   0.838   3.582   1.654  0.1983  0.3566 -0.2545
 3393TIP3   OH231593   5.079   5.176   3.739 -0.5642  0.7210 -0.1544
 3393TIP3    H131594   5.146   5.138   3.683  0.8870  1.5876  0.9120
 3393TIP3    H231595   4.997   5.161   3.692  0.0944 -2.1200 -0.5819
 3394TIP3   OH231596   6.546   5.339   4.681  0.1280  0.7954 -0.6795
 3394TIP3    H131597   6.630   5.367   4.718  0.4696 -1.2293  0.2197
 3394TIP3    H231598   6.541   5.245   4.702 -0.7564  0.0562 -3.7448
 3395TIP3   OH231599   4.766   2.715   6.585  0.6905 -0.0779  0.1667
 3395TIP3    H131600   4.787   2.621   6.580  2.8524  0.2905  1.3148
 3395TIP3    H231601   4.725   2.726   6.671 -0.3504 -0.0683 -0.3106
 3396TIP3   OH231602   5.124   6.486   3.195  0.1173  0.1540 -0.5094
 3396TIP3    H131603   5.171   6.419   3.243 -0.6496 -0.4495 -0.5818
 3396TIP3    H231604   5.167   6.568   3.221  1.5163 -0.4060 -0.9702
 3397TIP3   OH231605   0.791   2.200   3.259  0.0207 -0.0716 -0.3260
 3397TIP3    H131606   0.791   2.295   3.260  1.9055 -0.0344  0.2146
 3397TIP3    H231607   0.699   2.176   3.256 -0.7047  1.7628  2.6723
 3398TIP3   OH231608   1.887   1.953  14.166 -0.2884  0.3719  0.5039
 3398TIP3    H131609   1.800   1.929  14.135 -0.3028  0.4415  0.4921
 3398TIP3    H231610   1.901   2.042  14.135 -0.2904  0.4298  0.6684
 3399TIP3   OH231611   6.193   5.973  15.051 -0.8127  0.4308 -0.1885
 3399TIP3    H131612   6.116   6.024  15.078 -1.9661 -2.2583  2.1050
 3399TIP3    H231613   6.162   5.922  14.977 -1.1532 -0.3683  0.4925
 3400TIP3   OH231614   1.127   3.695  12.647  0.3445 -0.5045  0.6075
 3400TIP3    H131615   1.068   3.701  12.572  0.7576 -0.3729  0.2853
 3400TIP3    H231616   1.206   3.741  12.619  0.6153 -0.7117  1.0139
 3401TIP3   OH231617   5.260   6.726  13.515 -0.9274  0.3539  0.1849
 3401TIP3    H131618   5.235   6.634  13.522 -0.9566  0.4633  1.8195
 3401TIP3    H231619   5.262   6.757  13.605  0.0502  1.7031 -0.2756
 3402TIP3   OH231620   2.048   2.062   3.924  0.9004 -0.3234  0.1042
 3402TIP3    H131621   2.108   2.111   3.868  1.0876 -1.2607 -0.5338
 3402TIP3    H231622   1.963   2.104   3.910  1.2948  0.6895  0.6320
 3403TIP3   OH231623   1.946   4.031   0.921 -0.5648  0.3633 -0.0568
 3403TIP3    H131624   1.967   4.060   0.832  0.6722  0.6339  0.3112
 3403TIP3    H231625   1.898   4.104   0.959  0.6150  1.0755  0.1292
 3404TIP3   OH231626   4.283   3.473   0.795  0.3274 -0.1239 -0.2215
 3404TIP3    H131627   4.324   3.426   0.723  0.9045 -0.0605  0.0598
 3404TIP3    H231628   4.356   3.509   0.845 -0.0282 -0.9847  0.9547
 3405TIP3   OH231629   3.399   4.858  12.879  0.2803  0.8703 -1.1829
 3405TIP3    H131630   3.326   4.809  12.841  0.3825  0.4530 -0.8507
 3405TIP3    H231631   3.369   4.883  12.966  1.0824 -0.6318 -0.4375
 3406TIP3   OH231632   6.060   3.457   2.468  0.1394  0.1963 -0.9950
 3406TIP3    H131633   6.118   3.522   2.508 -0.8156 -0.4920  1.7296
 3406TIP3    H231634   5.972   3.484   2.495 -0.2901 -2.1305  0.1418
 3407TIP3   OH231635   3.423   4.027  11.991 -0.0541 -0.1244 -0.1947
 3407TIP3    H131636   3.477   4.101  11.962 -1.7052  0.0777 -3.1393
 3407TIP3    H231637   3.434   4.026  12.086  1.5907  2.6494 -0.2283
 3408TIP3   OH231638   5.347   6.399   6.468  0.4314  0.0599 -0.0833
 3408TIP3    H131639   5.343   6.303   6.469  2.2874 -0.0581  0.9005
 3408TIP3    H231640   5.435   6.419   6.435  1.1095  1.3054  2.2362
 3409TIP3   OH231641   1.257   0.380  15.964  0.0619  0.0527 -0.0840
 3409TIP3    H131642   1.195   0.453  15.971  1.0300  0.8696  0.1858
 3409TIP3    H231643   1.307   0.384  16.045 -1.2056 -2.2076  0.9147
 3410TIP3   OH231644   6.331   2.199   1.067 -0.5213  0.4853 -0.5993
 3410TIP3    H131645   6.393   2.270   1.046 -0.4301 -0.1336 -2.6437
 3410TIP3    H231646   6.357   2.169   1.154 -0.2248  2.5897  0.0961
 3411TIP3   OH231647   4.503   5.063  15.347 -0.4115 -0.3691  0.2550
 3411TIP3    H131648   4.476   4.987  15.399 -2.5227  0.8264  0.9807
 3411TIP3    H231649   4.571   5.105  15.400 -0.1882 -0.9911  0.4720
 3412TIP3   OH231650   3.824   4.586   2.446 -0.3532  0.0128 -0.0046
 3412TIP3    H131651   3.847   4.673   2.414 -0.4870 -0.0681 -0.3211
 3412TIP3    H231652   3.862   4.582   2.534 -2.4362  1.3217  1.0383
 3413TIP3   OH231653   3.816   0.789   5.474 -0.2395  0.5612  0.5938
 3413TIP3    H131654   3.755   0.725   5.511 -0.6431  1.4197  1.4595
 3413TIP3    H231655   3.858   0.829   5.550  1.2838  0.1363  0.0214
 3414TIP3   OH231656   6.078   5.812  16.099  0.2202  0.0960 -0.4360
 3414TIP3    H131657   6.162   5.809  16.144  0.3575 -0.2213 -0.7013
 3414TIP3    H231658   6.013   5.796  16.167  0.3934  0.0645 -0.2777
 3415TIP3   OH231659   2.671   0.376   1.097  0.4813 -0.5253 -0.1328
 3415TIP3    H131660   2.760   0.352   1.071  0.3959 -1.6941  0.5952
 3415TIP3    H231661   2.676   0.392   1.191  0.2286  0.9788 -0.3479
 3416TIP3   OH231662   2.975   1.220  15.649  0.2591  0.5481  0.2539
 3416TIP3    H131663   3.045   1.246  15.709  0.0177 -1.3963  1.4449
 3416TIP3    H231664   2.894   1.242  15.696  0.0583  1.1699 -0.3711
 3417TIP3   OH231665   5.676   3.469   0.112 -0.5714  0.1230  0.5958
 3417TIP3    H131666   5.633   3.547   0.146 -0.9375  1.7906 -3.1776
 3417TIP3    H231667   5.739   3.502   0.048  0.5457 -2.6128  0.1442
 3418TIP3   OH231668   3.795   1.525   1.576 -0.4012  0.1166 -0.2321
 3418TIP3    H131669   3.811   1.618   1.592  0.1207 -0.0416  0.2051
 3418TIP3    H231670   3.801   1.485   1.663  1.6430 -0.6385 -0.6615
 3419TIP3   OH231671   0.137   4.239   0.784 -0.0032  0.0054 -0.4383
 3419TIP3    H131672   0.156   4.145   0.788  0.6442  0.1474  0.0563
 3419TIP3    H231673   0.118   4.256   0.692  1.6487 -0.2892 -0.8608
 3420TIP3   OH231674   3.076   3.649  12.354 -0.0968  0.3843  0.0775
 3420TIP3    H131675   3.027   3.599  12.420  1.2233  0.0707  0.8776
 3420TIP3    H231676   3.027   3.637  12.273 -0.4515 -1.2942  0.4899
 3421TIP3   OH231677   3.606   6.498   5.593 -0.2136 -0.1933  0.2364
 3421TIP3    H131678   3.613   6.421   5.537  1.3038  0.3449 -0.3639
 3421TIP3    H231679   3.518   6.532   5.577  0.2745  0.0994 -2.0719
 3422TIP3   OH231680   2.190   4.510  15.366  0.1374  0.0909 -0.0552
 3422TIP3    H131681   2.259   4.546  15.310 -1.6906 -0.2293 -2.6734
 3422TIP3    H231682   2.222   4.424  15.391  1.8482  1.0124  1.1071
 3423TIP3   OH231683   0.175   4.790  13.566  0.0526  0.3490 -0.2725
 3423TIP3    H131684   0.122   4.711  13.561 -2.1292  1.6178  0.9312
 3423TIP3    H231685   0.138   4.839  13.640  2.7088  1.5318  0.4059
 3424TIP3   OH231686   6.249   5.428  13.528 -0.4609 -0.0470  0.6349
 3424TIP3    H131687   6.173   5.370  13.528  0.0383 -0.7240  1.5854
 3424TIP3    H231688   6.324   5.370  13.543  0.2534  0.6036 -0.2853
 3425TIP3   OH231689   5.775   2.494  14.678 -0.1542  0.2246 -0.1382
 3425TIP3    H131690   5.729   2.539  14.748 -0.1178  1.6990 -1.0294
 3425TIP3    H231691   5.720   2.506  14.601 -0.4706 -1.8265 -0.3083
 3426TIP3   OH231692   5.683   6.510   2.151 -0.1794 -1.0269 -0.4921
 3426TIP3    H131693   5.664   6.432   2.099  2.3835 -1.1195 -1.4383
 3426TIP3    H231694   5.693   6.580   2.086  1.3994 -0.7856 -0.0271
 3427TIP3   OH231695   5.946   2.604  16.366  0.0303 -0.0412 -0.1487
 3427TIP3    H131696   5.972   2.659  16.440 -3.1637 -0.1787  1.2670
 3427TIP3    H231697   5.949   2.515  16.402 -0.0605 -0.2546 -0.6704
 3428TIP3   OH231698   5.976   1.420   5.511 -0.0565 -0.3490  0.6138
 3428TIP3    H131699   5.916   1.476   5.463 -0.5835 -0.9170  0.6049
 3428TIP3    H231700   6.063   1.447   5.480 -0.1422  1.8000  2.0092
 3429TIP3   OH231701   5.601   5.392  10.983  0.2303  0.2899  0.6551
 3429TIP3    H131702   5.680   5.379  10.931  0.1100 -0.2617  0.6059
 3429TIP3    H231703   5.529   5.380  10.920  0.0981  0.2841  0.8074
 3430TIP3   OH231704   2.759   5.767   6.419  0.2969 -0.4949  0.1392
 3430TIP3    H131705   2.810   5.833   6.374 -0.8022  0.1958 -0.1375
 3430TIP3    H231706   2.701   5.730   6.352  1.3195 -2.2203  0.1355
 3431TIP3   OH231707   3.373   1.420  12.758 -0.2607  0.5939 -0.8399
 3431TIP3    H131708   3.437   1.490  12.755 -0.1114  0.5790  1.1117
 3431TIP3    H231709   3.339   1.421  12.848 -1.7757 -0.4836 -1.3453
 3432TIP3   OH231710   2.451   0.745  15.120 -0.1210 -0.2758  0.3781
 3432TIP3    H131711   2.394   0.696  15.061 -1.8729  0.8315  1.1115
 3432TIP3    H231712   2.455   0.691  15.200 -0.5962 -0.0747  0.5354
 3433TIP3   OH231713   4.491   6.255  16.046  0.1524 -0.3677 -0.1798
 3433TIP3    H131714   4.461   6.198  16.117 -0.1693 -0.0263 -0.0373
 3433TIP3    H231715   4.480   6.202  15.967 -0.8011 -0.2714 -0.1266
 3434TIP3   OH231716   0.533   5.032   1.553  0.1162  0.0864 -0.4751
 3434TIP3    H131717   0.612   4.979   1.543  0.3934  0.3881  0.0268
 3434TIP3    H231718   0.560   5.103   1.611 -0.8052 -0.4033  0.5882
 3435TIP3   OH231719   0.592   1.335  15.501  0.1102  0.0296 -0.2633
 3435TIP3    H131720   0.588   1.358  15.408 -0.4951  0.5133 -0.1225
 3435TIP3    H231721   0.613   1.242  15.502  1.7257  0.3473 -0.8644
 3436TIP3   OH231722   3.297   5.831   0.716 -0.2951  0.1357 -0.5513
 3436TIP3    H131723   3.220   5.857   0.665 -0.2408 -1.2809 -1.3929
 3436TIP3    H231724   3.367   5.824   0.651  0.0948 -0.4111 -0.0803
 3437TIP3   OH231725   3.709   4.572   1.831 -0.1552 -0.2337 -0.3386
 3437TIP3    H131726   3.717   4.611   1.744  0.3946 -0.8958 -0.5907
 3437TIP3    H231727   3.673   4.642   1.885  1.5812  0.9133 -0.5938
 3438TIP3   OH231728   6.202   0.859  13.005  0.6370  0.3513  0.2509
 3438TIP3    H131729   6.281   0.903  12.974  0.6608  0.4423  0.4365
 3438TIP3    H231730   6.175   0.910  13.082  1.0735 -0.3831  0.9002
 3439TIP3   OH231731   5.726   6.262  15.495 -0.4694  0.2644 -0.1909
 3439TIP3    H131732   5.639   6.274  15.535  0.1895 -1.3989  1.9936
 3439TIP3    H231733   5.767   6.348  15.501 -0.4625  0.1850  2.8679
 3440TIP3   OH231734   4.304   2.418   3.618  0.1046 -0.6257  0.1120
 3440TIP3    H131735   4.244   2.465   3.560 -0.3182 -1.1775  0.0956
 3440TIP3    H231736   4.247   2.365   3.673  0.5549 -0.7747  0.4425
 3441TIP3   OH231737   4.347   5.905   4.058  1.1103 -0.5101 -0.0177
 3441TIP3    H131738   4.296   5.882   4.136  0.8395  0.5752  0.1471
 3441TIP3    H231739   4.321   5.995   4.039  2.4897 -0.1619 -0.3211
 3442TIP3   OH231740   3.272   1.002   0.586  0.4116  0.1099  0.2761
 3442TIP3    H131741   3.323   1.064   0.534 -1.5545  0.7452 -1.0096
 3442TIP3    H231742   3.183   1.038   0.586 -0.1816 -1.2129  1.9936
 3443TIP3   OH231743   6.240   5.103  12.764  0.2209  0.6906  0.5441
 3443TIP3    H131744   6.240   5.022  12.713  1.7632  0.2350  1.2089
 3443TIP3    H231745   6.148   5.116  12.789  0.1467 -1.7845  1.8644
 3444TIP3   OH231746   5.050   2.852  14.130  0.2222  0.0390 -0.2816
 3444TIP3    H131747   5.017   2.798  14.058 -0.6103 -0.3104  0.3468
 3444TIP3    H231748   5.144   2.858  14.114  0.0962 -0.3086 -1.2164
 3445TIP3   OH231749   0.982   3.707  14.786 -0.1292 -0.2307 -0.3389
 3445TIP3    H131750   0.961   3.745  14.700 -1.6897 -1.3612 -0.5060
 3445TIP3    H231751   1.069   3.669  14.775  0.3322  0.9503 -0.9485
 3446TIP3   OH231752   1.984   3.021   1.288  0.4567 -0.0196  0.6287
 3446TIP3    H131753   2.001   2.927   1.289 -0.5193 -0.3008 -1.6820
 3446TIP3    H231754   1.906   3.033   1.342 -0.0445 -0.7272  0.0818
 3447TIP3   OH231755   0.209   1.778   4.425 -0.1476  0.2322  0.0024
 3447TIP3    H131756   0.176   1.722   4.494  1.7972  0.2513  1.0251
 3447TIP3    H231757   0.297   1.745   4.407 -0.2233  0.8634 -1.7699
 3448TIP3   OH231758   2.163   0.436  14.500 -0.2853 -0.2303 -0.3291
 3448TIP3    H131759   2.093   0.397  14.447  0.3082  1.6018 -2.6086
 3448TIP3    H231760   2.240   0.381  14.482 -0.1253  0.2872 -1.3052
 3449TIP3   OH231761   2.072   4.846  16.481  0.1413 -0.1327 -0.0255
 3449TIP3    H131762   2.059   4.752  16.492  0.3484 -0.0444  1.0324
 3449TIP3    H231763   2.120   4.854  16.398 -0.9326 -0.8640 -0.7359
 3450TIP3   OH231764   4.404   3.181  13.562  0.3251  0.5508  0.5018
 3450TIP3    H131765   4.437   3.242  13.497  1.3945 -0.2926  0.2267
 3450TIP3    H231766   4.318   3.154  13.529  0.9814 -0.1041 -0.7356
 3451TIP3   OH231767   5.845   4.997  11.250 -0.1251 -0.0949  0.2027
 3451TIP3    H131768   5.845   4.919  11.195 -1.7280 -0.0337  0.0724
 3451TIP3    H231769   5.786   4.976  11.322 -1.2274  1.2753 -0.2605
 3452TIP3   OH231770   1.895   0.948   1.006 -0.5078  0.1901  0.0448
 3452TIP3    H131771   1.826   0.886   0.985 -1.1071  0.9989 -0.4291
 3452TIP3    H231772   1.858   1.034   0.985 -0.1177  0.8249  1.7600
 3453TIP3   OH231773   1.179   2.407   2.855  0.4212  0.7058 -0.1192
 3453TIP3    H131774   1.108   2.395   2.792  0.3414  1.1009 -0.1038
 3453TIP3    H231775   1.225   2.323   2.855 -0.3111  0.2989  0.2022
 3454TIP3   OH231776   3.615   2.707   3.106  0.0996  0.4783  0.1904
 3454TIP3    H131777   3.545   2.668   3.158  0.5393 -0.7824 -0.1161
 3454TIP3    H231778   3.683   2.728   3.170  0.3575 -0.4287  0.2386
 3455TIP3   OH231779   4.161   2.671   0.713  0.0826 -0.4857 -0.2487
 3455TIP3    H131780   4.110   2.671   0.632  1.1067 -0.3490 -0.9156
 3455TIP3    H231781   4.248   2.700   0.686  0.6054 -1.0255  0.8044
 3456TIP3   OH231782   5.760   3.173   4.560 -0.3001 -0.3621 -0.3436
 3456TIP3    H131783   5.788   3.239   4.496  0.1764 -0.1957  0.0286
 3456TIP3    H231784   5.741   3.095   4.508  1.6460 -0.7443 -0.5561
 3457TIP3   OH231785   4.964   6.627  15.123  0.6735  0.3482 -0.4031
 3457TIP3    H131786   4.976   6.620  15.217 -0.4255  0.5211 -0.2291
 3457TIP3    H231787   5.045   6.594  15.085  1.7615  1.7598  0.6135
 3458TIP3   OH231788   2.660   0.152   5.650 -0.0177 -0.0162  0.0202
 3458TIP3    H131789   2.650   0.236   5.605  2.3175 -0.9147 -2.5001
 3458TIP3    H231790   2.705   0.174   5.732 -0.1751  1.2628 -0.2108
 3459TIP3   OH231791   4.849   4.494   3.464  0.5155 -0.4685  0.3957
 3459TIP3    H131792   4.844   4.578   3.509  3.0922  0.8150 -1.4474
 3459TIP3    H231793   4.882   4.433   3.530  0.7953  0.5035  1.1799
 3460TIP3   OH231794   5.670   1.719  12.684 -0.0332  0.4269 -0.7850
 3460TIP3    H131795   5.658   1.805  12.722  0.4146 -0.0744  0.5478
 3460TIP3    H231796   5.588   1.672  12.704  0.7589 -0.3167  0.9685
 3461TIP3   OH231797   4.313   2.895  14.301 -0.3692  0.4894  0.4699
 3461TIP3    H131798   4.395   2.931  14.267 -0.2611 -1.0286 -0.9966
 3461TIP3    H231799   4.324   2.800  14.294 -2.2858  0.2551  0.1718
 3462TIP3   OH231800   6.108   4.128  17.140  0.4701 -0.4424 -0.5624
 3462TIP3    H131801   6.078   4.216  17.116 -2.1593 -1.2257 -0.5285
 3462TIP3    H231802   6.112   4.081  17.057 -1.3641 -1.1343 -0.3017
 3463TIP3   OH231803   5.293   3.996   0.563  0.4308  0.0966 -0.0467
 3463TIP3    H131804   5.360   3.928   0.573  1.3433  0.8946 -0.4777
 3463TIP3    H231805   5.342   4.078   0.567 -0.4710  0.6982 -0.7977
 3464TIP3   OH231806   1.350   5.836   0.154  0.0289 -0.3327 -0.3372
 3464TIP3    H131807   1.280   5.897   0.128 -0.7809 -1.0365  0.1417
 3464TIP3    H231808   1.320   5.798   0.236  0.5996 -1.2466 -0.5336
 3465TIP3   OH231809   4.793   4.835  15.957  0.0659 -0.5327 -0.8030
 3465TIP3    H131810   4.778   4.767  15.892 -0.8972 -1.4124  0.2857
 3465TIP3    H231811   4.858   4.797  16.016 -1.5321 -1.1896  0.6450
 3466TIP3   OH231812   6.396   1.606   2.986 -0.0079  0.0311  0.4476
 3466TIP3    H131813   6.473   1.635   3.035  1.4333 -1.3356 -0.9235
 3466TIP3    H231814   6.390   1.512   3.003 -1.0491  0.0091  0.0680
 3467TIP3   OH231815   1.801   0.832  15.414  0.2651 -0.0467  0.3392
 3467TIP3    H131816   1.754   0.813  15.333  0.1801 -1.1002  0.6279
 3467TIP3    H231817   1.789   0.926  15.427 -0.2419  0.0177 -0.5385
 3468TIP3   OH231818   1.731   4.856   5.365 -0.2089  0.4653 -0.4809
 3468TIP3    H131819   1.778   4.934   5.337 -1.7873  1.3801 -0.7099
 3468TIP3    H231820   1.699   4.877   5.453  1.1088 -0.7500  0.3282
 3469TIP3   OH231821   1.563   4.648   3.042 -0.0541  0.1395 -0.1906
 3469TIP3    H131822   1.483   4.684   3.080  0.4334  0.6060  0.4067
 3469TIP3    H231823   1.582   4.571   3.095 -1.8100 -1.8937 -2.2430
 3470TIP3   OH231824   5.628   1.351  12.214  0.2387 -0.0564  0.1841
 3470TIP3    H131825   5.650   1.271  12.262  0.0526  0.7909  1.7526
 3470TIP3    H231826   5.576   1.321  12.139 -2.1569 -1.2725  2.1726
 3471TIP3   OH231827   1.610   0.716  14.402  0.8033  1.0448 -0.1696
 3471TIP3    H131828   1.683   0.707  14.340  1.6701 -0.9122  1.0432
 3471TIP3    H231829   1.533   0.691  14.351  1.3836  0.2338 -0.6751
 3472TIP3   OH231830   5.172   4.421   2.239 -0.1379 -0.2775 -0.4339
 3472TIP3    H131831   5.091   4.426   2.187 -1.1615  0.5232  1.1706
 3472TIP3    H231832   5.150   4.363   2.311  1.0496 -0.8131 -0.4901
 3473TIP3   OH231833   4.449   2.877  15.336  0.1448  0.0502 -0.2952
 3473TIP3    H131834   4.508   2.811  15.299  1.5352  1.4596 -0.6660
 3473TIP3    H231835   4.459   2.867  15.431  1.2984  0.5154 -0.3480
 3474TIP3   OH231836   0.905   0.057  10.903  0.1024 -0.5061  0.5352
 3474TIP3    H131837   0.823   0.010  10.888  0.6844 -0.9612 -1.5449
 3474TIP3    H231838   0.948   0.058  10.818  1.8822  0.4777  1.3869
 3475TIP3   OH231839   4.932   1.731  15.194 -0.1941 -0.4225  0.1095
 3475TIP3    H131840   4.897   1.806  15.242 -0.7042  0.0638 -0.9657
 3475TIP3    H231841   4.856   1.695  15.148  0.4431 -0.1309 -1.2499
 3476TIP3   OH231842   5.445   1.979   0.830 -0.0428 -0.0489  0.4260
 3476TIP3    H131843   5.537   1.958   0.844 -0.0402  0.0251  0.5212
 3476TIP3    H231844   5.447   2.053   0.768  0.0088  0.7991  1.4099
 3477TIP3   OH231845   2.125   3.756  13.880  0.5681  0.5550  0.0034
 3477TIP3    H131846   2.204   3.725  13.925 -0.0107  1.6687  1.8590
 3477TIP3    H231847   2.057   3.694  13.907  0.1130  1.5077  1.1268
 3478TIP3   OH231848   4.504   3.825  16.153 -0.2731  0.4612 -0.6956
 3478TIP3    H131849   4.451   3.904  16.140 -0.5047  0.4812  0.3035
 3478TIP3    H231850   4.480   3.794  16.240 -0.3064 -0.8094 -1.1316
 3479TIP3   OH231851   5.804   4.014   3.206 -0.1010  0.2683  0.4333
 3479TIP3    H131852   5.748   4.083   3.170 -0.1462 -0.6810 -1.4729
 3479TIP3    H231853   5.824   3.958   3.130 -0.6435 -2.2043  1.9978
 3480TIP3   OH231854   6.588   3.815  12.318  0.1876 -0.4632 -0.0392
 3480TIP3    H131855   6.627   3.876  12.255  0.6697 -0.1153  0.5847
 3480TIP3    H231856   6.649   3.815  12.392 -1.3442  0.7072  1.3107
 3481TIP3   OH231857   4.149   3.348  14.279  0.5707  0.5979  0.2636
 3481TIP3    H131858   4.234   3.331  14.239 -0.1584 -1.0136 -0.6947
 3481TIP3    H231859   4.119   3.429  14.238  3.7559  4.2884  4.2890
 3482TIP3   OH231860   2.357   1.459   0.608 -0.0859 -0.1434  0.0570
 3482TIP3    H131861   2.330   1.414   0.527  0.2491 -1.4274  0.6331
 3482TIP3    H231862   2.349   1.552   0.587  2.1551 -0.3484 -2.2533
 3483TIP3   OH231863   4.577   5.016  12.206 -0.4713 -0.3963 -0.1920
 3483TIP3    H131864   4.590   5.101  12.165 -1.6626 -0.8840 -1.6836
 3483TIP3    H231865   4.594   4.953  12.137 -3.3661 -1.2348 -0.2750
 3484TIP3   OH231866   3.283   4.503   5.614 -0.6330  0.5892 -0.0893
 3484TIP3    H131867   3.264   4.509   5.708 -1.2529  1.6208 -0.2619
 3484TIP3    H231868   3.373   4.536   5.606 -1.4621  3.0308 -0.1294
 3485TIP3   OH231869   4.512   6.045  10.587  0.3667  0.6941 -0.2299
 3485TIP3    H131870   4.523   6.022  10.679 -1.7914  0.5834  0.0479
 3485TIP3    H231871   4.516   6.141  10.586  1.4467  0.6609 -0.2038
 3486TIP3   OH231872   0.064   0.680  13.137  0.2994 -0.3671  0.0341
 3486TIP3    H131873   0.086   0.588  13.152  0.3216 -0.4825 -0.6738
 3486TIP3    H231874   0.142   0.729  13.165  0.6501 -0.6276 -0.4885
 3487TIP3   OH231875   0.122   4.494   2.062 -0.4111  0.0762  0.5184
 3487TIP3    H131876   0.184   4.430   2.096  0.9006 -1.0821 -3.4285
 3487TIP3    H231877   0.161   4.579   2.080  0.1906 -0.4393  1.7316
 3488TIP3   OH231878   2.502   6.462   2.570  0.5930 -0.5735  0.3312
 3488TIP3    H131879   2.471   6.396   2.508 -2.1144 -0.5046  1.4616
 3488TIP3    H231880   2.571   6.418   2.619 -1.4845 -2.8668  1.4144
 3489TIP3   OH231881   2.553   5.243  14.583 -0.1743 -0.1300  0.4659
 3489TIP3    H131882   2.479   5.195  14.619 -0.7166  0.2872 -0.0575
 3489TIP3    H231883   2.533   5.252  14.490 -0.3110  1.4591  0.6119
 3490TIP3   OH231884   0.036   1.124   6.060  0.5889 -0.5696  0.3552
 3490TIP3    H131885   0.022   1.215   6.037 -0.5663 -0.7600  0.2755
 3490TIP3    H231886   0.131   1.117   6.073  0.7111  0.5821  0.1562
 3491TIP3   OH231887   2.366   3.244   4.999 -0.7623  0.3467  0.2080
 3491TIP3    H131888   2.365   3.186   5.076  2.2079  0.7261  0.6639
 3491TIP3    H231889   2.356   3.332   5.035 -1.2031  0.4057 -0.0545
 3492TIP3   OH231890   1.344   6.508   1.343 -0.1570  0.3708  0.0669
 3492TIP3    H131891   1.328   6.430   1.395 -3.3948 -0.0093 -1.2591
 3492TIP3    H231892   1.294   6.577   1.387 -0.4374  0.7664 -0.8486
 3493TIP3   OH231893   3.287   5.519  15.314 -0.4653 -0.3056 -0.4520
 3493TIP3    H131894   3.243   5.514  15.229 -1.4187 -3.0191  0.0852
 3493TIP3    H231895   3.229   5.574  15.367 -1.5004 -1.0741 -0.7354
 3494TIP3   OH231896   3.768   4.745   1.593 -0.4168 -0.2278  0.4443
 3494TIP3    H131897   3.707   4.709   1.528  0.3857  0.3885 -0.6905
 3494TIP3    H231898   3.807   4.822   1.550 -0.7283  0.9187  2.1134
 3495TIP3   OH231899   2.516   3.992  16.562  0.0815  0.3762  0.5840
 3495TIP3    H131900   2.490   3.906  16.529 -0.0582  1.1592 -1.4737
 3495TIP3    H231901   2.507   4.051  16.487 -0.6528  2.3804  2.1364
 3496TIP3   OH231902   3.412   2.567  12.388  0.1998  0.0741  0.2862
 3496TIP3    H131903   3.335   2.561  12.332  0.8777 -0.2303 -0.6311
 3496TIP3    H231904   3.449   2.654  12.370  0.7365 -0.2460 -0.1586
 3497TIP3   OH231905   0.094   2.041   2.741 -0.0937  0.1112 -0.5045
 3497TIP3    H131906   0.111   1.977   2.810  1.3732 -0.7291 -1.5896
 3497TIP3    H231907   0.169   2.033   2.682 -1.5119  0.4649 -2.4568
 3498TIP3   OH231908   3.130   2.289   1.792  0.0750 -0.3248 -0.2838
 3498TIP3    H131909   3.052   2.290   1.847 -0.3621 -1.1439 -0.8657
 3498TIP3    H231910   3.144   2.197   1.771  1.3027 -0.2133 -0.0599
 3499TIP3   OH231911   1.231   1.446  12.046  0.2390  0.0965 -0.5655
 3499TIP3    H131912   1.142   1.464  12.014 -0.3840 -0.3578  0.8524
 3499TIP3    H231913   1.231   1.352  12.064  0.3271  0.4286  1.3844
 3500TIP3   OH231914   1.116   5.315   3.885  0.1104  0.1141  0.1580
 3500TIP3    H131915   1.095   5.346   3.797 -2.2805  0.5234  0.7964
 3500TIP3    H231916   1.106   5.220   3.879 -1.8268  0.2514  0.3175
 3501TIP3   OH231917   6.695   4.359   3.369  0.5351 -0.4985  0.2212
 3501TIP3    H131918   6.629   4.290   3.374 -0.8693  0.8421  1.1505
 3501TIP3    H231919   6.753   4.341   3.442  0.4888 -1.0026  0.1362
 3502TIP3   OH231920   0.806   1.743  11.952 -0.2028  0.1250  0.3366
 3502TIP3    H131921   0.794   1.661  12.000 -1.4580  0.1608  0.1233
 3502TIP3    H231922   0.781   1.721  11.862 -0.2173  0.6600  0.2103
 3503TIP3   OH231923   2.147   4.504  11.582 -0.7196  0.1798 -0.1374
 3503TIP3    H131924   2.175   4.414  11.561  1.3531  0.8083 -0.3610
 3503TIP3    H231925   2.071   4.519  11.526  0.4046 -0.6141 -1.9905
 3504TIP3   OH231926   1.145   3.412  12.629 -0.9227  0.0746 -0.2085
 3504TIP3    H131927   1.211   3.410  12.559 -1.9522 -1.8508 -1.2160
 3504TIP3    H231928   1.125   3.505  12.640  1.5713  0.6776 -0.1959
 3505TIP3   OH231929   5.494   1.870   2.898 -0.2352  0.3214  0.4170
 3505TIP3    H131930   5.564   1.925   2.863  0.0719  0.1372  0.7404
 3505TIP3    H231931   5.413   1.915   2.872  0.0092  0.7882  0.4599
 3506TIP3   OH231932   0.057   4.136   1.052  0.1442  0.3178 -0.3797
 3506TIP3    H131933  -0.033   4.167   1.061 -0.5324 -1.7591  0.5442
 3506TIP3    H231934   0.111   4.210   1.080 -1.4207  0.2799  3.3487
 3507TIP3   OH231935   6.559   3.858   1.735 -0.1316  0.5448 -0.5433
 3507TIP3    H131936   6.561   3.879   1.828 -0.6475  1.3231 -0.7032
 3507TIP3    H231937   6.628   3.913   1.697 -0.2754  0.6144 -0.7025
 3508TIP3   OH231938   4.862   4.415  16.158  0.5172  0.0439  0.4782
 3508TIP3    H131939   4.956   4.401  16.150  0.5481 -0.2333  1.2459
 3508TIP3    H231940   4.824   4.373  16.081  0.8344 -1.8655  1.3140
 3509TIP3   OH231941   3.965   3.969  16.719 -0.1508 -0.3124 -0.0904
 3509TIP3    H131942   3.895   3.975  16.784 -0.3258 -0.5934 -0.2511
 3509TIP3    H231943   3.957   3.881  16.683 -1.2489  0.4736 -1.8394
 3510TIP3   OH231944   0.264   5.837  15.703 -0.3460 -0.2025 -0.1512
 3510TIP3    H131945   0.346   5.846  15.655 -0.0206 -0.9899  0.2411
 3510TIP3    H231946   0.262   5.911  15.763 -0.7596  0.8040 -1.3588
 3511TIP3   OH231947   1.812   0.210   1.170 -0.2917 -0.1235  0.4771
 3511TIP3    H131948   1.797   0.129   1.218 -0.9348 -0.1605  0.2136
 3511TIP3    H231949   1.771   0.278   1.224 -0.7956 -0.1313  0.1050
 3512TIP3   OH231950   3.096   1.730  12.585  0.2429 -0.6712  0.0378
 3512TIP3    H131951   3.098   1.679  12.666 -0.2500  0.8205  1.0173
 3512TIP3    H231952   3.185   1.765  12.576 -0.0597  0.3070  0.7096
 3513TIP3   OH231953   2.797   5.777   1.834 -0.3519  0.4759  0.1685
 3513TIP3    H131954   2.808   5.865   1.797 -0.3844  0.9869  1.3306
 3513TIP3    H231955   2.774   5.722   1.759  1.2658  1.1291 -0.8590
 3514TIP3   OH231956   5.097   3.614  12.228  0.3909 -0.2662  0.8415
 3514TIP3    H131957   5.186   3.594  12.198  0.0390  0.3688 -0.6916
 3514TIP3    H231958   5.060   3.529  12.251  1.9161 -0.3972  3.1070
 3515TIP3   OH231959   0.326   6.501   3.383 -0.1203  0.8136  0.3635
 3515TIP3    H131960   0.258   6.487   3.449 -0.1091  1.4467  0.5248
 3515TIP3    H231961   0.280   6.500   3.300 -0.1130 -0.1411  0.3632
 3516TIP3   OH231962   4.413   1.911  15.471  0.1453 -0.3794 -0.0763
 3516TIP3    H131963   4.438   2.003  15.461 -0.9033  0.0067  0.6945
 3516TIP3    H231964   4.460   1.881  15.548 -0.4818 -0.1142  0.4193
 3517TIP3   OH231965   5.760   3.076   4.053 -0.1263  0.1959 -0.3912
 3517TIP3    H131966   5.709   3.147   4.092 -2.2835 -0.6005 -1.6108
 3517TIP3    H231967   5.708   2.997   4.069  1.1379 -0.7938 -0.9811
 3518TIP3   OH231968   2.916   4.402   3.658 -0.1091 -0.7789 -0.6289
 3518TIP3    H131969   2.984   4.335   3.668 -0.5085 -1.3254 -1.4764
 3518TIP3    H231970   2.834   4.355   3.671 -0.3312 -0.0305  0.8617
 3519TIP3   OH231971   0.382   1.743  11.149 -0.5885  0.4716  0.2759
 3519TIP3    H131972   0.338   1.761  11.066 -1.5987 -0.4562  0.5905
 3519TIP3    H231973   0.466   1.704  11.123 -0.4820  1.0810 -0.3192
 3520TIP3   OH231974   2.264   0.231  15.780  0.3669 -0.3962  0.0833
 3520TIP3    H131975   2.320   0.175  15.725  0.3745 -1.8756  1.5087
 3520TIP3    H231976   2.180   0.232  15.735  0.2485 -1.9236  0.2210
 3521TIP3   OH231977   1.348   5.562  11.593  0.2870  0.0284  0.3745
 3521TIP3    H131978   1.261   5.530  11.617  0.3122  0.5452  1.1935
 3521TIP3    H231979   1.405   5.485  11.601 -0.0121 -0.2046  0.2845
 3522TIP3   OH231980   6.608   0.827   1.372 -0.0080  0.6576  0.3260
 3522TIP3    H131981   6.618   0.732   1.374 -0.0924  0.5554 -1.6508
 3522TIP3    H231982   6.651   0.858   1.451  0.5682 -0.9813  0.6889
 3523TIP3   OH231983   4.983   3.463   1.724 -0.2566 -0.5258 -0.3487
 3523TIP3    H131984   4.927   3.386   1.729 -0.4184 -0.5915 -2.1706
 3523TIP3    H231985   4.952   3.510   1.646 -1.0696  2.1372  1.4368
 3524TIP3   OH231986   6.103   1.104  12.068 -0.6740  0.2447 -0.5519
 3524TIP3    H131987   6.078   1.167  12.135 -1.5150  0.6274 -1.2139
 3524TIP3    H231988   6.030   1.103  12.007 -0.3178 -0.7711 -0.9906
 3525TIP3   OH231989   1.900   0.946   1.973 -0.5115  0.3792 -0.2369
 3525TIP3    H131990   1.921   0.853   1.981  0.8965  0.6782 -0.2186
 3525TIP3    H231991   1.874   0.957   1.881  1.5705  0.3631 -0.8726
 3526TIP3   OH231992   1.676   5.765  15.209 -0.1030 -0.5281 -0.2821
 3526TIP3    H131993   1.764   5.732  15.228 -0.6784  0.0314  4.7363
 3526TIP3    H231994   1.620   5.688  15.214 -0.1662 -0.6061 -1.7068
 3527TIP3   OH231995   2.004   5.482  15.538  0.1821  0.4104 -0.2219
 3527TIP3    H131996   2.017   5.577  15.536  3.1020  0.0885 -1.6838
 3527TIP3    H231997   2.030   5.457  15.627  2.8612  0.7111 -0.8163
 3528TIP3   OH231998   0.629   0.489  13.164  0.3855  0.4746  0.1329
 3528TIP3    H131999   0.561   0.423  13.178 -0.6811  1.5351  0.1188
 3528TIP3    H232000   0.646   0.524  13.252  2.0345 -0.7947  0.3843
 3529TIP3   OH232001   4.351   2.044  15.877 -0.4152 -0.2252  0.3059
 3529TIP3    H132002   4.428   2.068  15.825 -0.4894 -3.2054 -1.3887
 3529TIP3    H232003   4.283   2.105  15.848  0.2517 -0.1478 -1.2058
 3530TIP3   OH232004   1.116   5.973   0.102  0.4554 -0.2132  0.3342
 3530TIP3    H132005   1.096   5.913   0.030  0.0956  1.3276 -0.9293
 3530TIP3    H232006   1.031   6.011   0.125  0.7877  0.4400  0.5014
 3531TIP3   OH232007   0.911   2.797   3.616  0.1748 -0.0923 -0.6106
 3531TIP3    H132008   0.958   2.777   3.697 -0.2944  1.8087  0.1797
 3531TIP3    H232009   0.857   2.873   3.638  0.3423  0.7260 -2.8446
 3532TIP3   OH232010   3.840   2.207  16.583  0.2294 -0.0050  0.0744
 3532TIP3    H132011   3.770   2.257  16.623  1.5164  0.2466  2.1319
 3532TIP3    H232012   3.801   2.122  16.564 -0.8858  0.4583  0.2454
 3533TIP3   OH232013   1.357   3.836  16.131  0.0583  0.2285 -0.3344
 3533TIP3    H132014   1.420   3.897  16.169 -0.6655 -0.3200  1.9689
 3533TIP3    H232015   1.360   3.760  16.190 -2.6543  0.1651 -0.1451
 3534TIP3   OH232016   0.773   3.478  16.431  0.4074  0.4524 -0.0040
 3534TIP3    H132017   0.862   3.447  16.444  0.2327 -0.4487 -0.8216
 3534TIP3    H232018   0.718   3.408  16.465  0.0063  0.8263  0.1233
 3535TIP3   OH232019   3.913   6.193  14.428 -0.1476  0.4200 -0.1716
 3535TIP3    H132020   3.900   6.281  14.462 -0.2889 -0.5089  2.4446
 3535TIP3    H232021   4.002   6.170  14.455  0.9922  0.7150 -3.3302
 3536TIP3   OH232022   0.686   0.368  15.469  0.3239  0.1905  0.4467
 3536TIP3    H132023   0.740   0.442  15.496  1.2095 -0.2072 -0.1848
 3536TIP3    H232024   0.709   0.354  15.377  1.4422 -1.8906  0.9661
 3537TIP3   OH232025   3.639   2.203  13.383 -0.4153  0.1218 -0.0118
 3537TIP3    H132026   3.687   2.285  13.371  0.5373 -0.1686  1.5736
 3537TIP3    H232027   3.570   2.225  13.445  0.1662 -0.3749  0.8292
 3538TIP3   OH232028   5.450   1.202  13.797  0.1366  0.0760 -0.6486
 3538TIP3    H132029   5.495   1.157  13.868 -0.4462 -0.6934 -0.7509
 3538TIP3    H232030   5.513   1.267  13.765  0.4594  0.3222  0.4621
 3539TIP3   OH232031   4.838   0.972  15.207  0.4933 -0.3883  0.5211
 3539TIP3    H132032   4.898   0.919  15.259  1.1284  0.1212  0.3155
 3539TIP3    H232033   4.752   0.958  15.248  0.8820 -0.4876  1.3104
 3540TIP3   OH232034   3.903   2.164  12.705 -0.1714 -0.3036 -0.4555
 3540TIP3    H132035   3.869   2.145  12.792 -1.3595  1.4117 -0.4990
 3540TIP3    H232036   3.982   2.215  12.721 -1.5175  1.8516 -0.3203
 3541TIP3   OH232037   0.420   4.439   5.671  0.1017  0.0982 -0.3356
 3541TIP3    H132038   0.363   4.435   5.749 -2.7192  1.4771 -2.1721
 3541TIP3    H232039   0.412   4.352   5.633 -1.1094  0.3539 -0.7277
 3542TIP3   OH232040   3.554   4.642   2.410 -0.4993  0.7673 -0.4852
 3542TIP3    H132041   3.553   4.684   2.496  0.8503 -0.8266  0.3626
 3542TIP3    H232042   3.642   4.657   2.377 -0.3834 -0.3051 -0.7062
 3543TIP3   OH232043   3.949   2.927   2.528  0.2212 -0.0963 -0.2215
 3543TIP3    H132044   3.988   3.014   2.528 -0.1168  0.0563 -0.7060
 3543TIP3    H232045   4.008   2.875   2.582 -0.4140  0.8004  1.4079
 3544TIP3   OH232046   3.805   5.196   3.927 -0.0626  0.0429 -0.2315
 3544TIP3    H132047   3.889   5.218   3.967 -2.0236  0.2298  4.3328
 3544TIP3    H232048   3.770   5.280   3.897  0.5114  0.2721 -0.2548
 3545TIP3   OH232049   1.360   5.877   4.664  0.4219  0.1960 -0.1236
 3545TIP3    H132050   1.334   5.873   4.572  1.1898 -0.8315 -0.3131
 3545TIP3    H232051   1.335   5.966   4.692 -1.9335 -0.2283 -0.6555
 3546TIP3   OH232052   5.578   2.193  14.169  0.1165  0.3727 -0.5221
 3546TIP3    H132053   5.587   2.108  14.127  0.7985  0.1699  0.0122
 3546TIP3    H232054   5.492   2.225  14.142 -1.1005 -1.4344  0.9694
 3547TIP3   OH232055   1.103   2.889  12.087 -0.0617  0.5039  0.0758
 3547TIP3    H132056   1.125   2.814  12.031 -0.4777 -0.3798  1.0737
 3547TIP3    H232057   1.077   2.851  12.170  1.6220  1.8301  1.2986
 3548TIP3   OH232058   5.117   4.642   0.475  0.3397  0.0044 -0.0279
 3548TIP3    H132059   5.094   4.698   0.401  0.0344 -1.0674 -0.7625
 3548TIP3    H232060   5.172   4.573   0.437  1.0911  0.0454  0.9394
 3549TIP3   OH232061   0.946   6.133   3.744  0.0659 -0.2534  0.2372
 3549TIP3    H132062   0.940   6.155   3.651  0.0952 -1.6842 -0.1240
 3549TIP3    H232063   0.946   6.217   3.789  0.4986  0.4711 -1.0837
 3550TIP3   OH232064   5.778   2.793   0.348  0.1563  0.5719 -0.1267
 3550TIP3    H132065   5.740   2.729   0.289  0.0933  0.1911  0.3217
 3550TIP3    H232066   5.838   2.844   0.293  1.7631 -1.1753 -0.0754
 3551TIP3   OH232067   3.931   4.272  12.234  0.7953 -0.3361 -0.0635
 3551TIP3    H132068   3.854   4.328  12.235 -0.4187 -1.7525  3.2437
 3551TIP3    H232069   3.911   4.204  12.169 -0.5330 -0.3509  0.3325
 3552TIP3   OH232070   5.892   1.483   5.165 -0.9119  0.0037  0.2010
 3552TIP3    H132071   5.866   1.491   5.073  0.5246 -1.0846 -0.3450
 3552TIP3    H232072   5.902   1.388   5.178  0.2857  0.2275  1.0587
 3553TIP3   OH232073   4.438   0.686   3.641 -0.5041  0.3724 -0.2837
 3553TIP3    H132074   4.472   0.760   3.589 -0.9944  1.7999  1.3185
 3553TIP3    H232075   4.364   0.653   3.591 -0.6016  1.3192 -0.7864
 3554TIP3   OH232076   0.184   0.077  13.256  0.4337 -0.6659 -0.4417
 3554TIP3    H132077   0.109   0.068  13.315  0.4745  0.1903 -0.2417
 3554TIP3    H232078   0.247   0.130  13.305  0.6276 -0.2684 -1.1006
 3555TIP3   OH232079   4.989   2.680  13.665 -0.3688 -0.0596 -0.1443
 3555TIP3    H132080   5.060   2.744  13.676 -1.3151  1.2996 -1.5167
 3555TIP3    H232081   5.007   2.637  13.582 -0.4674 -0.6243  0.1236
 3556TIP3   OH232082   4.327   0.020   4.486  0.3091  0.2823  0.5477
 3556TIP3    H132083   4.298  -0.012   4.400  0.6746  1.7865 -0.1690
 3556TIP3    H232084   4.248   0.022   4.539 -0.0370 -0.0765  0.0561
 3557TIP3   OH232085   3.350   1.719   3.279 -0.0104 -0.2343 -1.1784
 3557TIP3    H132086   3.443   1.707   3.295 -0.0245  0.3996 -0.5447
 3557TIP3    H232087   3.336   1.685   3.191  0.9347  0.1944 -1.5079
 3558TIP3   OH232088   4.903   1.814   2.165  0.4083  0.5646  0.4227
 3558TIP3    H132089   4.860   1.895   2.192  0.4813  0.9080 -0.4413
 3558TIP3    H232090   4.968   1.842   2.099  0.8411 -0.1269  0.5421
 3559TIP3   OH232091   4.182   2.780   0.177  0.4502  0.1491 -0.1478
 3559TIP3    H132092   4.274   2.761   0.157  0.2611  0.0838 -0.9858
 3559TIP3    H232093   4.133   2.709   0.135  0.0079  0.2527  0.1870
 3560TIP3   OH232094   5.908   6.221  13.067 -0.1137 -0.1774 -0.2831
 3560TIP3    H132095   5.918   6.126  13.073 -2.7781 -0.4478  2.3459
 3560TIP3    H232096   5.823   6.234  13.026 -0.7735  0.9740  1.3605
 3561TIP3   OH232097   6.462   2.360  11.579 -0.8760 -0.5939  0.1405
 3561TIP3    H132098   6.393   2.308  11.538 -1.7666 -0.6083  1.5623
 3561TIP3    H232099   6.501   2.302  11.644 -0.4914 -0.1229  0.3394
 3562TIP3   OH232100   0.559   4.294   4.308 -0.2194 -0.0332  0.0119
 3562TIP3    H132101   0.470   4.324   4.325 -0.4879 -1.5485  1.5338
 3562TIP3    H232102   0.552   4.199   4.298  1.3599 -0.3797  1.5846
 3563TIP3   OH232103   6.611   2.305  13.498  1.1011  0.2359 -0.5697
 3563TIP3    H132104   6.581   2.216  13.516  1.3098  0.3023  0.1540
 3563TIP3    H232105   6.697   2.310  13.541  1.3226  0.6205 -1.0538
 3564TIP3   OH232106   0.127   1.737   1.381  0.1794 -0.4537 -0.2688
 3564TIP3    H132107   0.041   1.695   1.386 -0.1589  0.1209 -1.0427
 3564TIP3    H232108   0.173   1.688   1.312  0.4458 -0.7035  0.0823
 3565TIP3   OH232109   4.439   0.811   1.751  0.7645  0.1133 -0.4523
 3565TIP3    H132110   4.461   0.743   1.687  2.4515  0.6448 -0.5078
 3565TIP3    H232111   4.463   0.774   1.836  1.7362  0.6036 -0.4864
 3566TIP3   OH232112   5.350   2.179   2.545  0.5552  0.3305  0.2192
 3566TIP3    H132113   5.267   2.143   2.512 -0.0157  1.6576  0.1186
 3566TIP3    H232114   5.400   2.103   2.572 -0.9939 -0.4803  0.9695
 3567TIP3   OH232115   1.383   1.927   1.520 -0.1507  0.0760  0.0198
 3567TIP3    H132116   1.322   2.000   1.513  0.2239  0.5316  1.2960
 3567TIP3    H232117   1.462   1.956   1.474 -0.4118  0.0202 -0.4614
 3568TIP3   OH232118   4.431   6.702  12.551  0.0190  0.2689  0.4779
 3568TIP3    H132119   4.508   6.757  12.538  0.3915 -0.7187 -2.1569
 3568TIP3    H232120   4.450   6.622  12.501 -2.3053 -0.3976  0.5530
 3569TIP3   OH232121   5.441   2.006   0.130 -0.1152  0.0116 -0.0112
 3569TIP3    H132122   5.530   2.011   0.164  1.1910  1.8840 -3.2157
 3569TIP3    H232123   5.425   1.912   0.116  1.2933 -0.3624  0.7722
 3570TIP3   OH232124   1.292   5.197  12.345  0.7351 -0.2736  0.0015
 3570TIP3    H132125   1.318   5.288  12.361  1.9442 -1.0269  3.0897
 3570TIP3    H232126   1.210   5.187  12.393  1.1342 -1.0612  0.5325
 3571TIP3   OH232127   1.570   1.319   4.778 -0.6141  0.5615  0.0942
 3571TIP3    H132128   1.529   1.233   4.775 -0.9087  0.6525  1.1349
 3571TIP3    H232129   1.508   1.373   4.827 -2.1583  2.3398 -3.4866
 3572TIP3   OH232130   3.717   5.941   1.756 -0.0572 -0.2584 -0.2991
 3572TIP3    H132131   3.754   5.927   1.669 -0.2053  0.0832 -0.4177
 3572TIP3    H232132   3.791   5.928   1.816 -0.4306 -2.9108 -0.2781
 3573TIP3   OH232133   1.861   5.016  15.028  0.2550 -0.8045 -0.1331
 3573TIP3    H132134   1.886   5.105  15.002  1.0454 -0.3675  1.9392
 3573TIP3    H232135   1.773   5.005  14.992 -0.0159  0.9551 -0.1329
 3574TIP3   OH232136   1.172   0.125  15.957  0.0889  0.6203  0.6839
 3574TIP3    H132137   1.120   0.124  15.877  1.1344  0.9640 -0.0228
 3574TIP3    H232138   1.197   0.216  15.969 -1.1318  0.7894  2.1432
 3575TIP3   OH232139   5.230   0.592   6.117 -0.4588 -0.2989  0.6039
 3575TIP3    H132140   5.296   0.541   6.070  0.3825  1.7243 -0.5381
 3575TIP3    H232141   5.280   0.659   6.163 -1.6053  0.1484  1.2360
 3576TIP3   OH232142   0.263   2.257   3.348  0.0980  0.2074 -0.1747
 3576TIP3    H132143   0.349   2.294   3.371  0.5964 -0.6492 -0.6124
 3576TIP3    H232144   0.226   2.230   3.432  0.2989  0.4867  0.0066
 3577TIP3   OH232145   4.488   6.719  13.778 -0.4494 -0.2716  0.4098
 3577TIP3    H132146   4.546   6.694  13.706  1.0220  0.4485  1.2803
 3577TIP3    H232147   4.506   6.811  13.793  0.8705 -0.8380  2.9959
 3578TIP3   OH232148   1.928   5.204   2.860  0.1485 -0.2723  0.3441
 3578TIP3    H132149   2.021   5.179   2.858 -0.2177 -1.6375 -0.4039
 3578TIP3    H232150   1.909   5.217   2.953  1.3227  0.9956  0.4420
 3579TIP3   OH232151   0.919   3.098   2.693  0.3682  0.4175 -0.8262
 3579TIP3    H132152   0.882   3.174   2.739 -0.4159  0.3769 -1.3751
 3579TIP3    H232153   0.975   3.056   2.758  0.0034  0.8916 -0.1920
 3580TIP3   OH232154   6.698   0.229   1.771  0.4004  0.5943  0.4416
 3580TIP3    H132155   6.682   0.301   1.831  0.8535  0.7726  0.3579
 3580TIP3    H232156   6.674   0.150   1.820 -0.2823  0.8133  0.4645
 3581TIP3   OH232157   4.442   6.620  15.521 -0.1654  0.1766 -0.9080
 3581TIP3    H132158   4.417   6.709  15.547 -2.6085 -0.7503  0.1834
 3581TIP3    H232159   4.522   6.602  15.571  0.1791  1.6044 -0.8901
 3582TIP3   OH232160   4.744   1.589   1.076 -0.0218 -0.8410  0.1637
 3582TIP3    H132161   4.794   1.630   1.005 -1.5583 -0.9958 -1.0599
 3582TIP3    H232162   4.801   1.596   1.152  1.2308  0.3390 -0.8268
 3583TIP3   OH232163   2.745   5.180   0.467  0.2518 -0.5717 -0.5552
 3583TIP3    H132164   2.716   5.090   0.454 -0.6806 -0.6892  1.7398
 3583TIP3    H232165   2.665   5.232   0.460  0.5040 -0.1280 -0.2160
 3584TIP3   OH232166   1.438   4.266  13.836 -0.2248 -0.5124 -0.6805
 3584TIP3    H132167   1.464   4.251  13.745  1.1909 -0.9932 -0.2170
 3584TIP3    H232168   1.386   4.189  13.860 -1.4187  0.0501 -1.3441
 3585TIP3   OH232169   5.159   0.310  11.366 -0.0002 -0.0977 -0.5813
 3585TIP3    H132170   5.129   0.326  11.456 -0.0486 -1.6318 -0.2986
 3585TIP3    H232171   5.093   0.252  11.329  2.1573 -2.9921 -0.1748
 3586TIP3   OH232172   5.634   1.767  17.125  0.1632  0.4765 -0.1955
 3586TIP3    H132173   5.655   1.676  17.106 -0.1575  0.0205  1.4877
 3586TIP3    H232174   5.565   1.789  17.063 -2.0513 -1.4615  1.3994
 3587TIP3   OH232175   1.007   4.288  11.836 -0.3260 -0.1163  0.6650
 3587TIP3    H132176   1.089   4.328  11.864  0.1321  1.0900 -2.0462
 3587TIP3    H232177   1.030   4.237  11.759 -1.9339 -0.8077  0.5999
 3588TIP3   OH232178   0.242   6.156  11.077 -0.2014 -0.0254 -0.2470
 3588TIP3    H132179   0.242   6.237  11.127 -1.5243 -0.1893  0.0801
 3588TIP3    H232180   0.160   6.159  11.027 -1.0995 -1.8154  0.9620
 3589TIP3   OH232181   0.637   3.128   1.595  0.1561  0.1988 -0.0973
 3589TIP3    H132182   0.608   3.205   1.546  0.0116 -0.4991 -1.1382
 3589TIP3    H232183   0.592   3.136   1.679 -0.1396  1.0656 -0.3160
 3590TIP3   OH232184   6.522   3.621  13.052  0.2181  0.1968  0.1080
 3590TIP3    H132185   6.440   3.589  13.091  0.4913 -0.8056 -0.1147
 3590TIP3    H232186   6.533   3.708  13.089 -0.8598  0.2793  0.2838
 3591TIP3   OH232187   5.256   3.763   2.168  0.3242 -0.7400 -0.2288
 3591TIP3    H132188   5.196   3.718   2.109  2.3195 -3.4428 -0.3567
 3591TIP3    H232189   5.340   3.764   2.122  1.5001 -1.2595  1.7716
 3592TIP3   OH232190   2.896   2.602  13.563  0.0890  0.5697  0.4900
 3592TIP3    H132191   2.832   2.635  13.626 -1.2408  0.6751 -0.8504
 3592TIP3    H232192   2.880   2.507  13.561 -0.2673  0.6346 -0.0745
 3593TIP3   OH232193   4.732   1.255   0.596  0.3039 -0.6664  0.0098
 3593TIP3    H132194   4.656   1.283   0.646 -0.4790 -1.4541 -0.7076
 3593TIP3    H232195   4.730   1.159   0.602  0.9352 -0.7130 -0.4600
 3594TIP3   OH232196   1.542   4.149  15.686  0.0288 -0.2971 -0.0743
 3594TIP3    H132197   1.569   4.232  15.645  0.8729 -0.3929  0.2589
 3594TIP3    H232198   1.513   4.174  15.773 -2.4978  0.0086 -0.9223
 3595TIP3   OH232199   5.470   5.636   5.162  1.2813 -0.2191  0.2671
 3595TIP3    H132200   5.531   5.705   5.188  0.7772  0.7453 -1.0017
 3595TIP3    H232201   5.388   5.682   5.144  0.4440 -1.3706  0.9924
 3596TIP3   OH232202   1.761   3.785  11.885 -0.0738 -0.2484  0.0267
 3596TIP3    H132203   1.807   3.846  11.828 -3.0773  0.6346 -1.6480
 3596TIP3    H232204   1.673   3.777  11.847 -0.8708 -3.0406  2.0959
 3597TIP3   OH232205   4.432   0.052   5.668  0.0716  0.7965 -0.1909
 3597TIP3    H132206   4.371   0.106   5.618 -0.3502  1.4749  1.0227
 3597TIP3    H232207   4.384  -0.029   5.686 -1.3838  2.1406  2.6053
 3598TIP3   OH232208   4.382   5.354  17.145 -0.4443 -0.5967  0.0518
 3598TIP3    H132209   4.427   5.342  17.062 -1.4090  2.1930 -1.0314
 3598TIP3    H232210   4.451   5.358  17.210  1.1497  3.5719 -1.5404
 3599TIP3   OH232211   6.752   4.893  10.297  0.0956 -0.1713  0.7797
 3599TIP3    H132212   6.756   4.805  10.335  0.4064 -0.5041  0.0172
 3599TIP3    H232213   6.666   4.897  10.255 -0.4092  0.3393  1.8251
 3600TIP3   OH232214   0.252   4.887   1.498  0.7964 -0.6736 -0.1994
 3600TIP3    H132215   0.335   4.868   1.543  0.4701 -0.9665  0.2988
 3600TIP3    H232216   0.265   4.856   1.409  1.6658  0.4531 -0.4909
 3601TIP3   OH232217   4.153   6.310  16.435  0.1900 -0.2012 -0.1831
 3601TIP3    H132218   4.190   6.390  16.473  0.9349  0.2050 -1.6669
 3601TIP3    H232219   4.205   6.240  16.473 -1.2000 -0.1429  2.0098
 3602TIP3   OH232220   5.803   3.974  15.497  0.2135 -0.1148 -0.2914
 3602TIP3    H132221   5.871   3.969  15.564  0.4528 -0.7881 -0.5801
 3602TIP3    H232222   5.722   3.954  15.544  0.2431  0.3883 -0.0104
 3603TIP3   OH232223   6.057   0.209   1.496  0.4095  0.1628  0.3109
 3603TIP3    H132224   6.101   0.277   1.549  0.7456 -0.3712  0.7321
 3603TIP3    H232225   6.124   0.181   1.434 -0.1279  1.1144 -0.7236
 3604TIP3   OH232226   4.933   1.062  13.384 -0.2649 -0.3895  0.1013
 3604TIP3    H132227   4.917   1.056  13.478 -1.1154  3.0884  0.3128
 3604TIP3    H232228   4.847   1.081  13.346  0.0206 -1.9310 -1.4689
 3605TIP3   OH232229   3.918   4.214  16.960 -0.4953 -0.0526  0.1175
 3605TIP3    H132230   3.955   4.291  17.003 -0.6730  0.0954  0.0093
 3605TIP3    H232231   3.994   4.164  16.931 -0.3428  0.9769 -1.4091
 3606TIP3   OH232232   4.327   5.552  13.402 -0.2782  0.3034 -0.2054
 3606TIP3    H132233   4.326   5.647  13.388  0.7958  0.3386 -0.1012
 3606TIP3    H232234   4.303   5.515  13.317 -0.0107  0.6537 -0.4357
 3607TIP3   OH232235   3.462   0.119   1.449  0.0598  0.0738  0.0129
 3607TIP3    H132236   3.501   0.172   1.380  0.2179 -0.6072 -0.4277
 3607TIP3    H232237   3.375   0.096   1.415  0.2668 -0.5458 -0.1209
 3608TIP3   OH232238   3.479   0.178  15.045 -0.0395 -0.2965 -0.5491
 3608TIP3    H132239   3.534   0.118  15.095 -0.5706 -0.9460 -0.7302
 3608TIP3    H232240   3.516   0.179  14.957 -0.2331 -0.6281 -0.6354
 3609TIP3   OH232241   3.796   2.124   1.438 -0.0417  0.2847  0.1707
 3609TIP3    H132242   3.706   2.103   1.416 -0.0522 -0.2003  0.6696
 3609TIP3    H232243   3.846   2.099   1.361 -0.5342  2.3317 -0.8892
 3610TIP3   OH232244   6.011   6.673  14.508 -0.1909  0.3848 -0.4827
 3610TIP3    H132245   6.087   6.715  14.548 -0.1012  0.8202 -1.0853
 3610TIP3    H232246   5.951   6.746  14.489 -0.7784  0.0454  0.0121
 3611TIP3   OH232247   2.264   4.242   1.157 -0.3137  0.5676 -0.1855
 3611TIP3    H132248   2.206   4.177   1.197  0.3198  0.5205  0.6770
 3611TIP3    H232249   2.303   4.288   1.230  1.9590 -0.4695 -0.6569
 3612TIP3   OH232250   4.058   4.759  15.375 -0.1205 -0.7409 -0.5074
 3612TIP3    H132251   3.965   4.755  15.393 -0.1826 -2.2481 -1.0084
 3612TIP3    H232252   4.064   4.749  15.280  0.5375 -0.1539 -0.5388
 3613TIP3   OH232253   0.006   5.782   2.296 -0.0519  0.1131 -1.0382
 3613TIP3    H132254   0.014   5.877   2.303  0.0437  0.1018 -0.9916
 3613TIP3    H232255   0.056   5.760   2.217  0.9684 -0.0316 -0.3669
 3614TIP3   OH232256   1.509   0.433   2.255  0.0477  0.0540  0.1041
 3614TIP3    H132257   1.453   0.507   2.233  0.7797  0.8047  0.6881
 3614TIP3    H232258   1.448   0.361   2.272 -0.6581  0.4237 -0.7988
 3615TIP3   OH232259   5.850   1.984   3.101  0.6482 -0.7547 -0.5589
 3615TIP3    H132260   5.860   1.915   3.166  3.8893 -1.9279 -2.0920
 3615TIP3    H232261   5.831   1.936   3.019  3.0578  0.0580 -1.6691
 3616TIP3   OH232262   2.503   2.820  15.358 -0.2608  0.6641  0.4769
 3616TIP3    H132263   2.546   2.744  15.397 -1.5281 -0.8884 -0.9923
 3616TIP3    H232264   2.516   2.809  15.263 -3.3703  0.3654 -0.0084
 3617TIP3   OH232265   2.754   4.138   0.138 -0.3927  0.2312  0.4952
 3617TIP3    H132266   2.666   4.175   0.147 -0.6102  0.3056 -1.5585
 3617TIP3    H232267   2.739   4.044   0.126 -0.4446  0.5080 -2.2968
 3618TIP3   OH232268   2.565   3.836  14.280  0.2227  0.0240  0.4119
 3618TIP3    H132269   2.481   3.791  14.288 -0.7680  1.7445  0.1212
 3618TIP3    H232270   2.553   3.898  14.208  2.4820 -1.1921 -1.1367
 3619TIP3   OH232271   6.230   6.098  14.296 -0.0417  0.3439  0.2574
 3619TIP3    H132272   6.157   6.116  14.356 -0.8234 -1.1459 -0.1898
 3619TIP3    H232273   6.220   6.162  14.226 -0.5339  0.5835  0.5394
 3620TIP3   OH232274   3.729   4.071  14.422 -0.3690  0.8666  0.3303
 3620TIP3    H132275   3.762   3.981  14.419 -1.4918  0.4650 -1.2919
 3620TIP3    H232276   3.685   4.077  14.507  3.9442  1.5793  2.8277
 3621TIP3   OH232277   3.812   1.493   1.885 -0.2123 -0.1309 -0.1213
 3621TIP3    H132278   3.729   1.467   1.846 -0.4801  0.9271 -0.2723
 3621TIP3    H232279   3.788   1.547   1.960  0.3353  0.2771 -0.2323
 3622TIP3   OH232280   1.995   0.276   0.842  0.0435 -0.1352 -0.1014
 3622TIP3    H132281   2.003   0.261   0.936  2.1408  0.8970 -0.0711
 3622TIP3    H232282   1.985   0.370   0.833  0.1556 -0.1931 -0.9397
 3623TIP3   OH232283   4.059   3.309   1.429 -0.4687  0.6320 -0.2958
 3623TIP3    H132284   4.075   3.215   1.438 -0.7750  0.6958  1.1174
 3623TIP3    H232285   4.039   3.339   1.518 -3.7337  1.4276 -1.1711
 3624TIP3   OH232286   0.588   2.469   2.161  0.1547 -0.2032  0.6463
 3624TIP3    H132287   0.528   2.412   2.114 -0.5418  0.1106  1.1497
 3624TIP3    H232288   0.632   2.519   2.092  0.3616 -0.9404  0.2381
 3625TIP3   OH232289   0.016   3.370  13.735  0.5632  0.1960 -0.0293
 3625TIP3    H132290   0.082   3.370  13.804  1.2611 -1.3187 -0.6516
 3625TIP3    H232291   0.054   3.318  13.664 -1.1404 -0.4243 -0.5611
 3626TIP3   OH232292   4.424   0.798   3.931 -0.4733 -0.2777 -0.3554
 3626TIP3    H132293   4.410   0.718   3.880  0.9987  0.4440 -2.0043
 3626TIP3    H232294   4.439   0.866   3.865 -0.5225  1.1358  1.0250
 3627TIP3   OH232295   3.846   1.693   6.611 -0.1417  0.0427  0.0057
 3627TIP3    H132296   3.940   1.688   6.624 -0.0090 -2.6117 -1.2153
 3627TIP3    H232297   3.835   1.683   6.516 -1.6480  0.5885  0.0971
 3628TIP3   OH232298   1.175   3.113   1.815  0.0530  0.4950 -0.5590
 3628TIP3    H132299   1.099   3.171   1.813 -0.2080  0.1587 -0.4607
 3628TIP3    H232300   1.232   3.146   1.745  0.3152  1.4122  0.0634
 3629TIP3   OH232301   3.640   1.748  14.073 -0.2804 -0.0102  0.3852
 3629TIP3    H132302   3.551   1.761  14.040 -0.0549 -0.1804 -0.3263
 3629TIP3    H232303   3.679   1.835  14.072  0.4962 -0.3127 -2.1679
 3630TIP3   OH232304   6.706   2.688  16.524  0.1625  0.0169 -0.6100
 3630TIP3    H132305   6.720   2.701  16.617 -1.4666 -1.1764 -0.1453
 3630TIP3    H232306   6.653   2.763  16.497 -0.1368 -0.0951 -0.3478
 3631TIP3   OH232307   3.752   5.788   4.197 -0.3966 -0.8053  0.8872
 3631TIP3    H132308   3.813   5.756   4.130 -0.9033  0.3418 -0.1560
 3631TIP3    H232309   3.691   5.716   4.210 -1.1746 -0.5484 -0.9959
 3632TIP3   OH232310   5.616   0.875  13.283  0.5518  0.2380  0.1049
 3632TIP3    H132311   5.536   0.923  13.265  0.4277  0.3524  0.9104
 3632TIP3    H232312   5.642   0.837  13.199  0.7733  1.8846 -0.5981
 3633TIP3   OH232313   1.088   5.268   0.122  0.5022 -0.6534  0.3171
 3633TIP3    H132314   1.000   5.247   0.091  1.1248 -1.7841 -0.7687
 3633TIP3    H232315   1.083   5.257   0.217 -0.6604 -0.1107  0.3434
 3634TIP3   OH232316   6.060   3.438   5.348 -0.2392  0.4138  0.7582
 3634TIP3    H132317   6.074   3.500   5.419 -0.2682  0.7811  0.4496
 3634TIP3    H232318   6.008   3.368   5.386 -0.8852  0.9659  0.9143
 3635TIP3   OH232319   3.035   4.014  15.782  0.4925  0.6705 -0.3060
 3635TIP3    H132320   3.049   4.039  15.691  0.0942  0.2311 -0.4969
 3635TIP3    H232321   2.972   3.942  15.777 -0.8353  1.7331  0.4071
 3636TIP3   OH232322   0.965   3.253  12.101 -0.3382  0.1735  0.0653
 3636TIP3    H132323   0.924   3.334  12.068 -1.7136 -0.8746 -0.9286
 3636TIP3    H232324   0.912   3.230  12.177  1.5548  1.4613  1.8635
 3637TIP3   OH232325   0.528   3.855  14.437  0.0872 -0.2208  0.0226
 3637TIP3    H132326   0.589   3.792  14.398  1.5090  0.9907  0.2009
 3637TIP3    H232327   0.580   3.935  14.446 -1.2236  0.5188  1.2374
 3638TIP3   OH232328   4.734   2.686  16.106 -0.0703  0.6587  0.3599
 3638TIP3    H132329   4.739   2.595  16.077  1.3745  0.2079  1.8586
 3638TIP3    H232330   4.667   2.726  16.049 -2.0554 -1.7542  0.8294
 3639TIP3   OH232331   3.700   4.241  16.120  0.1191  0.1548 -0.3363
 3639TIP3    H132332   3.655   4.163  16.086  0.2095 -0.1081  0.1325
 3639TIP3    H232333   3.710   4.224  16.214  1.7322 -0.0666 -0.5184
 3640TIP3   OH232334   5.060   1.558  11.912  0.0339  0.0231  0.4709
 3640TIP3    H132335   5.074   1.624  11.843  0.0711  0.1235  0.5733
 3640TIP3    H232336   5.126   1.491  11.895 -0.2253 -0.1520  0.1641
 3641TIP3   OH232337   1.906   2.355  12.343 -0.5404 -0.0255  0.2714
 3641TIP3    H132338   1.969   2.290  12.374  1.4152  1.2280 -0.8234
 3641TIP3    H232339   1.900   2.339  12.249 -2.5731 -0.6520  0.4702
 3642TIP3   OH232340   1.272   5.755  16.333  0.1711  0.3582 -0.1911
 3642TIP3    H132341   1.345   5.722  16.280 -0.5220 -0.3440 -0.7265
 3642TIP3    H232342   1.195   5.711  16.298 -0.3859  0.3353  1.0319
 3643TIP3   OH232343   4.869   6.031  11.821 -0.2237  0.2732 -0.2442
 3643TIP3    H132344   4.893   6.087  11.895 -0.1004 -0.8522  0.5885
 3643TIP3    H232345   4.919   5.951  11.833 -1.7453 -0.7502 -0.4027
 3644TIP3   OH232346   5.739   0.868   4.850 -0.0628 -0.3290 -0.0313
 3644TIP3    H132347   5.660   0.891   4.800 -0.3519 -0.4880  0.3460
 3644TIP3    H232348   5.769   0.950   4.887  0.3337 -0.1563 -0.7216
 3645TIP3   OH232349   5.379   3.098  16.252 -0.4219 -0.1338 -0.1293
 3645TIP3    H132350   5.412   3.009  16.260 -0.8003 -0.3122 -0.5301
 3645TIP3    H232351   5.407   3.127  16.165 -1.3219 -0.2926 -0.4841
 3646TIP3   OH232352   0.802   0.349  15.196 -0.3658  0.4528  0.0947
 3646TIP3    H132353   0.779   0.376  15.108 -0.1379  2.5065  0.6220
 3646TIP3    H232354   0.878   0.404  15.219  1.3197 -1.9150  0.5964
 3647TIP3   OH232355   6.670   5.284  11.903  0.5415  0.5292  0.0880
 3647TIP3    H132356   6.647   5.271  11.811 -1.7982  0.1048  0.6735
 3647TIP3    H232357   6.717   5.368  11.904 -0.1414  0.9658 -1.3827
 3648TIP3   OH232358   3.382   6.091  14.394  0.6810  0.8340 -0.2432
 3648TIP3    H132359   3.444   6.134  14.334  1.0264 -0.7591 -1.0808
 3648TIP3    H232360   3.296   6.117  14.361  0.8805  0.7663 -0.8392
 3649TIP3   OH232361   2.867   4.987  16.353  0.0054  0.4848 -0.0834
 3649TIP3    H132362   2.932   4.957  16.291 -0.4599 -0.1557 -0.2766
 3649TIP3    H232363   2.805   4.914  16.360 -1.3936  1.5385 -0.8725
 3650TIP3   OH232364   6.257   6.211  14.045  0.1865  0.0602 -0.2290
 3650TIP3    H132365   6.205   6.273  13.994  0.1933  0.5447  0.3540
 3650TIP3    H232366   6.289   6.148  13.980 -1.5534 -0.5587 -0.5332
 3651TIP3   OH232367   1.715   1.612   0.464 -0.8480 -0.0249 -0.3595
 3651TIP3    H132368   1.709   1.704   0.490 -1.5566 -0.2767  0.3858
 3651TIP3    H232369   1.640   1.599   0.406 -0.3645  0.0316 -1.0115
 3652TIP3   OH232370   3.686   1.825  11.346 -0.4763 -0.3021 -0.6328
 3652TIP3    H132371   3.669   1.855  11.256 -0.8414  1.7854  0.0628
 3652TIP3    H232372   3.781   1.832  11.356 -0.4311 -0.5676 -0.8685
 3653TIP3   OH232373   1.028   2.788   4.783 -0.1126 -0.3852  0.7313
 3653TIP3    H132374   0.994   2.701   4.759 -1.2128 -0.1914  1.5075
 3653TIP3    H232375   1.007   2.797   4.876 -1.6794  1.4348  0.2627
 3654TIP3   OH232376   4.240   5.321   4.331  0.4093 -0.6553 -0.3140
 3654TIP3    H132377   4.297   5.344   4.257 -0.5582  2.6101 -0.1706
 3654TIP3    H232378   4.184   5.251   4.296  0.5474  0.2069 -2.3990
 3655TIP3   OH232379   4.412   2.686   1.319  0.2743 -0.2247 -0.3130
 3655TIP3    H132380   4.462   2.745   1.264  0.6358 -0.4269 -0.2033
 3655TIP3    H232381   4.428   2.717   1.408 -0.6757  0.3879 -0.3399
 3656TIP3   OH232382   2.061   4.970  10.760 -0.6002  0.3628  0.7163
 3656TIP3    H132383   2.044   5.054  10.719  0.2429  0.1917 -0.0377
 3656TIP3    H232384   2.023   4.906  10.700  0.2560  0.1318  0.3986
 3657TIP3   OH232385   6.418   3.262  17.053 -0.2939  0.3830  0.2561
 3657TIP3    H132386   6.353   3.233  16.988 -0.2843  0.8507  0.0379
 3657TIP3    H232387   6.409   3.200  17.125 -0.4668 -0.0029 -0.0943
 3658TIP3   OH232388   1.656   5.023   5.023 -0.4410  0.4867  0.2165
 3658TIP3    H132389   1.718   5.096   5.023  1.4459 -1.0159 -1.4520
 3658TIP3    H232390   1.588   5.049   4.962 -0.3315  1.2638  0.4174
 3659TIP3   OH232391   3.432   6.000  12.019  0.0548 -0.5720  0.1970
 3659TIP3    H132392   3.413   5.909  11.998 -2.7956 -0.3486  1.2963
 3659TIP3    H232393   3.433   6.045  11.935 -3.6398 -0.8827 -0.1583
 3660TIP3   OH232394   1.092   6.596  17.164 -0.3316 -0.1628 -0.3528
 3660TIP3    H132395   1.176   6.564  17.131 -0.5428 -0.2960 -0.7742
 3660TIP3    H232396   1.057   6.648  17.092  0.0453  1.1230  0.3515
 3661TIP3   OH232397   6.580   2.302  13.108 -0.2983 -0.6178 -0.2229
 3661TIP3    H132398   6.663   2.342  13.136 -0.7698  0.9376 -0.9167
 3661TIP3    H232399   6.514   2.350  13.158 -0.8863 -0.5485 -1.0602
 3662TIP3   OH232400   4.398   4.582  16.593 -0.4990  0.1261 -0.4996
 3662TIP3    H132401   4.479   4.531  16.591  0.2513  1.2660 -3.2805
 3662TIP3    H232402   4.331   4.519  16.621  1.0994 -1.1442  0.7104
 3663TIP3   OH232403   5.728   3.138   0.619  0.2533 -0.1327  0.5816
 3663TIP3    H132404   5.808   3.105   0.577 -0.0204 -0.5946  0.4092
 3663TIP3    H232405   5.661   3.132   0.551  0.4882  2.2290  0.0612
 3664TIP3   OH232406   3.580   4.440   3.465 -0.1599 -0.3153 -0.5196
 3664TIP3    H132407   3.624   4.470   3.545 -0.1648 -1.6493  0.0036
 3664TIP3    H232408   3.493   4.480   3.470  0.6431  1.6719 -1.1570
 3665TIP3   OH232409   0.565   3.061  12.836  0.2393 -0.2877  0.0880
 3665TIP3    H132410   0.519   3.129  12.787  0.8830  0.8274  0.9984
 3665TIP3    H232411   0.657   3.073  12.814  0.5362  0.2160  1.5170
 3666TIP3   OH232412   2.842   1.190  14.271 -0.2906  0.0448  0.6787
 3666TIP3    H132413   2.894   1.165  14.347  0.5330  0.6527  0.3213
 3666TIP3    H232414   2.858   1.121  14.207 -0.2613  0.0133  0.7206
 3667TIP3   OH232415   5.640   5.721  15.999 -0.3141  0.5160  0.4890
 3667TIP3    H132416   5.605   5.647  15.949  0.8156  0.5288 -0.3766
 3667TIP3    H232417   5.663   5.683  16.084 -1.7517  0.3678  0.8243
 3668TIP3   OH232418   3.820   0.930   0.899  0.2980 -0.0016 -0.5359
 3668TIP3    H132419   3.789   0.984   0.826  0.9564  0.2477 -0.6312
 3668TIP3    H232420   3.895   0.883   0.864 -0.2641 -0.9931 -0.4552
 3669TIP3   OH232421   4.680   3.830   1.465  0.6807 -0.5100  0.7980
 3669TIP3    H132422   4.709   3.776   1.391  0.2198  0.0660  0.1818
 3669TIP3    H232423   4.586   3.842   1.450  0.4058 -1.0895  1.9439
 3670TIP3   OH232424   2.854   0.183   1.612 -0.0402  0.3319 -0.1011
 3670TIP3    H132425   2.850   0.162   1.519  0.1433 -0.5704  0.0769
 3670TIP3    H232426   2.767   0.162   1.645 -0.1266  0.7176 -0.0815
 3671TIP3   OH232427   3.152   6.175  13.984 -0.5411  0.2478  0.3623
 3671TIP3    H132428   3.106   6.241  13.933  0.7664  0.0059 -1.2222
 3671TIP3    H232429   3.243   6.183  13.958  0.3593  0.5720  3.2291
 3672TIP3   OH232430   2.889   2.838  15.116 -0.3667  0.1255  0.0844
 3672TIP3    H132431   2.950   2.791  15.058 -0.7342  0.1591 -0.3301
 3672TIP3    H232432   2.811   2.851  15.063 -1.0751 -0.6992  0.8918
 3673TIP3   OH232433   5.277   2.440   3.031  0.0479 -0.0736 -0.0585
 3673TIP3    H132434   5.273   2.525   2.988  0.1709 -0.3262 -0.5758
 3673TIP3    H232435   5.322   2.383   2.969  0.0772 -0.4882  0.3318
 3674TIP3   OH232436   4.625   1.426   5.855  0.2864 -0.3536 -0.7620
 3674TIP3    H132437   4.609   1.519   5.838 -0.3375 -0.0449  1.2295
 3674TIP3    H232438   4.671   1.395   5.777 -0.2191  1.4226 -1.8270
 3675TIP3   OH232439   5.885   6.265  16.354  0.2390 -0.0676 -0.3625
 3675TIP3    H132440   5.863   6.182  16.395  0.8357 -0.2569 -0.4140
 3675TIP3    H232441   5.935   6.241  16.276  0.9213  0.3526 -0.0669
 3676TIP3   OH232442   1.839   2.011   5.205 -0.2528 -0.6008 -0.6252
 3676TIP3    H132443   1.757   1.964   5.222 -1.5150  2.0557  1.5068
 3676TIP3    H232444   1.865   2.045   5.290  1.9749  0.3877 -1.6226
 3677TIP3   OH232445   6.422   5.558   5.639 -0.3323 -0.1270 -0.0670
 3677TIP3    H132446   6.422   5.558   5.735  0.1585  0.4165 -0.0602
 3677TIP3    H232447   6.464   5.475   5.615  0.6949  0.2901  0.2103
 3678TIP3   OH232448   3.002   3.998  11.402 -0.1707  0.2831 -0.2436
 3678TIP3    H132449   3.091   3.965  11.414 -0.1320  0.3197 -0.4185
 3678TIP3    H232450   2.994   4.069  11.467  0.0785  0.5673 -0.5183
 3679TIP3   OH232451   4.100   2.738  12.568 -0.4336 -0.6349 -0.1942
 3679TIP3    H132452   4.025   2.698  12.612 -0.4340  1.1695  1.5655
 3679TIP3    H232453   4.065   2.819  12.531  0.5713  0.1172  0.4469
 3680TIP3   OH232454   3.278   2.605   2.486 -0.1446  0.2531 -0.4272
 3680TIP3    H132455   3.256   2.693   2.516  1.2721 -0.1288  1.9645
 3680TIP3    H232456   3.249   2.547   2.556 -1.3747 -1.2915 -2.1100
 3681TIP3   OH232457   0.507   3.032   5.180 -0.4452  0.2441 -0.1024
 3681TIP3    H132458   0.563   2.996   5.112 -2.2608 -0.3755 -1.3620
 3681TIP3    H232459   0.486   2.956   5.236 -0.2157  0.4296  0.2414
 3682TIP3   OH232460   1.904   5.453  14.678  0.2148 -0.0483 -0.0061
 3682TIP3    H132461   1.868   5.534  14.641 -2.7303 -0.7433  0.9934
 3682TIP3    H232462   1.833   5.389  14.668  1.1863 -1.5848  2.1841
 3683TIP3   OH232463   3.284   1.149  10.909 -0.1646 -0.1057 -0.2817
 3683TIP3    H132464   3.300   1.156  11.004 -2.6474 -0.1549  0.2040
 3683TIP3    H232465   3.189   1.144  10.901  0.0444 -1.9547 -2.6874
 3684TIP3   OH232466   5.801   6.393   1.702  0.1375  0.2680 -0.1811
 3684TIP3    H132467   5.766   6.481   1.710  0.1151  0.1172  1.9091
 3684TIP3    H232468   5.766   6.360   1.619 -2.7413  0.9649  0.6563
 3685TIP3   OH232469   4.464   2.056  13.667  0.3048  0.0936  0.3240
 3685TIP3    H132470   4.492   2.109  13.593  0.1120  0.5336  0.5640
 3685TIP3    H232471   4.411   1.987  13.628 -2.0007  1.7845  0.2397
 3686TIP3   OH232472   2.426   5.942   6.328 -0.7839 -0.0635  0.6165
 3686TIP3    H132473   2.421   5.848   6.310  0.5160 -0.0523  0.0868
 3686TIP3    H232474   2.350   5.979   6.283 -0.7760 -0.7502  0.0087
 3687TIP3   OH232475   1.860   3.301  13.983  0.6097 -0.3416  0.1254
 3687TIP3    H132476   1.861   3.239  13.910  1.7396 -1.0818  0.7358
 3687TIP3    H232477   1.845   3.247  14.061 -0.5314  0.4309  0.4708
 3688TIP3   OH232478   4.721   6.456  13.272 -0.3215 -0.9259 -0.2396
 3688TIP3    H132479   4.794   6.396  13.262  0.2134 -0.6945  1.8109
 3688TIP3    H232480   4.733   6.521  13.202  0.4407 -1.8250 -0.9675
 3689TIP3   OH232481   4.760   0.658   3.539  0.1944 -0.1712  0.0373
 3689TIP3    H132482   4.851   0.683   3.547  0.4148 -0.6029 -0.9336
 3689TIP3    H232483   4.748   0.588   3.603  1.2086 -1.7808 -1.4301
 3690TIP3   OH232484   1.223   6.055   2.208  0.8159  0.5814  0.6047
 3690TIP3    H132485   1.226   6.000   2.129 -1.4295  0.5261  0.5048
 3690TIP3    H232486   1.199   6.141   2.175 -0.3333  0.5138  1.2064
 3691TIP3   OH232487   5.739   6.118  13.442 -0.2706  0.0887  0.7533
 3691TIP3    H132488   5.730   6.197  13.389  2.2110 -0.4349 -0.5966
 3691TIP3    H232489   5.794   6.145  13.516  0.2450 -0.2631  0.5035
 3692TIP3   OH232490   2.676   6.666   5.314 -0.1774 -0.1294  0.7357
 3692TIP3    H132491   2.701   6.752   5.281  1.8261 -0.9430 -0.0161
 3692TIP3    H232492   2.585   6.677   5.343 -0.3660  1.9019 -0.4379
 3693TIP3   OH232493   5.344   4.076  16.223 -0.0093  0.1484 -0.6822
 3693TIP3    H132494   5.320   3.996  16.270 -1.2039  1.1051  0.4010
 3693TIP3    H232495   5.440   4.080  16.230 -0.0860 -0.2453  0.8467
 3694TIP3   OH232496   2.494   0.986   3.479 -0.0782 -0.0602  0.4862
 3694TIP3    H132497   2.472   1.074   3.509  1.7440  0.4364  0.5303
 3694TIP3    H232498   2.529   0.943   3.557  0.1034 -0.4279  0.2025
 3695TIP3   OH232499   6.795   5.595  16.633 -0.2203 -0.1227 -0.0265
 3695TIP3    H132500   6.751   5.553  16.560  0.0119 -0.6245  0.1205
 3695TIP3    H232501   6.847   5.526  16.674  0.2214  0.3143  0.1747
 3696TIP3   OH232502   1.771   6.011  12.833 -0.0127 -0.0782  0.4329
 3696TIP3    H132503   1.701   6.017  12.768  0.7707 -1.0419 -0.5490
 3696TIP3    H232504   1.728   6.026  12.917 -0.9296  1.9638 -0.3537
 3697TIP3   OH232505   2.566   5.556  14.078 -0.1926 -0.6406  0.0710
 3697TIP3    H132506   2.622   5.632  14.058 -0.6828 -0.0300  0.9763
 3697TIP3    H232507   2.486   5.594  14.114 -2.0113 -1.3758 -2.8557
 3698TIP3   OH232508   1.281   0.704  14.662  0.1318 -0.0192  0.2072
 3698TIP3    H132509   1.218   0.685  14.732  0.8101 -1.5706  0.4302
 3698TIP3    H232510   1.350   0.754  14.705  0.2865 -0.5048  0.5175
 3699TIP3   OH232511   3.735   5.762   5.169 -0.0396  0.4718 -0.3413
 3699TIP3    H132512   3.743   5.705   5.092  0.1176  0.2747 -0.1803
 3699TIP3    H232513   3.642   5.784   5.173 -0.1367  0.0767 -0.3007
 3700TIP3   OH232514   5.536   1.033   3.793  0.0634 -0.8080 -0.4529
 3700TIP3    H132515   5.568   1.104   3.849  0.7073 -0.9719 -0.6079
 3700TIP3    H232516   5.490   0.974   3.852  1.2003 -1.2590  0.0031
 3701TIP3   OH232517   2.659   5.123   4.508  0.5377  0.2034  0.0219
 3701TIP3    H132518   2.626   5.200   4.555 -0.5213  0.7610 -1.5194
 3701TIP3    H232519   2.740   5.153   4.467 -0.2431  0.7981 -1.1804
 3702TIP3   OH232520   1.295   5.883   1.500 -0.5385  0.1063 -0.4159
 3702TIP3    H132521   1.235   5.859   1.429 -1.7771  1.5612  0.0794
 3702TIP3    H232522   1.304   5.803   1.552 -0.6631 -0.6043 -1.4544
 3703TIP3   OH232523   6.010   3.578   2.926  0.0175  0.6496 -0.5221
 3703TIP3    H132524   5.936   3.565   2.867  0.2797 -2.1226 -0.3635
 3703TIP3    H232525   6.052   3.493   2.931  2.6329  1.8915  0.2277
 3704TIP3   OH232526   1.316   4.587  13.180 -0.3463  0.0035  0.0348
 3704TIP3    H132527   1.294   4.615  13.269  0.7404  0.0663  0.2880
 3704TIP3    H232528   1.274   4.652  13.124  1.2697  1.6049  0.5925
 3705TIP3   OH232529   4.999   3.991  17.034  0.0170 -0.3310 -0.3648
 3705TIP3    H132530   4.964   4.075  17.004  2.2476  0.1880 -1.7553
 3705TIP3    H232531   5.073   3.974  16.976  1.9831 -1.3966  2.2677
 3706TIP3   OH232532   2.510   5.605  15.656  0.2318 -0.3203 -0.0195
 3706TIP3    H132533   2.566   5.653  15.595 -1.2551 -0.1855 -1.3424
 3706TIP3    H232534   2.507   5.516  15.620  1.1772 -0.8692  1.1780
 3707TIP3   OH232535   6.297   5.933   1.618  0.3457  1.0392 -0.2887
 3707TIP3    H132536   6.315   6.021   1.652  1.1680 -0.0965  2.5011
 3707TIP3    H232537   6.231   5.897   1.677 -1.3743  0.3456 -2.4786
 3708TIP3   OH232538   3.457   1.366   4.604  0.0467 -0.4756 -0.3318
 3708TIP3    H132539   3.393   1.296   4.590 -1.9936  0.4386  3.1634
 3708TIP3    H232540   3.528   1.324   4.653 -0.4647 -0.4222  0.4634
 3709TIP3   OH232541   6.494   0.273   1.117 -0.0956  0.5906 -0.2910
 3709TIP3    H132542   6.486   0.346   1.178  1.2282 -1.6089  2.7847
 3709TIP3    H232543   6.565   0.299   1.057  1.0325  1.4911  1.3597
 3710TIP3   OH232544   0.254   1.767   2.324  0.2563  0.1905 -0.1917
 3710TIP3    H132545   0.347   1.789   2.323  0.2988  0.3078  2.2422
 3710TIP3    H232546   0.248   1.686   2.273  1.9186 -0.6156  0.8226
 3711TIP3   OH232547   5.102   5.108   0.225  0.4927  0.9122  0.3572
 3711TIP3    H132548   5.009   5.095   0.204  1.0233 -0.9957 -1.0429
 3711TIP3    H232549   5.137   5.155   0.150  0.7570  1.2672  0.6997
 3712TIP3   OH232550   5.444   0.011   4.924  0.1137  0.2165  0.0680
 3712TIP3    H132551   5.462   0.078   4.858 -0.3958 -0.0041 -0.3015
 3712TIP3    H232552   5.517  -0.051   4.915  0.5240  0.6545  0.3336
 3713TIP3   OH232553   1.162   0.021  16.530  0.0936  0.0433  0.2511
 3713TIP3    H132554   1.197  -0.034  16.460  1.7635 -0.4228  1.3738
 3713TIP3    H232555   1.142  -0.040  16.601 -0.9867  0.5681  0.4092
 3714TIP3   OH232556   1.386   4.561  12.496  0.3430 -0.2600  0.2900
 3714TIP3    H132557   1.356   4.494  12.558  0.7278  0.1246  0.9016
 3714TIP3    H232558   1.479   4.571  12.515  0.3851  0.1166 -0.1117
 3715TIP3   OH232559   0.145   4.672   1.172 -0.4744  0.1155  0.2245
 3715TIP3    H132560   0.140   4.766   1.191  0.1809  0.1045  0.4533
 3715TIP3    H232561   0.234   4.659   1.139 -0.8185 -0.2887 -0.5734
 3716TIP3   OH232562   6.761   1.910  15.949 -0.2187  0.2067  0.0794
 3716TIP3    H132563   6.824   1.920  16.020  0.0843  1.1190 -0.3089
 3716TIP3    H232564   6.699   1.982  15.961 -1.0793 -0.5543  0.3289
 3717TIP3   OH232565   3.655   2.830  15.351  0.6124 -0.3431  0.3421
 3717TIP3    H132566   3.630   2.895  15.286 -0.3077 -1.0192 -0.0024
 3717TIP3    H232567   3.589   2.837  15.420  0.4790 -0.9240  0.2821
 3718TIP3   OH232568   1.672   3.902  15.690  0.5997  0.3702 -0.4721
 3718TIP3    H132569   1.608   3.968  15.666 -1.1205 -0.8931  0.3468
 3718TIP3    H232570   1.659   3.831  15.627  0.9398 -0.0277 -0.1080
 3719TIP3   OH232571   4.546   0.944  11.885  0.3218 -0.5557  0.3922
 3719TIP3    H132572   4.478   0.909  11.942 -0.3135  0.1947  0.1226
 3719TIP3    H232573   4.521   0.913  11.797  0.1650 -0.0513  0.2550
 3720TIP3   OH232574   0.940   1.363   4.344  0.3934 -0.6682 -0.1869
 3720TIP3    H132575   0.933   1.326   4.256 -0.3451 -2.7659  0.6786
 3720TIP3    H232576   1.024   1.330   4.377  0.0339 -1.0501  0.3706
 3721TIP3   OH232577   0.522   1.178  14.531 -0.0869 -0.3590  0.4593
 3721TIP3    H132578   0.560   1.201  14.616  1.5615 -2.0204  0.2172
 3721TIP3    H232579   0.437   1.223  14.531  0.3107  0.5327  2.5315
 3722TIP3   OH232580   5.879   1.183  16.589 -0.1570 -0.2336  0.5178
 3722TIP3    H132581   5.856   1.116  16.654 -0.8114 -0.5878 -0.0694
 3722TIP3    H232582   5.958   1.149  16.547 -0.9458 -1.0658 -0.3503
 3723TIP3   OH232583   2.699   5.307  13.374  0.2094  0.0243 -0.0045
 3723TIP3    H132584   2.685   5.398  13.348 -0.5292 -0.5971 -1.9953
 3723TIP3    H232585   2.714   5.310  13.468  1.1247  2.2903 -0.1800
 3724TIP3   OH232586   2.892   5.381   4.646 -0.3712  0.2005  0.1176
 3724TIP3    H132587   2.935   5.465   4.630 -0.1368  0.0268 -0.1583
 3724TIP3    H232588   2.915   5.326   4.571 -2.3507  0.5915 -0.8463
 3725TIP3   OH232589   5.054   6.646  10.590 -0.4714  0.6160  0.0546
 3725TIP3    H132590   4.978   6.589  10.597 -1.1263  1.1202 -2.1496
 3725TIP3    H232591   5.020   6.729  10.556  0.8270  1.4292  0.6258
 3726TIP3   OH232592   0.620   4.964  12.922 -0.5981 -0.5058  0.3000
 3726TIP3    H132593   0.675   4.946  12.846 -0.7488 -0.0859  0.0920
 3726TIP3    H232594   0.559   5.031  12.893 -1.5447 -1.3126  0.3832
 3727TIP3   OH232595   5.003   6.417   2.311  0.0360  0.2875  0.5080
 3727TIP3    H132596   5.020   6.332   2.353 -0.9953  0.1630  0.7099
 3727TIP3    H232597   5.066   6.476   2.350  1.0743 -0.4836  0.0360
 3728TIP3   OH232598   3.124   6.198  10.797 -0.5942  0.2819  0.2688
 3728TIP3    H132599   3.165   6.145  10.729 -1.4997  0.3424 -0.3409
 3728TIP3    H232600   3.196   6.225  10.854  0.1739  0.2208 -0.6571
 3729TIP3   OH232601   2.023   2.748  14.509 -0.1568  0.1718  0.7370
 3729TIP3    H132602   2.073   2.829  14.504 -0.6760  0.5673  1.7258
 3729TIP3    H232603   1.945   2.764  14.456  0.8835 -0.5745 -1.1135
 3730TIP3   OH232604   1.018   5.906   5.411  0.1403  0.0488  0.3513
 3730TIP3    H132605   1.050   5.825   5.370  0.1770  1.0667 -1.7438
 3730TIP3    H232606   1.069   5.913   5.492  0.7248 -1.5788  0.1750
 3731TIP3   OH232607   0.320   0.514  12.939  0.2102 -0.4979  0.3266
 3731TIP3    H132608   0.365   0.446  12.890 -0.2009 -0.7881  0.3473
 3731TIP3    H232609   0.358   0.596  12.907 -0.8024 -0.6110 -1.2875
 3732TIP3   OH232610   4.058   5.237   2.079  0.0353  0.0110  0.1877
 3732TIP3    H132611   4.102   5.303   2.132  0.2133 -0.2911  0.4244
 3732TIP3    H232612   3.988   5.203   2.135 -0.4695  0.4495 -0.1681
 3733TIP3   OH232613   1.418   4.328  15.880 -0.3198 -0.4122 -0.3945
 3733TIP3    H132614   1.385   4.371  15.959  0.5788 -0.2688 -0.0776
 3733TIP3    H232615   1.402   4.391  15.810  0.5405  0.2485 -0.0138
 3734TIP3   OH232616   4.109   0.559  14.592 -0.0210 -0.2647 -0.3480
 3734TIP3    H132617   4.019   0.592  14.597  0.6573  1.6610  0.1588
 3734TIP3    H232618   4.125   0.547  14.498  0.1292  2.4096 -0.7637
 3735TIP3   OH232619   2.889   4.697   0.097  0.1025  0.0896 -0.3248
 3735TIP3    H132620   2.871   4.784   0.062 -1.6592  0.7929  2.0246
 3735TIP3    H232621   2.828   4.639   0.052  1.8894 -0.1971 -2.5530
 3736TIP3   OH232622   3.381   0.098  15.796  0.2251 -0.6843 -0.6347
 3736TIP3    H132623   3.463   0.145  15.780 -1.0864  1.6730 -1.0332
 3736TIP3    H232624   3.335   0.153  15.860 -0.8446 -2.2128 -0.0492
 3737TIP3   OH232625   2.856   6.632   6.328  0.2880 -0.3882 -0.3273
 3737TIP3    H132626   2.774   6.583   6.320  0.7873 -1.4562  0.8672
 3737TIP3    H232627   2.833   6.708   6.381  0.1302 -0.8837  0.3296
 3738TIP3   OH232628   5.957   2.521   1.501 -0.1449 -0.2995  0.1261
 3738TIP3    H132629   5.896   2.569   1.556 -0.5506  0.4012 -0.9261
 3738TIP3    H232630   6.037   2.516   1.553  0.1196  2.0787  0.0249
 3739TIP3   OH232631   4.940   0.088  16.924  0.2992 -0.1696  0.1305
 3739TIP3    H132632   4.934   0.006  16.875 -3.6726 -0.5247  0.7992
 3739TIP3    H232633   4.946   0.060  17.016 -0.0558  0.2535  0.2891
 3740TIP3   OH232634   1.788   3.974  11.143  0.0111 -0.3644  0.0180
 3740TIP3    H132635   1.882   3.987  11.129  0.2665 -0.0312  1.8097
 3740TIP3    H232636   1.772   3.883  11.116  1.5063 -1.4594  2.5504
 3741TIP3   OH232637   2.857   1.451   1.970  0.6385 -0.2819 -0.1138
 3741TIP3    H132638   2.903   1.379   1.926  1.5975 -0.5902  1.3316
 3741TIP3    H232639   2.797   1.485   1.903  2.3966 -0.3755 -1.8385
 3742TIP3   OH232640   6.361   5.354   2.091  0.3036  0.2948 -0.1874
 3742TIP3    H132641   6.399   5.397   2.014 -0.1321 -0.3156 -0.7563
 3742TIP3    H232642   6.308   5.422   2.132  1.5255  1.0008  0.3033
 3743TIP3   OH232643   5.839   2.996  12.909  0.3892  0.0630 -0.2796
 3743TIP3    H132644   5.878   2.921  12.864 -0.0446  0.3291 -1.1168
 3743TIP3    H232645   5.913   3.044  12.945  0.6321 -1.3527  1.2308
 3744TIP3   OH232646   3.169   1.793   3.049  0.2814  0.0062  0.1240
 3744TIP3    H132647   3.135   1.852   3.116 -0.7005  0.6943 -0.9328
 3744TIP3    H232648   3.091   1.763   3.002  0.9826 -0.0257 -1.0597
 3745TIP3   OH232649   2.188   1.263  14.841 -0.0565 -0.4163 -0.2403
 3745TIP3    H132650   2.214   1.346  14.801  1.4565 -0.9992 -0.5121
 3745TIP3    H232651   2.182   1.202  14.768 -0.5866 -0.6957  0.0309
 3746TIP3   OH232652   4.069   1.895   1.481 -0.6194  0.2659  0.1415
 3746TIP3    H132653   4.132   1.865   1.546  1.2044  2.1883 -0.6196
 3746TIP3    H232654   4.066   1.990   1.494 -1.5686  0.4725 -1.4101
 3747TIP3   OH232655   4.574   1.559   1.831  0.7283  0.5305 -0.3488
 3747TIP3    H132656   4.528   1.475   1.838  3.9173 -1.3535 -0.2720
 3747TIP3    H232657   4.584   1.588   1.922 -1.5654  1.8280 -0.4227
 3748TIP3   OH232658   4.002   4.711  16.786 -0.2632  0.3237  0.4096
 3748TIP3    H132659   3.976   4.725  16.877 -0.2566  1.0314  0.3049
 3748TIP3    H232660   4.096   4.697  16.790 -0.3034  0.0928  0.5393
 3749TIP3   OH232661   5.739   1.658   4.253 -0.0683  0.1176  0.6381
 3749TIP3    H132662   5.782   1.714   4.317  0.1071 -0.4217  1.0003
 3749TIP3    H232663   5.667   1.617   4.301 -1.5776  1.6907 -0.1826
 3750TIP3   OH232664   0.293   3.500   5.603 -0.1866  0.0350  0.2689
 3750TIP3    H132665   0.291   3.592   5.576 -1.4350  0.2856  1.1094
 3750TIP3    H232666   0.308   3.504   5.698 -1.0422 -0.5920  0.4399
 3751TIP3   OH232667   0.823   5.443   0.155  0.4163 -0.0875  0.2694
 3751TIP3    H132668   0.792   5.531   0.135  1.4285  0.2768  0.2562
 3751TIP3    H232669   0.903   5.456   0.205  1.1740 -0.9874 -0.6457
 3752TIP3   OH232670   3.750   3.209  12.092 -0.0799 -0.6077 -0.0423
 3752TIP3    H132671   3.787   3.124  12.070  1.5713  0.5263 -1.9708
 3752TIP3    H232672   3.824   3.260  12.125 -0.5862  0.6592 -0.7754
 3753TIP3   OH232673   3.423   4.120   3.774 -1.0913 -0.1936 -0.4271
 3753TIP3    H132674   3.360   4.093   3.841 -0.2225 -0.5199  0.2807
 3753TIP3    H232675   3.391   4.205   3.745 -2.0511 -0.5072 -0.3368
 3754TIP3   OH232676   6.681   1.285  13.058 -0.2522  0.0315  0.1055
 3754TIP3    H132677   6.757   1.337  13.033 -1.0584  0.6489 -1.1263
 3754TIP3    H232678   6.660   1.315  13.147  0.7178  0.0970  0.3265
 3755TIP3   OH232679   0.492   2.386  13.548  0.6104 -0.1054  0.3299
 3755TIP3    H132680   0.541   2.306  13.528  0.4527 -0.4727  1.3148
 3755TIP3    H232681   0.415   2.383  13.492  0.9372 -0.3108 -0.1107
 3756TIP3   OH232682   4.420   4.709  11.130  0.3738  0.8860 -0.1149
 3756TIP3    H132683   4.465   4.776  11.078  3.1754  0.1855  1.2074
 3756TIP3    H232684   4.454   4.626  11.097  1.8546  0.3968  2.3635
 3757TIP3   OH232685   5.692   3.334  16.641 -0.2265 -0.5840  0.1787
 3757TIP3    H132686   5.611   3.302  16.680 -0.5963 -0.6020 -0.5873
 3757TIP3    H232687   5.685   3.310  16.549  0.5232 -0.3279  0.0484
 3758TIP3   OH232688   3.369   1.314   5.640  0.8585  0.8203 -0.3816
 3758TIP3    H132689   3.348   1.401   5.606 -0.6773  0.8814  0.6258
 3758TIP3    H232690   3.317   1.306   5.720  2.5501 -0.2290  0.6832
 3759TIP3   OH232691   5.799   6.570  17.021  0.1929  0.2694 -0.4515
 3759TIP3    H132692   5.839   6.648  16.981 -1.5541  2.4124  1.6863
 3759TIP3    H232693   5.778   6.513  16.946  0.0511  2.5655 -2.2777
 3760TIP3   OH232694   0.106   0.678   4.419 -0.0347  0.4981 -0.8810
 3760TIP3    H132695   0.113   0.583   4.433  0.1763  0.5196 -0.8326
 3760TIP3    H232696   0.181   0.714   4.467 -0.9356  0.8097  0.3470
 3761TIP3   OH232697   4.780   2.796  16.540 -0.6308 -0.3943 -0.3008
 3761TIP3    H132698   4.787   2.856  16.614 -0.9232 -0.0803 -0.5242
 3761TIP3    H232699   4.849   2.731  16.555 -0.8198 -0.4519  0.3554
 3762TIP3   OH232700   5.290   5.547  12.417  0.2638 -0.1708 -0.0844
 3762TIP3    H132701   5.380   5.515  12.429 -0.4717 -2.7130 -0.6869
 3762TIP3    H232702   5.269   5.525  12.326 -0.8628  0.7262 -0.0621
 3763TIP3   OH232703   5.830   0.827   3.771  0.6257  0.0913  0.1316
 3763TIP3    H132704   5.893   0.856   3.837  1.9291 -0.3300 -0.8878
 3763TIP3    H232705   5.808   0.737   3.797  0.8467  0.0571  0.2017
 3764TIP3   OH232706   0.166   4.658   3.094 -0.5665  0.0220 -0.3915
 3764TIP3    H132707   0.111   4.650   3.172  0.0618 -0.8266 -0.0214
 3764TIP3    H232708   0.230   4.588   3.102 -1.7937 -1.5424 -2.7360
 3765TIP3   OH232709   5.509   3.933   4.960  0.4658  0.0482 -0.2938
 3765TIP3    H132710   5.468   3.992   5.024  2.0188  1.5710 -0.6219
 3765TIP3    H232711   5.449   3.931   4.886 -1.5979 -2.1071  1.3032
 3766TIP3   OH232712   3.948   2.257  15.074  0.0301  0.0414  0.1802
 3766TIP3    H132713   3.920   2.280  14.985 -2.7254  1.4477  1.2578
 3766TIP3    H232714   3.873   2.210  15.111  2.1862 -3.0472  0.9590
 3767TIP3   OH232715   1.857   4.818  15.272 -0.1136  0.0694  0.8749
 3767TIP3    H132716   1.820   4.798  15.186 -2.0105 -0.1906  1.6882
 3767TIP3    H232717   1.939   4.864  15.253 -0.6013  0.2306 -1.0596
 3768TIP3   OH232718   6.285   2.061   2.584  0.0018 -0.4315  0.6801
 3768TIP3    H132719   6.350   2.032   2.649  0.9192  0.0941  0.0215
 3768TIP3    H232720   6.335   2.071   2.503 -1.0171 -0.5158  0.0266
 3769TIP3   OH232721   3.881   3.595   0.488  0.7536 -0.3107 -0.3154
 3769TIP3    H132722   3.842   3.680   0.470 -0.2282 -1.0064 -1.5671
 3769TIP3    H232723   3.930   3.608   0.570 -0.1883  1.1768  0.0400
 3770TIP3   OH232724   4.319   4.337   3.613 -0.0674  0.0190 -0.1422
 3770TIP3    H132725   4.311   4.244   3.636  0.1614  0.0672  0.1490
 3770TIP3    H232726   4.285   4.383   3.690 -1.2805  0.1660 -0.7569
 3771TIP3   OH232727   5.131   3.397  16.029 -0.5367 -0.0127  0.0514
 3771TIP3    H132728   5.200   3.334  16.008  0.1250  0.6952  0.0461
 3771TIP3    H232729   5.138   3.464  15.961 -1.1768  0.1085  0.1027
 3772TIP3   OH232730   2.654   3.072   0.108  0.7153  0.3316  0.5446
 3772TIP3    H132731   2.739   3.061   0.065  0.5860 -1.2824  0.6392
 3772TIP3    H232732   2.675   3.086   0.200  0.8771 -1.1408  0.7524
 3773TIP3   OH232733   0.744   4.743  16.658  0.0578  0.0913 -0.0690
 3773TIP3    H132734   0.659   4.785  16.673  0.7644  1.3881  0.4084
 3773TIP3    H232735   0.763   4.759  16.565 -0.4675 -0.6968 -0.3217
 3774TIP3   OH232736   4.121   0.174   2.943  0.3267 -0.3098  0.1150
 3774TIP3    H132737   4.036   0.214   2.964  0.0020 -0.8133 -0.2089
 3774TIP3    H232738   4.185   0.228   2.990 -0.0660  0.8097 -0.5988
 3775TIP3   OH232739   0.741   3.421   0.619  0.0393 -0.2019 -0.4133
 3775TIP3    H132740   0.736   3.330   0.648 -0.4595  0.6673  2.5069
 3775TIP3    H232741   0.819   3.456   0.661  0.1383  0.7874 -1.3697
 3776TIP3   OH232742   4.242   3.384   0.006 -0.0799 -0.8069  0.2341
 3776TIP3    H132743   4.210   3.301   0.042  0.2578 -1.2500 -0.4675
 3776TIP3    H232744   4.297   3.421   0.075 -0.9794 -0.7054  0.9130
 3777TIP3   OH232745   3.481   6.213   1.075  0.2867  0.2577 -0.4282
 3777TIP3    H132746   3.549   6.278   1.095  2.3379 -2.3150  1.8069
 3777TIP3    H232747   3.518   6.162   1.003 -1.3304  1.4817 -2.2047
 3778TIP3   OH232748   0.612   4.370   0.204 -0.6210  0.0493  0.3063
 3778TIP3    H132749   0.635   4.318   0.126 -1.5028  1.7532 -1.1498
 3778TIP3    H232750   0.549   4.315   0.251  0.2652 -1.2005  0.1075
 3779TIP3   OH232751   2.181   6.015  14.557  0.4683  0.5380 -0.5717
 3779TIP3    H132752   2.227   6.055  14.483  0.8421  2.5386  0.6871
 3779TIP3    H232753   2.132   5.943  14.517  0.9066  1.3307 -2.7091
 3780TIP3   OH232754   5.855   3.046  11.514 -0.3431 -0.3627 -0.3925
 3780TIP3    H132755   5.840   3.077  11.425  1.2420 -0.6478 -0.7855
 3780TIP3    H232756   5.949   3.026  11.518 -0.0827  0.8936  1.7292
 3781TIP3   OH232757   2.352   4.734  16.568  0.1566  0.6935 -0.3302
 3781TIP3    H132758   2.445   4.737  16.592  0.1053  0.3624 -0.0871
 3781TIP3    H232759   2.343   4.801  16.500  0.6825  0.3865 -0.7126
 3782TIP3   OH232760   4.666   2.507   5.706  0.1585 -0.2263  0.1771
 3782TIP3    H132761   4.611   2.537   5.779 -0.6820  1.8610 -1.2225
 3782TIP3    H232762   4.732   2.576   5.697  1.1109 -1.1689 -0.1695
 3783TIP3   OH232763   4.576   5.967  11.560  0.0290 -0.3412 -0.1370
 3783TIP3    H132764   4.649   6.011  11.516 -1.0699  0.1714 -1.5647
 3783TIP3    H232765   4.563   6.017  11.640 -0.9383  1.8272 -1.5376
 3784TIP3   OH232766   6.154   1.930   3.963  0.1832 -0.0754  0.2901
 3784TIP3    H132767   6.082   1.949   4.024 -0.5219 -1.0764 -0.2092
 3784TIP3    H232768   6.232   1.964   4.008 -0.5916  1.1387  0.7881
 3785TIP3   OH232769   0.349   5.550   4.706  0.2959 -0.0125  0.2188
 3785TIP3    H132770   0.351   5.479   4.770 -0.2315  0.5805  0.9248
 3785TIP3    H232771   0.282   5.524   4.643  1.1131 -0.7992 -0.3448
 3786TIP3   OH232772   5.477   6.737  15.274  0.2159  1.0694 -0.2027
 3786TIP3    H132773   5.397   6.768  15.316  0.3417 -1.0566  1.8472
 3786TIP3    H232774   5.447   6.686  15.199 -0.4229  0.0215  0.7338
 3787TIP3   OH232775   1.135   6.756   6.477  0.1266 -0.3138  0.5052
 3787TIP3    H132776   1.047   6.789   6.491 -0.4852 -1.2223 -0.9364
 3787TIP3    H232777   1.171   6.744   6.565 -1.0984  0.2752  1.1078
 3788TIP3   OH232778   3.445   1.030   3.787  0.0128  0.8110 -0.0676
 3788TIP3    H132779   3.538   1.052   3.778 -0.0029  1.1069  0.4385
 3788TIP3    H232780   3.402   1.083   3.720  0.2503  0.3693 -0.5706
 3789TIP3   OH232781   4.651   6.574  13.530  0.2814 -0.5295 -0.0756
 3789TIP3    H132782   4.705   6.653  13.525  1.2397 -1.0291  1.5752
 3789TIP3    H232783   4.655   6.536  13.442 -1.3024  1.9158 -1.2908
 3790TIP3   OH232784   4.591   3.714   5.366  0.1208  0.4848 -0.4135
 3790TIP3    H132785   4.619   3.728   5.275  0.9682 -0.4562 -0.3050
 3790TIP3    H232786   4.497   3.697   5.360 -0.1088  1.7943 -0.9644
 3791TIP3   OH232787   2.326   2.760   6.326 -0.4608 -0.3502 -0.0060
 3791TIP3    H132788   2.318   2.730   6.417  1.6085 -0.0388  0.3365
 3791TIP3    H232789   2.420   2.771   6.314 -0.8590  1.9780 -1.4347
 3792TIP3   OH232790   0.043   6.544   5.880  0.0889 -0.7685  0.3639
 3792TIP3    H132791   0.038   6.609   5.949 -2.3824 -0.4368 -0.0396
 3792TIP3    H232792   0.118   6.489   5.904 -0.0424 -0.0326  2.6834
 3793TIP3   OH232793   0.316   1.257   5.306  0.3072 -0.2115 -0.1072
 3793TIP3    H132794   0.237   1.310   5.309 -1.4932 -2.7089  0.1058
 3793TIP3    H232795   0.329   1.238   5.213 -0.2355 -0.9892 -0.0338
 3794TIP3   OH232796   1.714   0.132  11.964 -0.2347 -0.0921  0.3657
 3794TIP3    H132797   1.720   0.174  12.050  1.0420  1.5744 -0.4828
 3794TIP3    H232798   1.620   0.135  11.943 -0.6423 -0.9901  1.8803
 3795TIP3   OH232799   0.583   6.383   3.454  0.2172 -0.0289  0.2850
 3795TIP3    H132800   0.498   6.423   3.438  0.0657 -0.1312  0.8066
 3795TIP3    H232801   0.644   6.433   3.400 -0.0755  0.4621  0.4019
 3796TIP3   OH232802   2.026   5.954   5.322  0.5022  0.3118 -0.4471
 3796TIP3    H132803   1.939   5.964   5.361 -0.3495  1.8893 -2.5336
 3796TIP3    H232804   2.070   6.037   5.338  0.2102  0.9209 -2.4907
 3797TIP3   OH232805   2.768   3.361  16.476  0.5606 -0.7664  0.2835
 3797TIP3    H132806   2.713   3.293  16.516  0.5536 -1.2014 -0.4588
 3797TIP3    H232807   2.857   3.328  16.484  0.7673  0.0569  1.7192
 3798TIP3   OH232808   4.969   5.192   1.342 -0.3360 -0.0295  0.8260
 3798TIP3    H132809   4.962   5.108   1.298  0.2047  0.7957 -0.9625
 3798TIP3    H232810   4.897   5.244   1.308 -0.9029  0.1381  2.2056
 3799TIP3   OH232811   1.440   3.445   5.189 -0.0195  0.0768  0.4376
 3799TIP3    H132812   1.423   3.382   5.259  1.0445 -1.2072 -0.4113
 3799TIP3    H232813   1.378   3.516   5.205 -1.8699 -1.5633  0.9466
 3800TIP3   OH232814   3.209   4.209  14.975 -0.7513  0.3607 -0.0962
 3800TIP3    H132815   3.191   4.195  15.068 -0.6612 -1.6318 -0.3435
 3800TIP3    H232816   3.139   4.163  14.930 -1.3366  2.0925 -1.0690
 3801TIP3   OH232817   0.782   4.454   5.266 -0.0765 -0.0259  0.2955
 3801TIP3    H132818   0.839   4.395   5.216  0.6650  1.0079 -0.1073
 3801TIP3    H232819   0.787   4.421   5.356 -0.0578 -0.8671 -0.0045
 3802TIP3   OH232820   6.704   2.584   3.804 -0.0719  0.4902  0.3447
 3802TIP3    H132821   6.642   2.535   3.752  1.7195 -0.9855 -0.5236
 3802TIP3    H232822   6.664   2.670   3.816 -2.0459 -0.2682 -0.5044
 3803TIP3   OH232823   3.092   2.119  15.093 -0.0239 -0.0218 -0.2440
 3803TIP3    H132824   3.061   2.154  15.010 -2.6344  0.9982  1.0472
 3803TIP3    H232825   3.039   2.163  15.159  1.4842 -1.2874  1.9468
 3804TIP3   OH232826   2.990   2.963  14.024 -0.0993  0.6517  0.0874
 3804TIP3    H132827   2.917   3.024  14.033  0.6553  1.3785  1.5705
 3804TIP3    H232828   2.985   2.933  13.934 -2.7989 -0.0524  0.3857
 3805TIP3   OH232829   4.367   0.152  13.244  0.3869 -0.1870 -0.6214
 3805TIP3    H132830   4.383   0.059  13.260  0.6231 -0.3932 -1.9382
 3805TIP3    H232831   4.435   0.177  13.181  0.7311  1.0511  0.1945
 3806TIP3   OH232832   5.060   6.451   6.427  0.2882  0.3960 -0.2733
 3806TIP3    H132833   5.144   6.483   6.458 -0.2229  0.9675  0.5640
 3806TIP3    H232834   5.073   6.357   6.416  1.0873  0.5088 -0.3331
 3807TIP3   OH232835   2.617   0.389  13.036 -0.7275 -0.2612 -0.3975
 3807TIP3    H132836   2.565   0.310  13.024 -0.6401 -0.4498  0.4201
 3807TIP3    H232837   2.579   0.452  12.974 -1.1985 -0.7438 -0.6076
 3808TIP3   OH232838   0.496   0.637  15.560 -0.0054 -0.8530  0.0245
 3808TIP3    H132839   0.588   0.623  15.539  0.4538  1.1114  0.5211
 3808TIP3    H232840   0.495   0.656  15.654 -0.6393  1.0804 -0.3379
 3809TIP3   OH232841   1.320   2.375  17.171 -0.0649 -0.3853  0.3942
 3809TIP3    H132842   1.227   2.389  17.153 -0.1731 -0.7680  0.6301
 3809TIP3    H232843   1.363   2.456  17.144 -0.8044  0.8982  2.7528
 3810TIP3   OH232844   4.076   1.187  13.225  0.1225 -0.7917 -0.1472
 3810TIP3    H132845   4.019   1.250  13.180  1.6016  0.0547 -0.9021
 3810TIP3    H232846   4.031   1.103  13.214 -0.4339 -0.3275 -1.7122
 3811TIP3   OH232847   6.472   0.748   5.547 -0.1959  0.4480  0.1156
 3811TIP3    H132848   6.426   0.681   5.497 -0.7094 -0.1924  1.4123
 3811TIP3    H232849   6.552   0.765   5.497 -0.2593 -0.8177 -0.4385
 3812TIP3   OH232850   0.768   1.873  17.231  0.3073 -0.1299 -0.7406
 3812TIP3    H132851   0.699   1.929  17.195 -1.8860 -0.8073  1.9983
 3812TIP3    H232852   0.742   1.784  17.206  0.2198 -0.3710  0.1527
 3813TIP3   OH232853   5.235   3.855   3.472  0.4789  0.4820  0.4399
 3813TIP3    H132854   5.202   3.783   3.418  1.9155 -1.0413  1.4923
 3813TIP3    H232855   5.175   3.928   3.454 -0.5275 -0.6987 -1.3076
 3814TIP3   OH232856   1.178   5.882   3.178 -0.1832 -0.4659 -0.2345
 3814TIP3    H132857   1.244   5.923   3.234 -0.0876 -1.4563  0.4023
 3814TIP3    H232858   1.213   5.891   3.089  1.3178 -1.8212  0.1737
 3815TIP3   OH232859   5.945   4.536  11.361  0.5447 -0.0445  0.1487
 3815TIP3    H132860   5.853   4.556  11.344  0.8495  1.6330  0.2439
 3815TIP3    H232861   5.947   4.442  11.380 -0.8440 -0.5368 -1.8658
 3816TIP3   OH232862   3.264   0.460   2.888  0.6060 -0.1000  0.0431
 3816TIP3    H132863   3.354   0.428   2.899  0.1671 -1.5506 -0.3941
 3816TIP3    H232864   3.263   0.499   2.800  0.7875 -0.1129  0.0341
 3817TIP3   OH232865   0.895   5.335   4.431  0.4689 -0.0360  0.0248
 3817TIP3    H132866   0.947   5.411   4.404 -1.2641  1.0177 -0.5118
 3817TIP3    H232867   0.960   5.268   4.453  2.0379  1.3152 -0.2905
 3818TIP3   OH232868   3.407   0.947   3.029 -0.0949  0.5004 -0.0078
 3818TIP3    H132869   3.312   0.937   3.025  0.0198 -0.4950 -0.8552
 3818TIP3    H232870   3.429   1.003   2.954  0.0646 -0.2042 -0.5102
 3819TIP3   OH232871   4.912   6.326   0.123  0.0064 -0.7215  0.8738
 3819TIP3    H132872   4.868   6.306   0.040  0.7248  0.8164  0.0888
 3819TIP3    H232873   4.840   6.341   0.185 -0.5769  0.2146 -0.0057
 3820TIP3   OH232874   3.878   4.994   1.498  0.0154 -0.2965 -0.2262
 3820TIP3    H132875   3.885   5.064   1.434  1.6470 -0.8412 -0.6934
 3820TIP3    H232876   3.813   5.025   1.561  1.2633  1.9976  0.0174
 3821TIP3   OH232877   4.145   2.853   1.359 -0.7221 -0.1425  0.5198
 3821TIP3    H132878   4.217   2.816   1.308 -1.1767  2.3134 -2.1580
 3821TIP3    H232879   4.077   2.785   1.355  0.6456 -1.6444  1.3380
 3822TIP3   OH232880   2.134   1.737  13.382  0.2824 -0.3983 -0.2148
 3822TIP3    H132881   2.123   1.649  13.346 -2.6067 -0.4740  0.5929
 3822TIP3    H232882   2.142   1.794  13.305 -2.1623 -0.9571 -0.9799
 3823TIP3   OH232883   6.705   6.571  16.109  0.2600 -0.0004  0.3450
 3823TIP3    H132884   6.769   6.589  16.178  4.6785 -1.3697 -2.9771
 3823TIP3    H232885   6.684   6.658  16.073  3.0564  0.3586 -0.6431
 3824TIP3   OH232886   4.461   2.849  13.370  0.7565  0.1365 -0.5799
 3824TIP3    H132887   4.386   2.890  13.327  1.4978  2.3192  0.1092
 3824TIP3    H232888   4.455   2.876  13.461  1.1327 -1.5840 -0.0036
 3825TIP3   OH232889   3.788   6.300  14.220  0.1507 -0.2281  0.0372
 3825TIP3    H132890   3.848   6.254  14.279 -0.3836 -1.7328 -0.5346
 3825TIP3    H232891   3.845   6.341  14.155  0.6025 -2.3854 -1.0279
 3826TIP3   OH232892   5.955   4.057   1.665  0.4191  0.2267  0.0892
 3826TIP3    H132893   5.982   4.024   1.579 -0.9465  0.4478 -0.4503
 3826TIP3    H232894   5.960   3.980   1.722  0.4828 -0.1349 -0.3934
 3827TIP3   OH232895   2.535   4.933   3.654  0.0793 -0.4206 -0.0770
 3827TIP3    H132896   2.476   4.975   3.592 -0.8375 -1.5745 -0.0329
 3827TIP3    H232897   2.587   4.873   3.601 -0.4401 -1.1264  0.1857
 3828TIP3   OH232898   2.655   2.782   3.531  0.6412  0.1415 -0.2992
 3828TIP3    H132899   2.617   2.825   3.608  0.4667  1.1562 -0.9375
 3828TIP3    H232900   2.700   2.704   3.566  1.6607  1.2636  0.9989
 3829TIP3   OH232901   0.895   4.194  12.528  0.6305  0.2099 -0.5340
 3829TIP3    H132902   0.831   4.228  12.591 -0.3030  1.9002 -2.2718
 3829TIP3    H232903   0.941   4.125  12.575 -0.1824  1.2105  1.8971
 3830TIP3   OH232904   3.757   5.614  15.668 -0.3140 -0.3509 -0.2869
 3830TIP3    H132905   3.679   5.581  15.713 -1.4170 -0.5176 -2.2220
 3830TIP3    H232906   3.729   5.698  15.630  1.0805  0.5996  0.6634
 3831TIP3   OH232907   3.206   6.721  16.753  0.0411 -0.2186 -0.1954
 3831TIP3    H132908   3.189   6.714  16.659 -1.5815  0.2357  0.0291
 3831TIP3    H232909   3.204   6.815  16.771 -0.0897 -0.3235  0.3587
 3832TIP3   OH232910   4.018   5.644   2.287 -0.3090  0.7432  0.0598
 3832TIP3    H132911   4.041   5.701   2.360 -1.0013 -0.2698  1.1061
 3832TIP3    H232912   3.923   5.636   2.292 -0.1484 -1.3977  0.6935
 3833TIP3   OH232913   3.535   4.840  15.737  0.1299 -0.5199 -0.0891
 3833TIP3    H132914   3.623   4.851  15.700  0.8436  1.6020  1.9935
 3833TIP3    H232915   3.491   4.923  15.717 -0.1151 -0.1052  2.0094
 3834TIP3   OH232916   3.577   6.595  11.814  0.2976  0.0278  0.2273
 3834TIP3    H132917   3.517   6.554  11.877  1.3928 -1.4846  0.3317
 3834TIP3    H232918   3.548   6.561  11.729  1.7692 -1.8285  0.3900
 3835TIP3   OH232919   0.349   2.583   3.274 -0.5570 -0.2814 -0.2708
 3835TIP3    H132920   0.411   2.656   3.264 -2.8436  1.6282 -1.7215
 3835TIP3    H232921   0.405   2.507   3.291  2.4104  0.8366 -3.6035
 3836TIP3   OH232922   3.113   2.740   5.917  0.1549  0.0038 -0.0178
 3836TIP3    H132923   3.141   2.802   5.985  0.0640  0.0626 -0.0336
 3836TIP3    H232924   3.167   2.663   5.932 -1.7605 -1.0582  1.9119
 3837TIP3   OH232925   6.795   2.985   6.285  0.0607  0.6605  0.0773
 3837TIP3    H132926   6.730   2.928   6.244  0.5852 -1.4868  2.0364
 3837TIP3    H232927   6.744   3.041   6.344 -0.2464  0.7203 -0.2425
 3838TIP3   OH232928   4.010   3.584  13.103  0.8097 -0.1235  0.6376
 3838TIP3    H132929   4.023   3.669  13.147 -0.3495 -0.2201  1.1814
 3838TIP3    H232930   4.022   3.519  13.172  0.4709 -0.3536  0.4798
 3839TIP3   OH232931   3.251   5.223   2.474  0.1289  0.5078  0.2897
 3839TIP3    H132932   3.206   5.171   2.408 -1.8403 -0.7234  2.4901
 3839TIP3    H232933   3.188   5.234   2.545  2.1761  1.6673  2.0767
 3840TIP3   OH232934   4.117   2.539   0.073  0.5247  0.3934  0.4739
 3840TIP3    H132935   4.126   2.522  -0.020 -1.9768 -0.5390  0.3386
 3840TIP3    H232936   4.127   2.453   0.114  0.9624  0.6990  1.0249
 3841TIP3   OH232937   6.242   2.262  13.168  0.3555  0.2824  0.1413
 3841TIP3    H132938   6.272   2.200  13.234  0.9673  0.4403  0.0146
 3841TIP3    H232939   6.232   2.210  13.089  0.4106  0.2502  0.1556
 3842TIP3   OH232940   6.436   3.940  12.550  0.1400  0.0232 -0.0807
 3842TIP3    H132941   6.528   3.920  12.533  0.0790 -0.0781 -0.3035
 3842TIP3    H232942   6.389   3.861  12.522 -0.0601  0.2918 -0.5085
 3843TIP3   OH232943   3.728   6.226   5.045  0.2135  0.1542  0.0669
 3843TIP3    H132944   3.822   6.234   5.026 -0.0382 -0.4994 -1.6178
 3843TIP3    H232945   3.711   6.293   5.111  1.4760  1.6470 -1.0547
 3844TIP3   OH232946   0.786   5.526  15.188  0.2191 -0.2143  0.1889
 3844TIP3    H132947   0.723   5.511  15.259  0.3114 -1.1962  0.0791
 3844TIP3    H232948   0.868   5.489  15.220  0.0461 -1.5052 -0.7612
 3845TIP3   OH232949   6.712   0.658   2.149 -0.7555  0.1102 -0.5232
 3845TIP3    H132950   6.642   0.655   2.214 -0.3149 -0.5854 -0.0765
 3845TIP3    H232951   6.792   0.666   2.200 -0.3562 -1.0773 -0.9348
 3846TIP3   OH232952   1.479   5.198  17.098 -0.4141 -0.0348  0.0271
 3846TIP3    H132953   1.399   5.209  17.047  0.3436 -0.6707 -1.3560
 3846TIP3    H232954   1.451   5.156  17.179 -1.5656  0.4355 -0.1068
 3847TIP3   OH232955   4.473   4.112  16.400 -0.2539 -0.3563  0.4739
 3847TIP3    H132956   4.407   4.150  16.342 -0.7661  2.1072  2.4768
 3847TIP3    H232957   4.557   4.137  16.361 -0.4469 -1.9312 -1.0981
 3848TIP3   OH232958   0.152   4.834   5.296  0.5411  0.0650 -0.1833
 3848TIP3    H132959   0.185   4.922   5.310  0.4939  0.0814 -0.1767
 3848TIP3    H232960   0.185   4.809   5.210  1.4658 -0.3216  0.2701
 3849TIP3   OH232961   1.366   6.597  12.956 -0.2230 -0.2008  0.5019
 3849TIP3    H132962   1.444   6.631  13.000  0.4238  0.8240 -1.3184
 3849TIP3    H232963   1.294   6.616  13.016  0.3526  2.8552  0.3855
 3850TIP3   OH232964   0.373   5.943   1.404  0.1026  0.5613  0.0114
 3850TIP3    H132965   0.447   5.920   1.461  1.4981  1.7767 -1.2061
 3850TIP3    H232966   0.409   6.008   1.344 -1.8124  0.7008 -1.0614
 3851TIP3   OH232967   4.245   2.995  13.139 -0.8822  0.3176  0.1677
 3851TIP3    H132968   4.313   3.059  13.118 -0.9686  0.0591 -0.9628
 3851TIP3    H232969   4.167   3.047  13.158 -0.7130  0.5788  0.1376
 3852TIP3   OH232970   2.934   5.119  13.603  0.2135  0.2207  0.3667
 3852TIP3    H132971   2.890   5.204  13.605  0.1502  0.2022 -0.1626
 3852TIP3    H232972   2.863   5.055  13.613  0.3181  0.2346  1.3484
 3853TIP3   OH232973   2.939   0.775   0.929  0.3003  0.2947  0.4439
 3853TIP3    H132974   2.996   0.708   0.968  2.3514  2.3308  1.1637
 3853TIP3    H232975   2.858   0.770   0.978  0.9680 -0.6645  1.4960
 3854TIP3   OH232976   3.970   2.513   2.254  0.2301  0.4055  0.2826
 3854TIP3    H132977   3.994   2.605   2.264  1.3923 -0.1371  3.9512
 3854TIP3    H232978   3.927   2.490   2.337  0.3504 -2.4414 -0.3466
 3855TIP3   OH232979   2.060   0.213  15.595 -0.5736  0.0577 -0.0325
 3855TIP3    H132980   2.079   0.169  15.511 -1.4787  1.1449 -0.8436
 3855TIP3    H232981   1.964   0.219  15.596 -0.5152  0.9028  0.6478
 3856TIP3   OH232982   5.081   0.597   0.133 -0.4336 -0.0043 -0.3711
 3856TIP3    H132983   5.020   0.636   0.070 -1.2711 -1.0508 -0.2341
 3856TIP3    H232984   5.159   0.577   0.081 -1.0123 -0.5999 -1.0345
 3857TIP3   OH232985   3.314   4.387  17.018 -0.0165  0.4872  0.1634
 3857TIP3    H132986   3.356   4.437  17.088 -0.8317  0.4679  0.6817
 3857TIP3    H232987   3.385   4.363  16.959  0.5354  1.3994  0.4359
 3858TIP3   OH232988   3.068   4.598   5.462  0.4680 -0.3005  0.0406
 3858TIP3    H132989   2.997   4.553   5.507  0.3290 -0.1440 -0.0195
 3858TIP3    H232990   3.146   4.574   5.511  0.6626 -2.0941 -1.0645
 3859TIP3   OH232991   0.452   1.269   3.247  0.4798  0.4866  0.4236
 3859TIP3    H132992   0.445   1.356   3.207 -0.6470 -0.0306 -0.5527
 3859TIP3    H232993   0.486   1.213   3.177  1.4787  0.1768  1.1315
 3860TIP3   OH232994   1.354   1.033   1.503  0.3592 -0.9044  0.0747
 3860TIP3    H132995   1.260   1.029   1.520  0.3184 -1.0153 -0.1678
 3860TIP3    H232996   1.364   0.999   1.414  0.6088 -0.7196  0.0300
 3861TIP3   OH232997   0.014   3.966   5.463  0.1837  0.5045  0.4756
 3861TIP3    H132998  -0.073   3.998   5.437  0.0243  0.1799  0.6049
 3861TIP3    H232999   0.035   4.015   5.543 -0.0042  0.3776  0.6027
 3862TIP3   OH233000   1.641   0.189   3.146  0.0778 -1.0700 -0.2098
 3862TIP3    H133001   1.556   0.156   3.177  0.1776 -0.7031  0.4867
 3862TIP3    H233002   1.628   0.205   3.053 -0.2189 -2.2825 -0.3981
 3863TIP3   OH233003   6.764   2.195  12.080 -0.4415 -0.5180  0.6073
 3863TIP3    H133004   6.698   2.221  12.016  0.4225  0.2483 -0.0003
 3863TIP3    H233005   6.805   2.277  12.107 -0.0453 -0.9387  1.3201
 3864TIP3   OH233006   5.824   3.586  14.289 -0.3433 -0.2398  0.2561
 3864TIP3    H133007   5.891   3.548  14.233 -1.0405 -0.3614 -0.5218
 3864TIP3    H233008   5.865   3.663  14.328  0.5329 -0.8326  0.5228
 3865TIP3   OH233009   2.374   5.113   3.526 -0.2560 -0.4191  0.4488
 3865TIP3    H133010   2.404   5.199   3.556 -2.6517  0.3969  0.7830
 3865TIP3    H233011   2.363   5.122   3.432  1.8977 -1.2103  0.0753
 3866TIP3   OH233012   3.395   0.835   0.762 -0.2471  0.4336  0.3356
 3866TIP3    H133013   3.371   0.900   0.696  0.9787  1.3072  0.7186
 3866TIP3    H233014   3.371   0.876   0.846  1.9736  1.1338  0.7006
 3867TIP3   OH233015   0.373   6.786   3.725  0.3347  1.2142  0.0951
 3867TIP3    H133016   0.456   6.805   3.769  0.5853  0.0960  0.1357
 3867TIP3    H233017   0.394   6.717   3.662 -0.7918  0.0272  0.9710
 3868TIP3   OH233018   3.053   5.436  12.834  0.2560  0.1674  0.2354
 3868TIP3    H133019   3.091   5.524  12.838  1.3709 -0.3465  2.0628
 3868TIP3    H233020   3.126   5.379  12.814 -0.4692 -0.3686 -0.9502
 3869TIP3   OH233021   1.184   3.944  11.696 -0.1736  0.0090  0.0427
 3869TIP3    H133022   1.168   3.870  11.637 -0.8111  0.8351 -0.8537
 3869TIP3    H233023   1.139   4.018  11.655 -0.5055  0.6527  1.5068
 3870TIP3   OH233024   6.667   6.623   6.602  0.1834 -0.3402 -0.1004
 3870TIP3    H133025   6.651   6.545   6.549 -0.1777 -0.8232  0.6989
 3870TIP3    H233026   6.600   6.686   6.574  0.0437 -0.5655 -0.2678
 3871TIP3   OH233027   3.898   5.575   2.975 -0.2944 -0.2300  0.4175
 3871TIP3    H133028   3.926   5.663   2.951 -1.7575  0.3255  0.6361
 3871TIP3    H233029   3.979   5.526   2.986  0.5350  0.9902 -0.0682
 3872TIP3   OH233030   5.850   1.369  15.060 -0.4751  0.1089  0.0864
 3872TIP3    H133031   5.937   1.342  15.032 -1.2849 -1.2359 -1.2957
 3872TIP3    H233032   5.844   1.461  15.036  0.9666  0.5470  1.2889
 3873TIP3   OH233033   1.870   3.236  13.708 -0.3681 -0.5603 -0.5509
 3873TIP3    H133034   1.925   3.169  13.668 -2.8125 -1.7540 -2.1590
 3873TIP3    H233035   1.803   3.255  13.642 -0.4703  2.6853  0.2931
 3874TIP3   OH233036   4.773   6.426  11.353  0.2370 -0.3537  0.2184
 3874TIP3    H133037   4.722   6.450  11.276 -3.9109  1.9794  3.2737
 3874TIP3    H233038   4.787   6.508  11.400 -0.7720 -1.9475  3.6752
 3875TIP3   OH233039   0.728   2.823  16.190 -0.1926 -0.2682  0.6117
 3875TIP3    H133040   0.744   2.794  16.100  0.7810  0.2857  0.5991
 3875TIP3    H233041   0.633   2.837  16.194 -0.2401 -0.2942 -0.3264
 3876TIP3   OH233042   0.204   1.895   0.448  0.4895  0.4346 -0.5765
 3876TIP3    H133043   0.177   1.807   0.472 -0.0389  1.1050  1.5805
 3876TIP3    H233044   0.122   1.942   0.432  0.7659  0.5585 -1.7332
 3877TIP3   OH233045   2.649   1.012   3.896  0.5852  0.5511 -0.4866
 3877TIP3    H133046   2.559   0.987   3.874 -0.3335  2.3426  0.9338
 3877TIP3    H233047   2.659   1.100   3.859  2.4700 -0.3743 -2.3137
 3878TIP3   OH233048   4.196   2.231  12.376  0.7750 -0.3127 -0.5715
 3878TIP3    H133049   4.193   2.317  12.333  0.8025  1.7070  3.0654
 3878TIP3    H233050   4.105   2.211  12.396  0.8211 -0.8828 -0.9248
 3879TIP3   OH233051   3.130   3.940  12.318  0.7367 -0.2671  0.1107
 3879TIP3    H133052   3.133   3.860  12.371 -1.0394 -2.0519 -2.2088
 3879TIP3    H233053   3.037   3.957  12.305  1.0820  0.5209 -1.6765
 3880TIP3   OH233054   6.261   5.537   3.056 -0.0213  0.0247 -0.1189
 3880TIP3    H133055   6.218   5.617   3.087 -1.4033 -1.2085  1.3591
 3880TIP3    H233056   6.189   5.475   3.044  1.0145 -0.9999 -1.2965
 3881TIP3   OH233057   6.137   2.980   1.618  0.4197  0.0289 -0.5262
 3881TIP3    H133058   6.215   2.944   1.577 -0.1437 -0.4777 -1.1942
 3881TIP3    H233059   6.168   3.054   1.670  1.5039 -0.9082  0.2156
 3882TIP3   OH233060   4.864   1.833   5.762 -0.2575  0.1900  0.0557
 3882TIP3    H133061   4.914   1.886   5.823 -0.0532 -0.1496  0.1897
 3882TIP3    H233062   4.825   1.895   5.700  0.5387  0.4381 -0.2024
 3883TIP3   OH233063   0.566   2.148   5.384 -0.3190 -0.4756 -0.0263
 3883TIP3    H133064   0.565   2.232   5.430 -0.9102  0.0968 -1.0454
 3883TIP3    H233065   0.565   2.172   5.291  0.6115 -1.5978 -0.3504
 3884TIP3   OH233066   1.109   4.619  16.361  0.2118 -0.7091  0.2454
 3884TIP3    H133067   1.154   4.589  16.440  0.6369 -0.5051  0.0818
 3884TIP3    H233068   1.021   4.582  16.369 -0.3578  0.8436  1.7425
 3885TIP3   OH233069   2.830   4.387   6.205 -0.4797  0.0419 -0.2696
 3885TIP3    H133070   2.919   4.402   6.171  0.2797  1.4048  2.0679
 3885TIP3    H233071   2.817   4.457   6.268 -2.9547 -0.6007  0.0159
 3886TIP3   OH233072   4.762   5.970   0.255  0.0931 -0.1858 -0.3120
 3886TIP3    H133073   4.787   5.913   0.328 -2.4838 -0.6016  0.3241
 3886TIP3    H233074   4.739   5.910   0.184  0.8397  0.1789 -0.8741
 3887TIP3   OH233075   4.961   2.480   3.042 -0.7746 -0.5521  0.0146
 3887TIP3    H133076   5.012   2.468   3.122 -2.3598 -0.0206  1.1624
 3887TIP3    H233077   5.011   2.434   2.975  1.6028  0.6127  0.8770
 3888TIP3   OH233078   6.310   2.931   3.400 -0.0713 -0.1691 -0.3135
 3888TIP3    H133079   6.294   2.854   3.345 -1.4962  0.0122 -0.1820
 3888TIP3    H233080   6.326   2.896   3.487 -1.9352 -0.2907  0.0079
 3889TIP3   OH233081   2.900   2.382   4.855  0.3183  0.3766 -0.0372
 3889TIP3    H133082   2.962   2.382   4.782  1.0434  0.4576  0.5732
 3889TIP3    H233083   2.944   2.334   4.925 -0.9301 -0.9412 -0.1007
 3890TIP3   OH233084   2.821   3.283  13.161 -0.0051 -0.0764 -0.6193
 3890TIP3    H133085   2.856   3.287  13.071 -1.0765  2.2899 -1.0052
 3890TIP3    H233086   2.735   3.324  13.155 -1.0718 -1.9200  1.1174
 3891TIP3   OH233087   0.214   0.528   5.799  0.2489  0.3835  0.5366
 3891TIP3    H133088   0.149   0.477   5.750 -0.8502  1.8789  0.3737
 3891TIP3    H233089   0.283   0.547   5.735  0.2559 -0.1629  0.3751
 3892TIP3   OH233090   2.388   3.515  12.883  0.3054 -0.0108 -0.2681
 3892TIP3    H133091   2.318   3.450  12.875 -0.2713  0.6378 -0.6740
 3892TIP3    H233092   2.418   3.508  12.973 -0.3525 -0.2288 -0.0628
 3893TIP3   OH233093   5.181   1.776   4.767 -0.2085  0.4101 -0.1740
 3893TIP3    H133094   5.157   1.684   4.778  0.8295  0.2838  1.3203
 3893TIP3    H233095   5.269   1.774   4.729 -0.1231  0.7791 -0.0051
 3894TIP3   OH233096   1.827   1.614   0.034  0.4231  0.2228  0.2143
 3894TIP3    H133097   1.860   1.589   0.120  0.8509  1.0468  0.2927
 3894TIP3    H233098   1.904   1.615  -0.022 -0.0670 -1.9847 -0.6132
 3895TIP3   OH233099   3.193   1.891   6.006 -0.5102  0.6112  0.9915
 3895TIP3    H133100   3.137   1.813   6.004  1.9292 -1.3492 -2.6019
 3895TIP3    H233101   3.274   1.862   6.048  0.7172  0.8871 -1.0621
 3896TIP3   OH233102   3.381   2.223   5.600 -0.2447 -0.4526 -0.1249
 3896TIP3    H133103   3.444   2.264   5.541  1.2508 -2.4022  0.0064
 3896TIP3    H233104   3.368   2.135   5.563 -2.0029 -0.5051  0.5243
 3897TIP3   OH233105   4.105   2.634  14.553  1.1959  0.1716 -0.5635
 3897TIP3    H133106   4.160   2.689  14.609  0.3315  0.3501  0.1491
 3897TIP3    H233107   4.155   2.623  14.473  1.7271  1.3731 -0.4281
 3898TIP3   OH233108   6.142   0.806   1.594 -0.0382 -0.2211 -0.3083
 3898TIP3    H133109   6.150   0.811   1.689 -0.4551 -0.0814 -0.2766
 3898TIP3    H233110   6.072   0.743   1.579  2.8461 -3.5977 -0.6374
 3899TIP3   OH233111   0.973   2.973   1.423  0.4561 -0.3664  0.1073
 3899TIP3    H133112   0.888   2.942   1.393  1.1342 -0.6244 -1.6601
 3899TIP3    H233113   0.978   3.064   1.393  1.4447 -0.8524 -1.3369
 3900TIP3   OH233114   6.439   2.971   1.853  0.1771  0.0087 -0.1370
 3900TIP3    H133115   6.418   3.062   1.829  1.1551  0.9110  2.1298
 3900TIP3    H233116   6.534   2.970   1.859  0.1433 -1.0545  0.3011
 3901TIP3   OH233117   6.628   1.005  14.584 -0.2139  0.2469 -0.5089
 3901TIP3    H133118   6.570   1.040  14.651 -0.1757  1.5011 -1.1174
 3901TIP3    H233119   6.640   0.913  14.610  0.5988  0.9189  1.7503
 3902TIP3   OH233120   6.784   4.621   3.361 -0.2217  0.1047  0.3990
 3902TIP3    H133121   6.860   4.573   3.393  0.4141 -0.1400 -1.3870
 3902TIP3    H233122   6.712   4.558   3.367  0.7541 -1.5302 -2.6883
 3903TIP3   OH233123   1.852   3.390   1.840  0.2043  0.3008 -0.0127
 3903TIP3    H133124   1.813   3.452   1.778 -0.4872 -1.1745 -1.1339
 3903TIP3    H233125   1.911   3.337   1.787  0.9777  0.1479  0.9740
 3904TIP3   OH233126   3.909   3.868   1.673  0.0207 -0.0311  0.2805
 3904TIP3    H133127   3.870   3.781   1.668  0.7486 -0.4644  1.6028
 3904TIP3    H233128   3.880   3.903   1.757 -0.1970  0.9786 -0.2017
 3905TIP3   OH233129   5.437   6.346  11.513  0.5000 -0.2435 -0.3950
 3905TIP3    H133130   5.493   6.287  11.463  0.4913 -0.3404 -0.2900
 3905TIP3    H233131   5.395   6.290  11.578 -0.3518 -0.3220 -0.9919
 3906TIP3   OH233132   1.116   6.481  16.159 -0.5642  0.5620  0.3776
 3906TIP3    H133133   1.201   6.437  16.159 -0.6574  0.3701 -0.4347
 3906TIP3    H233134   1.084   6.469  16.249 -1.0692 -2.0131 -0.0631
 3907TIP3   OH233135   0.180   0.686  14.240 -0.0922 -0.2018 -0.6137
 3907TIP3    H133136   0.188   0.621  14.170  0.0676 -0.6920 -0.1480
 3907TIP3    H233137   0.188   0.770  14.195  0.5031 -0.5213 -1.1238
 3908TIP3   OH233138   0.816   2.318   0.995  0.0318 -0.1115 -0.7526
 3908TIP3    H133139   0.894   2.336   0.944  0.3764  0.8154  0.0805
 3908TIP3    H233140   0.849   2.293   1.081 -0.5184 -2.2313 -1.0975
 3909TIP3   OH233141   3.591   4.277  12.133 -0.3948 -0.4737  0.6161
 3909TIP3    H133142   3.634   4.357  12.163 -1.0877  0.1760 -0.0586
 3909TIP3    H233143   3.577   4.225  12.212 -0.1387  0.1801  1.0941
 3910TIP3   OH233144   0.539   2.844  15.208  0.1402  0.1335  0.2398
 3910TIP3    H133145   0.612   2.876  15.261 -0.0885 -1.0203  1.3048
 3910TIP3    H233146   0.463   2.894  15.240 -0.4156 -2.0006  2.6328
 3911TIP3   OH233147   0.844   1.321  14.266  0.3835 -0.9568 -0.4291
 3911TIP3    H133148   0.924   1.347  14.221 -0.0646 -0.1241 -0.7597
 3911TIP3    H233149   0.826   1.233  14.233  0.8008 -0.8874 -0.8601
 3912TIP3   OH233150   1.710   4.117  12.638  0.0651  0.5793  0.2549
 3912TIP3    H133151   1.801   4.094  12.616 -0.6757 -0.5761 -1.8972
 3912TIP3    H233152   1.676   4.039  12.682 -0.2376  0.5554 -0.0259
 3913TIP3   OH233153   3.287   0.728  13.885  1.0028  0.0789 -0.8783
 3913TIP3    H133154   3.272   0.676  13.806  1.1967  0.1022 -0.9308
 3913TIP3    H233155   3.288   0.664  13.956  0.4787  0.0957 -0.8520
 3914TIP3   OH233156   0.799   1.844  12.624 -0.6120 -0.0245  0.0114
 3914TIP3    H133157   0.808   1.759  12.581 -1.3673  0.1462 -0.5244
 3914TIP3    H233158   0.852   1.903  12.571  0.9423 -0.3778  1.1159
 3915TIP3   OH233159   1.044   5.314  16.156  0.4906 -0.2947 -0.3349
 3915TIP3    H133160   1.007   5.354  16.235  0.0043 -1.0594 -0.1509
 3915TIP3    H233161   1.022   5.221  16.165  0.0994 -0.3409 -1.5497
 3916TIP3   OH233162   2.235   5.938  11.740 -0.1444  0.5501  0.5125
 3916TIP3    H133163   2.224   5.979  11.655  0.2863 -1.0787 -0.3637
 3916TIP3    H233164   2.273   6.007  11.795  0.2628  1.4132 -0.8041
 3917TIP3   OH233165   0.991   3.331   1.816  0.1839  0.3614  0.6920
 3917TIP3    H133166   0.988   3.399   1.884 -0.3788  0.7847  0.2542
 3917TIP3    H233167   0.911   3.281   1.829 -0.5853  1.2398 -0.4504
 3918TIP3   OH233168   3.996   5.012   4.913 -0.4006 -0.0752 -0.1610
 3918TIP3    H133169   3.916   4.974   4.876 -1.2661  1.0363  0.4806
 3918TIP3    H233170   3.987   5.106   4.899  0.2233  0.1827  0.9802
 3919TIP3   OH233171   3.091   4.329  12.121 -0.1742 -0.2130  0.3601
 3919TIP3    H133172   3.101   4.252  12.064 -0.9230 -0.2864  0.3199
 3919TIP3    H233173   3.019   4.378  12.082 -0.3119  0.0339  0.9236
 3920TIP3   OH233174   3.663   0.557   2.675 -0.2134  0.0923  0.1154
 3920TIP3    H133175   3.604   0.575   2.602 -2.4476 -3.0314  0.9349
 3920TIP3    H233176   3.695   0.469   2.659  2.5800  0.8415  0.9183
 3921TIP3   OH233177   4.751   4.989   4.095  0.0398  0.1875 -0.1331
 3921TIP3    H133178   4.680   4.937   4.058  0.4328  0.1514 -0.8559
 3921TIP3    H233179   4.736   4.986   4.189 -1.5965  1.1534 -0.3162
 3922TIP3   OH233180   3.545   1.783   1.987 -0.6311 -0.1347  0.1255
 3922TIP3    H133181   3.499   1.866   1.972  0.1988  0.0084 -1.9637
 3922TIP3    H233182   3.495   1.719   1.937  0.6884 -0.1917 -1.2004
 3923TIP3   OH233183   1.070   4.879   5.006  0.2339  0.1884  0.2231
 3923TIP3    H133184   1.110   4.944   5.064 -0.7648 -0.1056  1.2716
 3923TIP3    H233185   1.120   4.799   5.020 -0.6358 -0.1613  1.4839
 3924TIP3   OH233186   4.342   3.894   1.128 -0.0668 -0.3879  0.1267
 3924TIP3    H133187   4.314   3.899   1.036 -0.1290  3.0324  0.2404
 3924TIP3    H233188   4.268   3.928   1.178  0.3728 -1.2118  1.3916
 3925TIP3   OH233189   1.384   1.296  14.830  0.1572  0.2101  0.3716
 3925TIP3    H133190   1.310   1.251  14.872  1.0304 -1.7541 -0.0726
 3925TIP3    H233191   1.348   1.326  14.746  0.2667 -2.4830 -0.7456
 3926TIP3   OH233192   3.465   6.247  12.130 -0.1962 -0.0749  0.1193
 3926TIP3    H133193   3.536   6.217  12.188 -0.6102 -0.1685  0.5843
 3926TIP3    H233194   3.438   6.169  12.082  1.0656  0.2662 -1.2235
 3927TIP3   OH233195   6.170   4.134   4.278  0.4099 -0.3406  0.0187
 3927TIP3    H133196   6.091   4.187   4.269  0.3400 -0.4411  0.0476
 3927TIP3    H233197   6.219   4.149   4.197  0.0249 -0.8435 -0.3042
 3928TIP3   OH233198   6.125   6.700  14.128  0.5720 -0.0097 -0.0987
 3928TIP3    H133199   6.153   6.779  14.175  0.2253 -0.5234  0.9949
 3928TIP3    H233200   6.197   6.682  14.067  1.2607  0.4069  0.5644
 3929TIP3   OH233201   1.000   3.251  16.405  0.6601 -0.0497  0.1920
 3929TIP3    H133202   1.070   3.304  16.367  0.6911 -0.2006  0.0400
 3929TIP3    H233203   0.983   3.292  16.490  1.8960 -0.8425  0.8477
 3930TIP3   OH233204   4.808   4.317   4.901 -0.0072  0.0433  0.0749
 3930TIP3    H133205   4.838   4.283   4.817 -2.2094  0.9541 -1.1575
 3930TIP3    H233206   4.850   4.403   4.909 -0.6609  0.4501 -0.6792
 3931TIP3   OH233207   6.572   6.413   0.381 -0.4099  0.5032  0.1395
 3931TIP3    H133208   6.541   6.323   0.382  0.1949  0.2435  2.5845
 3931TIP3    H233209   6.494   6.466   0.399 -0.2804  0.1923  1.7679
 3932TIP3   OH233210   6.238   4.530  12.167 -0.4784  0.2467 -0.4746
 3932TIP3    H133211   6.187   4.502  12.243  1.0091 -0.1664  0.3925
 3932TIP3    H233212   6.184   4.504  12.092 -1.7107  0.1560  0.4111
 3933TIP3   OH233213   6.527   1.880  16.607  0.4183 -0.1913  0.2239
 3933TIP3    H133214   6.533   1.872  16.512  0.8403  0.5442  0.1787
 3933TIP3    H233215   6.442   1.844  16.629 -1.1420  2.5597 -0.8166
 3934TIP3   OH233216   0.621   5.994  15.269 -0.2340  0.5206 -0.0873
 3934TIP3    H133217   0.704   5.955  15.297  0.9093  2.0853 -1.1907
 3934TIP3    H233218   0.555   5.948  15.321  1.0134 -2.6966 -1.1030
 3935TIP3   OH233219   3.038   3.701  14.266  0.1456 -0.2578 -0.0459
 3935TIP3    H133220   2.962   3.724  14.319  0.0293  1.6101 -0.9588
 3935TIP3    H233221   3.112   3.707  14.327  0.0134  1.8455 -0.0133
 3936TIP3   OH233222   2.688   6.343  11.662 -0.2673  0.4416  0.2616
 3936TIP3    H133223   2.607   6.293  11.675 -1.9898  2.3229 -2.2045
 3936TIP3    H233224   2.752   6.277  11.635 -1.2330 -0.9793  1.2816
 3937TIP3   OH233225   0.175   3.894   1.228  0.2038  0.5045 -0.1373
 3937TIP3    H133226   0.098   3.837   1.229 -0.3362  1.2142  1.3475
 3937TIP3    H233227   0.139   3.983   1.218  0.9112  0.7641 -0.4871
 3938TIP3   OH233228   1.036   0.459  16.815 -0.3499 -0.8730 -0.3395
 3938TIP3    H133229   0.960   0.411  16.849 -2.0157  0.9350 -1.3517
 3938TIP3    H233230   1.082   0.488  16.894 -0.4746 -2.2900  0.2945
 3939TIP3   OH233231   1.407   0.133  14.409  0.8063  0.1091 -0.2455
 3939TIP3    H133232   1.469   0.193  14.368  0.0058  0.8498 -0.4081
 3939TIP3    H233233   1.347   0.108  14.338 -1.1459  2.1108  0.5608
 3940TIP3   OH233234   1.376   6.424   2.794 -0.2251  0.0127  0.1967
 3940TIP3    H133235   1.439   6.480   2.839  1.3173 -1.0422 -0.5455
 3940TIP3    H233236   1.415   6.408   2.708 -1.3372 -0.9629 -0.1644
 3941TIP3   OH233237   3.538   2.774  12.240  0.1908  0.5111 -0.1135
 3941TIP3    H133238   3.621   2.784  12.286  0.6093  0.8711 -0.9264
 3941TIP3    H233239   3.530   2.853  12.186 -0.9197  0.7134  0.3201
 3942TIP3   OH233240   0.770   4.683   1.791  0.7578 -0.6767  0.6697
 3942TIP3    H133241   0.727   4.755   1.838 -0.3773 -0.6333 -0.3995
 3942TIP3    H233242   0.744   4.605   1.839  1.3954 -0.4716  1.3919
 3943TIP3   OH233243   6.279   3.084   3.861  0.1320  0.6190  0.9456
 3943TIP3    H133244   6.268   3.177   3.880  1.3548  0.6100  1.7974
 3943TIP3    H233245   6.363   3.078   3.815 -0.9430  0.1682 -1.0720
 3944TIP3   OH233246   4.061   6.163   0.030  0.0580 -0.1160 -0.0639
 3944TIP3    H133247   4.057   6.082  -0.021 -1.0467  0.5564 -1.1207
 3944TIP3    H233248   3.984   6.160   0.086 -1.0090  0.9829 -1.4044
 3945TIP3   OH233249   1.658   5.507  15.763  0.3075 -0.1131 -0.3241
 3945TIP3    H133250   1.679   5.601  15.763 -1.2023  0.2848  1.5020
 3945TIP3    H233251   1.697   5.474  15.682 -0.8941  2.5094 -2.1179
 3946TIP3   OH233252   1.358   1.749   2.669  0.3395  0.3256  0.3933
 3946TIP3    H133253   1.299   1.823   2.650 -1.2571 -0.7298  0.9928
 3946TIP3    H233254   1.418   1.782   2.735  0.5818  1.5147 -0.3952
 3947TIP3   OH233255   0.114   3.462   0.272 -0.3985  0.1890  0.9390
 3947TIP3    H133256   0.154   3.378   0.247  0.4582  0.0290  2.6734
 3947TIP3    H233257   0.035   3.468   0.218  0.4702 -0.8529 -0.5295
 3948TIP3   OH233258   5.381   4.199   3.565  0.3056  0.7037 -0.2976
 3948TIP3    H133259   5.342   4.264   3.505 -0.1695 -0.6145 -1.4712
 3948TIP3    H233260   5.315   4.188   3.634 -0.8866 -0.5218 -1.5597
 3949TIP3   OH233261   1.246   1.299   2.844  0.4408 -0.2188 -0.0592
 3949TIP3    H133262   1.198   1.379   2.822 -1.0134 -1.0130  0.0542
 3949TIP3    H233263   1.292   1.275   2.764 -0.8608 -0.4222 -0.7741
 3950TIP3   OH233264   1.073   0.204   4.502  0.4722  0.0391  0.3986
 3950TIP3    H133265   1.043   0.131   4.449 -2.1540  0.3058  1.3773
 3950TIP3    H233266   1.142   0.245   4.450 -0.7089 -0.7842 -1.9492
 3951TIP3   OH233267   3.027   6.479   2.328 -0.3596 -0.0244 -0.0977
 3951TIP3    H133268   3.010   6.536   2.403  0.1346  1.2633 -0.9337
 3951TIP3    H233269   3.117   6.450   2.340 -0.0679  0.6900 -0.5029
 3952TIP3   OH233270   3.182   2.275   4.717  0.1633  0.2988 -0.4810
 3952TIP3    H133271   3.250   2.328   4.758 -0.7250  0.9776  0.1670
 3952TIP3    H233272   3.166   2.205   4.781 -0.6399  0.8851 -0.0152
 3953TIP3   OH233273   4.795   0.534   1.862  0.3536 -0.3528  0.0934
 3953TIP3    H133274   4.748   0.460   1.824  0.3866 -0.2050 -0.2337
 3953TIP3    H233275   4.788   0.603   1.797 -1.2982  0.5629  1.1807
 3954TIP3   OH233276   6.303   2.328   2.453 -0.0543  0.3181 -0.0295
 3954TIP3    H133277   6.296   2.418   2.484  0.2825  1.2091 -2.3268
 3954TIP3    H233278   6.254   2.276   2.517 -0.4302  2.1398  1.2316
 3955TIP3   OH233279   5.089   4.604  15.842  0.1486  0.2904 -0.6223
 3955TIP3    H133280   5.048   4.633  15.923 -1.5627 -0.9614 -0.9752
 3955TIP3    H233281   5.154   4.539  15.870 -1.2550 -1.0278 -0.2569
 3956TIP3   OH233282   6.283   6.182   0.423  0.0663 -0.5082 -0.2188
 3956TIP3    H133283   6.206   6.170   0.368  0.2256 -0.8633 -0.3627
 3956TIP3    H233284   6.357   6.160   0.367  0.3129  0.2754 -0.2251
 3957TIP3   OH233285   1.007   0.928   2.271 -0.3220 -0.2909  0.0424
 3957TIP3    H133286   0.954   1.005   2.295  2.7681  1.6655  1.2938
 3957TIP3    H233287   1.014   0.878   2.352 -0.7016 -0.8412 -0.2611
 3958TIP3   OH233288   1.535   5.539  15.363 -0.2268  0.2717  0.3288
 3958TIP3    H133289   1.522   5.482  15.287 -1.5034  0.1469  0.6157
 3958TIP3    H233290   1.595   5.490  15.419  0.7470  0.3762 -0.6007
 3959TIP3   OH233291   2.234   0.774   3.889  0.5176 -0.6931 -0.3335
 3959TIP3    H133292   2.256   0.738   3.975  2.4902 -0.7371 -0.7999
 3959TIP3    H233293   2.207   0.698   3.838  0.4238 -0.8468 -0.0582
 3960TIP3   OH233294   6.511   3.337  15.656 -0.3496 -0.0028  0.2825
 3960TIP3    H133295   6.478   3.255  15.693  0.6705  0.3623  2.1384
 3960TIP3    H233296   6.433   3.389  15.639 -0.9266 -0.7009  0.7296
 3961TIP3   OH233297   3.492   2.813   1.923 -0.6608  0.1015 -0.4631
 3961TIP3    H133298   3.484   2.878   1.993 -0.1978  0.3877 -0.6716
 3961TIP3    H233299   3.460   2.859   1.845 -1.3614 -0.2793 -0.4139
 3962TIP3   OH233300   0.147   0.070  15.297 -0.6039 -0.4611  0.0382
 3962TIP3    H133301   0.156  -0.025  15.301 -0.7618 -0.5396 -1.2053
 3962TIP3    H233302   0.062   0.085  15.256 -0.4040  0.2117 -0.1411
 3963TIP3   OH233303   0.514   1.728   1.198 -0.0790  0.0213 -0.0458
 3963TIP3    H133304   0.574   1.797   1.227 -1.9958  1.8508 -0.1810
 3963TIP3    H233305   0.502   1.744   1.104  0.0643 -1.0211 -0.2575
 3964TIP3   OH233306   1.710   1.022  15.183  0.7175  0.2062 -0.3520
 3964TIP3    H133307   1.783   1.074  15.217 -0.2047  1.3346 -0.0441
 3964TIP3    H233308   1.671   1.077  15.115  1.4178 -1.2665 -2.0250
 3965TIP3   OH233309   3.382   5.508   3.640  0.5823 -0.0755  0.2567
 3965TIP3    H133310   3.427   5.571   3.696 -1.5807  0.2961  1.6863
 3965TIP3    H233311   3.400   5.538   3.551  1.1447  1.4511  0.8543
 3966TIP3   OH233312   5.028   3.936   0.733 -0.2258  0.0873  0.3504
 3966TIP3    H133313   4.951   3.909   0.784 -0.0624  0.3331  0.7301
 3966TIP3    H233314   5.100   3.933   0.796 -0.0269  0.4288  0.1408
 3967TIP3   OH233315   6.517   3.444  14.839 -0.2304  0.2859  0.1055
 3967TIP3    H133316   6.469   3.498  14.902 -0.8890  1.1906 -1.1352
 3967TIP3    H233317   6.467   3.363  14.833 -0.1761  0.2036  0.7162
 3968TIP3   OH233318   2.636   3.149   0.403  0.0279 -0.2283 -0.3993
 3968TIP3    H133319   2.642   3.231   0.452 -1.0120  0.0766 -0.7642
 3968TIP3    H233320   2.620   3.082   0.470 -0.8999  0.1194 -0.2556
 3969TIP3   OH233321   6.571   1.390   1.325  0.3850  0.4259 -0.2345
 3969TIP3    H133322   6.651   1.437   1.347  0.1082  0.9993 -0.4502
 3969TIP3    H233323   6.553   1.337   1.403 -0.1498  1.8428  0.6385
 3970TIP3   OH233324   5.646   6.025   0.697 -0.5479  0.1195  0.3923
 3970TIP3    H133325   5.661   6.038   0.603 -0.6515 -1.1671  0.1761
 3970TIP3    H233326   5.728   6.053   0.738 -1.3857  3.2041  0.2092
 3971TIP3   OH233327   0.836   1.466   4.008 -0.6836 -0.0961 -0.5594
 3971TIP3    H133328   0.828   1.552   4.051 -0.2220 -0.6708  0.6943
 3971TIP3    H233329   0.929   1.456   3.990 -0.8853  0.2210 -1.9292
 3972TIP3   OH233330   3.068   5.861   0.590 -0.2418  0.0521 -0.4069
 3972TIP3    H133331   3.038   5.875   0.500 -0.4230  2.3781 -0.0321
 3972TIP3    H233332   2.987   5.855   0.640 -0.1825 -2.3605 -0.4626
 3973TIP3   OH233333   4.448   0.067   1.130  0.3010 -0.3434  0.0733
 3973TIP3    H133334   4.420   0.056   1.221 -1.5653  1.9211 -0.1216
 3973TIP3    H233335   4.367   0.085   1.082  1.3935 -0.2155 -1.8126
 3974TIP3   OH233336   1.532   1.990   0.179  0.2570  0.1749 -0.2421
 3974TIP3    H133337   1.558   2.031   0.096  0.5605 -0.1719 -0.3218
 3974TIP3    H233338   1.496   1.906   0.154  0.5853 -0.0386 -0.0065
 3975TIP3   OH233339   0.058   6.672   0.998  0.3132  0.2381  0.6794
 3975TIP3    H133340  -0.008   6.647   0.933  0.5573  1.2640  0.0080
 3975TIP3    H233341   0.126   6.716   0.947  0.7668  0.5857  1.5687
 3976TIP3   OH233342   4.744   0.080   0.244 -0.2907  0.7146  0.1602
 3976TIP3    H133343   4.700   0.103   0.162  0.1910 -2.2030 -1.0307
 3976TIP3    H233344   4.673   0.075   0.308 -0.8638  1.6325 -0.3762
 3977TIP3   OH233345   0.985   6.262  11.797  0.4531  0.6132 -0.3742
 3977TIP3    H133346   0.948   6.190  11.849  3.1023 -1.1578 -0.7186
 3977TIP3    H233347   0.924   6.334  11.809 -1.2115 -1.0064  1.8069
 3978TIP3   OH233348   5.709   5.710   0.837  0.0320 -0.0935  0.3613
 3978TIP3    H133349   5.796   5.717   0.798 -0.6365  0.8256 -1.0468
 3978TIP3    H233350   5.657   5.663   0.771 -0.3970 -1.2614  1.4774
 3979TIP3   OH233351   5.853   4.622  16.790  0.7301 -0.3567  0.2188
 3979TIP3    H133352   5.764   4.585  16.794  0.6434 -0.5312 -1.8684
 3979TIP3    H233353   5.871   4.651  16.879 -0.7934 -1.7663  1.0499
 3980TIP3   OH233354   3.035   3.034  14.671 -0.0610  0.0377  0.1779
 3980TIP3    H133355   3.033   3.114  14.618  0.7660 -0.0099  0.0765
 3980TIP3    H233356   3.061   3.063  14.758  2.1590 -0.3443 -0.2985
 3981TIP3   OH233357   1.783   3.045   4.645  0.2244  0.0426 -0.5593
 3981TIP3    H133358   1.725   3.061   4.719  2.0673 -0.6470  1.1340
 3981TIP3    H233359   1.778   2.951   4.631  0.4078  0.0761 -0.8583
 3982TIP3   OH233360   4.954   1.567   1.271 -0.2122 -0.1360  0.6867
 3982TIP3    H133361   4.925   1.588   1.360  0.2290  0.3226  0.7286
 3982TIP3    H233362   5.017   1.496   1.281 -0.0961 -0.0246  0.7519
 3983TIP3   OH233363   6.411   3.724  14.478  0.0980  0.1722  0.1087
 3983TIP3    H133364   6.384   3.632  14.476 -4.5367  1.3167 -1.1301
 3983TIP3    H233365   6.430   3.746  14.387  0.2895  0.6716  0.2631
 3984TIP3   OH233366   6.543   3.961   5.452 -0.1506 -0.0039  0.2439
 3984TIP3    H133367   6.492   3.982   5.373 -0.1904  1.5909  0.6662
 3984TIP3    H233368   6.510   4.021   5.519 -0.1473 -1.3702  1.5047
 3985TIP3   OH233369   4.557   2.636  13.251 -0.0094 -0.8208 -0.0031
 3985TIP3    H133370   4.474   2.590  13.237 -0.7369  0.6901 -0.8695
 3985TIP3    H233371   4.532   2.720  13.289  1.2567 -0.9148  1.0907
 3986TIP3   OH233372   5.313   6.692   0.070  0.2552  0.5526  0.1292
 3986TIP3    H133373   5.356   6.631   0.131  0.6191  1.0842  0.4074
 3986TIP3    H233374   5.261   6.635   0.013  0.0744  0.0238  0.7959
 3987TIP3   OH233375   1.724   0.549  12.635 -0.4067 -0.1873 -0.3340
 3987TIP3    H133376   1.635   0.565  12.664 -0.5454 -0.3814 -0.6467
 3987TIP3    H233377   1.722   0.462  12.596 -0.2767  0.1507 -1.1181
 3988TIP3   OH233378   1.376   3.264   5.403 -0.4877  0.2309 -0.1096
 3988TIP3    H133379   1.312   3.320   5.447  1.1696  1.0010  1.4596
 3988TIP3    H233380   1.426   3.225   5.474 -0.7736 -2.3479 -1.2135
 3989TIP3   OH233381   5.485   0.311  15.116  0.3170 -0.2954  0.1923
 3989TIP3    H133382   5.559   0.261  15.148  2.0997  1.4589 -0.9588
 3989TIP3    H233383   5.442   0.253  15.052 -0.4487 -1.9891  2.1322
 3990TIP3   OH233384   2.055   2.659   4.767  0.6424  0.0942  0.1353
 3990TIP3    H133385   2.098   2.670   4.682  1.8744  0.5881  0.7983
 3990TIP3    H233386   2.123   2.625   4.824  0.7925  2.7598  1.7322
 3991TIP3   OH233387   1.998   2.156   2.155  0.3828 -0.0720 -0.0845
 3991TIP3    H133388   2.081   2.130   2.195  1.2131  0.6450 -1.2619
 3991TIP3    H233389   1.970   2.078   2.107  1.6966  0.4144 -1.7411
 3992TIP3   OH233390   3.572   3.070   1.552  0.6920  0.2509 -0.3406
 3992TIP3    H133391   3.646   3.130   1.556  1.0850 -0.1362 -1.3880
 3992TIP3    H233392   3.565   3.046   1.460 -0.6652  0.1761 -0.2457
 3993TIP3   OH233393   0.194   3.251  14.921 -0.0300  0.4359  0.2027
 3993TIP3    H133394   0.154   3.166  14.902  1.3905  0.0209 -1.1531
 3993TIP3    H233395   0.124   3.314  14.903 -0.5956 -0.3435 -0.4497
 3994TIP3   OH233396   3.476   2.039   2.351  0.2946 -0.0587 -0.0559
 3994TIP3    H133397   3.452   2.086   2.431 -1.1399 -1.6740  0.4992
 3994TIP3    H233398   3.565   2.009   2.367  1.9243  3.5925 -1.0243
 3995TIP3   OH233399   5.775   1.801   1.003 -0.6880  0.1670  0.5624
 3995TIP3    H133400   5.731   1.749   0.935 -0.5421  0.7052  0.0483
 3995TIP3    H233401   5.850   1.747   1.029 -1.0366 -0.2719  0.6665
 3996TIP3   OH233402   3.606   0.908  11.809 -0.2434 -0.5982  0.0441
 3996TIP3    H133403   3.676   0.974  11.805  0.2670 -1.1220  0.0753
 3996TIP3    H233404   3.579   0.897  11.718  1.8629 -2.5971 -0.4506
 3997TIP3   OH233405   5.930   6.280   1.147 -0.3629 -0.3192  0.1498
 3997TIP3    H133406   5.939   6.291   1.052 -0.5140  0.4741  0.2180
 3997TIP3    H233407   5.836   6.264   1.161 -0.2956 -0.7379  0.1441
 3998TIP3   OH233408   0.351   4.299  16.344 -0.1562  0.4689  0.5163
 3998TIP3    H133409   0.334   4.233  16.277  1.6036  0.9447 -0.4639
 3998TIP3    H233410   0.315   4.380  16.308 -0.2683  0.4936  0.6816
 3999TIP3   OH233411   6.296   3.499  13.138 -0.4225  0.1342  1.0170
 3999TIP3    H133412   6.249   3.583  13.139 -0.0484  0.3427  1.2466
 3999TIP3    H233413   6.263   3.452  13.214  0.5866  0.7605  1.8761
 4000TIP3   OH233414   2.302   2.696   0.180  0.0340 -0.3432 -0.6711
 4000TIP3    H133415   2.326   2.606   0.158  0.7185 -0.2970 -0.1220
 4000TIP3    H233416   2.268   2.691   0.269  0.7089  0.0396 -0.3842
 4001TIP3   OH233417   2.970   4.717   4.643  0.3449  0.2079 -0.3429
 4001TIP3    H133418   2.914   4.644   4.615  2.3819 -1.7479  0.3194
 4001TIP3    H233419   2.977   4.707   4.738  2.3361 -0.0811 -0.4736
 4002TIP3   OH233420   5.626   0.205   5.862  1.2719  0.5536  0.3394
 4002TIP3    H133421   5.698   0.153   5.825 -0.2718 -1.9736  0.6130
 4002TIP3    H233422   5.669   0.278   5.906  3.5678 -0.1125 -0.6637
 4003TIP3   OH233423   2.605   3.649  15.956  0.4019 -0.6012  0.3029
 4003TIP3    H133424   2.526   3.644  16.010  0.5606 -0.5759  0.5378
 4003TIP3    H233425   2.587   3.591  15.883  0.1509 -0.5714  0.3387
 4004TIP3   OH233426   2.108   4.162   2.587 -0.1795 -0.4254 -0.2333
 4004TIP3    H133427   2.178   4.110   2.546  0.4109  1.9914 -2.5249
 4004TIP3    H233428   2.140   4.252   2.583 -1.9924  0.3940  1.8298
 4005TIP3   OH233429   5.759   4.215  17.032  0.4555 -0.0072  0.9001
 4005TIP3    H133430   5.699   4.179  17.097  0.1556  1.1595  1.3052
 4005TIP3    H233431   5.762   4.150  16.962 -2.3522  0.4924  0.2144
 4006TIP3   OH233432   0.215   0.416   4.323  0.1474  0.1923  0.1387
 4006TIP3    H133433   0.142   0.450   4.271  1.8193 -0.2351 -2.7467
 4006TIP3    H233434   0.260   0.356   4.263  2.3589 -0.2139  2.0793
 4007TIP3   OH233435   6.171   0.036   5.699  0.1729 -0.2730  0.0336
 4007TIP3    H133436   6.159   0.012   5.791 -0.7054 -1.3093 -0.3318
 4007TIP3    H233437   6.153   0.130   5.697 -0.7627 -0.4174  0.7794
 4008TIP3   OH233438   3.336   6.605   2.383  0.0917  0.2357 -0.1362
 4008TIP3    H133439   3.280   6.567   2.451 -0.3477 -0.9201 -1.1169
 4008TIP3    H233440   3.382   6.530   2.345 -0.1211  0.7823 -1.5212
 4009TIP3   OH233441   4.246   5.886  13.573  0.4275 -0.1877 -0.1005
 4009TIP3    H133442   4.188   5.825  13.526 -0.6417  0.7146  0.0090
 4009TIP3    H233443   4.326   5.836  13.588 -0.5673 -1.6976  0.3457
 4010TIP3   OH233444   5.661   2.263   6.691 -0.0810 -0.0933  0.0422
 4010TIP3    H133445   5.725   2.332   6.678  0.9284 -1.0833 -0.3939
 4010TIP3    H233446   5.710   2.191   6.732 -0.9396 -0.8054 -0.1389
 4011TIP3   OH233447   4.355   6.554  12.818  0.1641 -0.0645 -0.4920
 4011TIP3    H133448   4.405   6.553  12.736 -1.0724 -1.3613 -1.2790
 4011TIP3    H233449   4.370   6.467  12.856  0.2643  0.3256  0.3752
 4012TIP3   OH233450   1.712   5.524  14.485  0.4770  0.0663  0.0412
 4012TIP3    H133451   1.682   5.610  14.455  0.0337 -0.2129 -0.3315
 4012TIP3    H233452   1.751   5.484  14.407  2.8804  0.8470  0.7322
 4013TIP3   OH233453   5.536   5.591  11.900  0.3089 -0.2826 -0.1995
 4013TIP3    H133454   5.608   5.559  11.846  0.5011  2.9106 -2.0887
 4013TIP3    H233455   5.578   5.635  11.974  0.2744  0.1572 -0.4357
 4014TIP3   OH233456   5.216   5.064  15.400  0.1408  0.2072  0.2793
 4014TIP3    H133457   5.233   5.096  15.489  0.2703  0.9596 -0.0052
 4014TIP3    H233458   5.301   5.036  15.367 -0.0600 -0.9869  0.7264
 4015TIP3   OH233459   5.014   0.147   0.307  0.9704 -0.3271  0.0345
 4015TIP3    H133460   4.945   0.099   0.261  1.4838  0.4297 -1.5970
 4015TIP3    H233461   4.971   0.228   0.336  0.4882 -1.0707  1.4872
 4016TIP3   OH233462   5.904   2.732   5.674 -0.2224  0.2205  0.0185
 4016TIP3    H133463   5.951   2.683   5.741  1.1474  0.9275 -0.3894
 4016TIP3    H233464   5.866   2.665   5.617  2.4553 -0.4389 -1.1239
 4017TIP3   OH233465   0.421   2.953  11.697  0.0812 -0.4123 -0.0805
 4017TIP3    H133466   0.491   3.003  11.740 -0.0373 -0.8457  0.6340
 4017TIP3    H233467   0.444   2.954  11.604  0.8523 -0.2619  0.1067
 4018TIP3   OH233468   2.593   4.772   1.604  0.0406 -0.3883  0.6527
 4018TIP3    H133469   2.619   4.769   1.696  2.9842  1.9837  0.0693
 4018TIP3    H233470   2.586   4.866   1.585 -1.9229 -0.8399 -1.2484
 4019TIP3   OH233471   3.664   0.209   5.469 -0.1081 -0.3714  0.3329
 4019TIP3    H133472   3.581   0.233   5.427  1.1127 -0.6948 -2.4763
 4019TIP3    H233473   3.681   0.281   5.530 -0.9274  1.3529 -1.3511
 4020TIP3   OH233474   3.574   4.145  14.676 -0.1311 -0.5713  0.4736
 4020TIP3    H133475   3.601   4.221  14.728 -2.0180 -0.6542  1.6953
 4020TIP3    H233476   3.479   4.151  14.674 -0.1751 -1.0602 -2.3431
 4021TIP3   OH233477   0.643   0.873   2.057  0.2406 -0.2162 -0.3115
 4021TIP3    H133478   0.555   0.864   2.022  0.4551  3.3954 -2.2179
 4021TIP3    H233479   0.700   0.882   1.980  1.5521  2.0697  0.7851
 4022TIP3   OH233480   1.719   4.114   5.081 -0.0272  0.0327  0.3033
 4022TIP3    H133481   1.786   4.057   5.044  0.3401 -0.9916  2.4290
 4022TIP3    H233482   1.636   4.077   5.050  0.2306  1.9469 -3.2635
 4023TIP3   OH233483   1.313   1.915  11.692 -0.1873 -0.5731  0.6847
 4023TIP3    H133484   1.347   1.862  11.763  3.1701 -1.4072 -1.3036
 4023TIP3    H233485   1.338   2.005  11.715  0.4798 -0.7774  0.7576
 4024TIP3   OH233486   2.044   4.988   6.426 -0.3879 -0.5445  0.4340
 4024TIP3    H133487   2.102   5.043   6.478 -0.2435 -0.4971  0.2255
 4024TIP3    H233488   2.040   4.905   6.473  0.5861 -0.8621 -0.0259
 4025TIP3   OH233489   5.498   6.754   3.853  0.0411 -0.0753 -0.1480
 4025TIP3    H133490   5.504   6.676   3.797  0.6894  0.0199 -0.2169
 4025TIP3    H233491   5.571   6.745   3.914 -0.1626  0.2452  0.1454
 4026TIP3   OH233492   6.731   2.204   3.310  0.1747 -0.8458  0.1014
 4026TIP3    H133493   6.642   2.240   3.316  1.3837  2.3598  0.6259
 4026TIP3    H233494   6.747   2.163   3.395  0.3510  1.7575  1.4328
 4027TIP3   OH233495   1.056   1.502  17.029  0.1314  0.0623  0.2447
 4027TIP3    H133496   1.008   1.492  16.947  2.1742  1.5738 -1.2348
 4027TIP3    H233497   1.006   1.451  17.093 -0.7228 -2.4262 -2.2270
 4028TIP3   OH233498   3.975   5.307  11.008 -0.2328  0.7686 -0.1157
 4028TIP3    H133499   4.000   5.380  11.066  0.9786  1.1250 -1.0485
 4028TIP3    H233500   3.881   5.298  11.022 -0.0035  0.8638  1.8806
 4029TIP3   OH233501   3.341   1.213   1.746  0.0569  0.3398 -0.3988
 4029TIP3    H133502   3.330   1.127   1.788 -3.0440 -0.0356 -1.7447
 4029TIP3    H233503   3.374   1.193   1.659 -1.0126  0.4485 -0.8416
 4030TIP3   OH233504   4.000   0.617   4.007  0.7623  0.4823 -0.6033
 4030TIP3    H133505   3.934   0.618   4.076 -0.3204  1.9387 -1.5857
 4030TIP3    H233506   4.059   0.690   4.028  2.1371 -0.8479  0.3004
 4031TIP3   OH233507   2.529   4.537  11.513  0.1396 -0.0962  0.2811
 4031TIP3    H133508   2.453   4.497  11.555  0.5515 -0.1431  0.9838
 4031TIP3    H233509   2.566   4.596  11.579  1.2774 -0.7948  0.3007
 4032TIP3   OH233510   0.074   2.847  14.426 -0.5032  0.2436  0.0620
 4032TIP3    H133511   0.116   2.852  14.511 -0.8443 -0.2832  0.2669
 4032TIP3    H233512   0.059   2.754  14.411  1.7958  0.0680 -1.6844
 4033TIP3   OH233513   5.767   4.230  11.796  0.4207 -0.1258 -0.6296
 4033TIP3    H133514   5.763   4.136  11.777  3.5726 -0.3484 -0.6021
 4033TIP3    H233515   5.793   4.270  11.713 -1.8740  0.9405 -0.9226
 4034TIP3   OH233516   0.537   3.430  10.676 -0.4539 -0.2788  0.2348
 4034TIP3    H133517   0.484   3.476  10.611  0.5502 -1.7836 -1.7675
 4034TIP3    H233518   0.624   3.469  10.668 -0.1733 -0.9008  0.2101
 4035TIP3   OH233519   1.622   3.707  15.515 -0.2471  0.7671 -0.2958
 4035TIP3    H133520   1.601   3.753  15.434 -1.2266  0.8228 -0.0302
 4035TIP3    H233521   1.578   3.622  15.506  1.9246 -0.3552 -0.9866
 4036TIP3   OH233522   6.621   6.278   1.566  0.6810  0.0993 -0.2056
 4036TIP3    H133523   6.576   6.195   1.579 -0.2338  0.8101  1.4676
 4036TIP3    H233524   6.602   6.329   1.645  1.0960  1.9588 -1.2359
 4037TIP3   OH233525   4.027   4.164   3.208 -0.1552  0.2232 -0.3006
 4037TIP3    H133526   3.955   4.221   3.179 -1.6241 -0.5146  1.6790
 4037TIP3    H233527   4.004   4.077   3.175  0.1248  0.0905 -0.1509
 4038TIP3   OH233528   1.069   3.332   1.075  0.3176 -0.5546  0.1324
 4038TIP3    H133529   1.163   3.329   1.057  0.4994  0.8907  0.6860
 4038TIP3    H233530   1.043   3.240   1.080  2.2099 -1.0812  2.4587
 4039TIP3   OH233531   5.227   1.659   2.819  0.2924  0.4224 -0.2913
 4039TIP3    H133532   5.171   1.626   2.749 -1.1572  0.4785  0.7973
 4039TIP3    H233533   5.223   1.754   2.811 -0.0310  0.4340 -0.0371
 4040TIP3   OH233534   3.700   0.446  13.630 -0.1464  0.3724  0.2197
 4040TIP3    H133535   3.669   0.510  13.693  0.7151  0.4726  0.5490
 4040TIP3    H233536   3.778   0.407  13.670 -0.3916 -0.5593 -0.1716
 4041TIP3   OH233537   0.574   4.264  13.895  0.1953  0.1917 -0.5206
 4041TIP3    H133538   0.540   4.353  13.887 -1.0661 -0.2082  0.0428
 4041TIP3    H233539   0.591   4.237  13.804  1.4110  1.2783 -0.6497
 4042TIP3   OH233540   4.069   3.583  13.968 -0.3929 -0.4319 -0.2787
 4042TIP3    H133541   4.065   3.602  14.061 -1.5352 -1.3313 -0.1273
 4042TIP3    H233542   4.158   3.607  13.942  0.2796 -1.1457  1.2582
 4043TIP3   OH233543   0.151   5.876   4.349 -0.5927 -0.1714  0.0690
 4043TIP3    H133544   0.191   5.958   4.379  2.2185 -0.9022 -1.3047
 4043TIP3    H233545   0.058   5.887   4.367 -0.2246  2.9755  0.6965
 4044TIP3   OH233546   4.741   3.473   1.080  0.0218 -0.2873  0.0012
 4044TIP3    H133547   4.803   3.399   1.078 -0.8757 -1.0762  0.4853
 4044TIP3    H233548   4.796   3.551   1.073  0.9301 -1.0192 -1.8871
 4045TIP3   OH233549   4.520   4.847  17.157 -0.4412 -0.3319  0.0574
 4045TIP3    H133550   4.529   4.916  17.222  0.9366 -0.8200  0.4181
 4045TIP3    H233551   4.437   4.866  17.113 -0.6538  0.8674  0.9291
 4046TIP3   OH233552   1.063   5.760  12.156 -0.0818 -0.1582  0.1421
 4046TIP3    H133553   1.042   5.775  12.064 -0.4815 -0.6635  0.1468
 4046TIP3    H233554   1.146   5.806  12.169 -1.1355  1.8740  0.1317
 4047TIP3   OH233555   3.594   3.806  11.609 -0.6101 -0.1954  0.0825
 4047TIP3    H133556   3.641   3.888  11.602 -0.5443 -0.3074 -0.8332
 4047TIP3    H233557   3.658   3.739  11.587 -1.1755 -0.3510 -1.1514
 4048TIP3   OH233558   4.625   6.161   3.334  0.2478  0.0721  0.2201
 4048TIP3    H133559   4.624   6.089   3.397  1.8013 -0.3736 -0.2268
 4048TIP3    H233560   4.685   6.132   3.265 -0.2818  1.1606 -0.7380
 4049TIP3   OH233561   5.878   5.325   0.857  0.3949 -0.2721  0.0738
 4049TIP3    H133562   5.892   5.236   0.824  1.4600 -0.5699  1.2399
 4049TIP3    H233563   5.783   5.330   0.871  0.5679 -2.2815  2.7161
 4050TIP3   OH233564   5.086   0.674   4.001 -0.0836 -0.5136 -0.1855
 4050TIP3    H133565   5.091   0.580   4.022  1.1293 -0.1934  1.1232
 4050TIP3    H233566   5.156   0.687   3.937  0.5021 -0.3122  0.4827
 4051TIP3   OH233567   6.573   5.489   1.412 -0.6578  0.1638 -0.2681
 4051TIP3    H133568   6.630   5.462   1.340  0.2261  1.2010  0.0071
 4051TIP3    H233569   6.631   5.538   1.470 -1.0105 -1.7986  1.8763
 4052TIP3   OH233570   6.800   2.228   5.759 -0.9625  0.0978 -0.1180
 4052TIP3    H133571   6.727   2.283   5.786 -0.5362  0.0815  1.1308
 4052TIP3    H233572   6.878   2.271   5.795 -0.6305 -1.3416  0.9963
 4053TIP3   OH233573   2.816   6.303  16.152 -0.2769  0.6928  0.4863
 4053TIP3    H133574   2.837   6.267  16.238 -3.0893 -1.4246  0.4166
 4053TIP3    H233575   2.846   6.237  16.090 -1.1788  0.6687  0.0587
 4054TIP3   OH233576   1.582   4.554  11.780 -0.1794  0.2160 -0.1686
 4054TIP3    H133577   1.600   4.464  11.753  0.6396  0.1601  0.4995
 4054TIP3    H233578   1.492   4.552  11.814  0.2115 -0.6180  0.8841
 4055TIP3   OH233579   2.515   2.699   1.980  0.0999  0.1447 -0.6572
 4055TIP3    H133580   2.456   2.751   2.035  1.4415  1.2724 -0.2480
 4055TIP3    H233581   2.502   2.733   1.892  0.1823  0.4517 -0.5540
 4056TIP3   OH233582   1.880   4.263  10.995  0.0917  0.3695  0.0419
 4056TIP3    H133583   1.903   4.188  10.941  0.0098  0.6074 -0.3353
 4056TIP3    H233584   1.963   4.306  11.013  0.1869 -0.0701  0.6494
 4057TIP3   OH233585   4.637   0.928   6.141 -0.5100  0.7838  0.3664
 4057TIP3    H133586   4.616   1.003   6.198 -0.8506  1.2474 -0.3552
 4057TIP3    H233587   4.563   0.868   6.153 -0.4396  0.7478  0.6315
 4058TIP3   OH233588   4.658   0.638   2.195  0.4673 -0.0607 -0.0678
 4058TIP3    H133589   4.682   0.547   2.212 -1.8710 -0.6234  0.5980
 4058TIP3    H233590   4.674   0.682   2.279  0.8907 -0.0050 -0.1733
 4059TIP3   OH233591   1.959   0.231  11.923  0.5412  0.1187  0.1578
 4059TIP3    H133592   1.871   0.198  11.908 -0.1555  1.7519  0.3633
 4059TIP3    H233593   1.956   0.267  12.012  0.2982  3.2768 -0.9773
 4060TIP3   OH233594   3.660   2.970  11.660  0.0270 -0.2400 -0.5361
 4060TIP3    H133595   3.639   2.961  11.567 -1.7395 -1.1865 -0.0809
 4060TIP3    H233596   3.733   3.032  11.662 -0.3637  0.3407 -2.4890
 4061TIP3   OH233597   2.073   0.072   5.139 -0.1016  0.1580 -0.0432
 4061TIP3    H133598   2.018  -0.006   5.138  0.3313 -0.1439 -1.2023
 4061TIP3    H233599   2.101   0.081   5.231 -0.3789 -0.8822  0.1472
 4062TIP3   OH233600   4.601   0.854   4.695  0.3449 -0.0792  0.0339
 4062TIP3    H133601   4.596   0.934   4.747  0.0874 -0.8913  1.3284
 4062TIP3    H233602   4.518   0.810   4.712  0.4976 -0.6373 -0.6300
 4063TIP3   OH233603   1.142   5.910  16.872 -0.5722  0.0321 -0.0146
 4063TIP3    H133604   1.184   5.869  16.947 -0.0030  0.8844  0.1478
 4063TIP3    H233605   1.048   5.905  16.891 -0.4425 -0.0204  0.6139
 4064TIP3   OH233606   6.715   1.556  16.720 -0.4916  0.4501  0.0218
 4064TIP3    H133607   6.671   1.575  16.636 -2.7622  0.9013  1.2232
 4064TIP3    H233608   6.761   1.474  16.705 -1.9762 -0.1937 -1.3068
 4065TIP3   OH233609   1.747   4.326   4.887  0.1647  0.3772 -0.5347
 4065TIP3    H133610   1.805   4.392   4.927  0.3580  0.1248 -0.3952
 4065TIP3    H233611   1.798   4.245   4.889 -0.6604 -0.1526  0.7572
 4066TIP3   OH233612   4.788   3.448  15.830 -0.2192  0.0870  0.3880
 4066TIP3    H133613   4.737   3.392  15.772 -1.3954  1.9800 -0.5130
 4066TIP3    H233614   4.785   3.404  15.915  0.2123 -1.9394 -0.5718
 4067TIP3   OH233615   0.170   3.061  16.798 -0.1485 -0.5989 -0.0566
 4067TIP3    H133616   0.078   3.036  16.807  0.0417 -1.4959 -0.5028
 4067TIP3    H233617   0.210   3.036  16.881 -0.4766  0.6359  0.4985
 4068TIP3   OH233618   1.483   3.809  12.205 -0.2593 -0.1749 -0.0762
 4068TIP3    H133619   1.469   3.761  12.124  0.4621 -0.5956  0.0334
 4068TIP3    H233620   1.397   3.844  12.228 -0.8211 -1.4882 -0.1100
 4069TIP3   OH233621   3.870   6.534   4.279 -0.4506 -0.2267 -0.2904
 4069TIP3    H133622   3.892   6.606   4.339  0.1367 -0.7776  0.1765
 4069TIP3    H233623   3.954   6.494   4.260 -0.8787 -1.4659  0.3324
 4070TIP3   OH233624   5.502   5.767   0.630 -0.6665  0.3377 -0.5694
 4070TIP3    H133625   5.408   5.784   0.625 -0.5634  1.6333  1.1720
 4070TIP3    H233626   5.538   5.844   0.673  1.2733  0.0387 -1.5441
 4071TIP3   OH233627   0.640   0.583  13.410  0.4321  0.3409  0.3173
 4071TIP3    H133628   0.596   0.668  13.410 -0.5049 -0.1289  0.6131
 4071TIP3    H233629   0.577   0.524  13.451  0.1135 -0.9967 -1.9797
 4072TIP3   OH233630   4.764   4.639  14.423 -0.0349  0.2084  0.2562
 4072TIP3    H133631   4.748   4.718  14.371 -0.4146 -0.4917 -0.7412
 4072TIP3    H233632   4.691   4.581  14.401  1.4583 -1.3557 -0.9559
 4073TIP3   OH233633   5.999   5.415   1.087  0.7716 -0.4753 -0.9162
 4073TIP3    H133634   5.983   5.340   1.144  0.0405 -0.1812 -0.7123
 4073TIP3    H233635   5.986   5.382   0.999 -0.2384 -0.4488 -0.7965
 4074TIP3   OH233636   1.539   1.884  14.140 -0.3469 -0.0087 -0.6423
 4074TIP3    H133637   1.560   1.848  14.226  0.5718  1.4417 -0.2420
 4074TIP3    H233638   1.444   1.898  14.143 -0.5546 -1.3415 -0.4236
 4075TIP3   OH233639   2.799   2.520  15.429  0.3623  0.0734  0.4581
 4075TIP3    H133640   2.755   2.435  15.435  0.5660 -0.0102  0.7664
 4075TIP3    H233641   2.824   2.541  15.519  2.4793 -0.7010  0.0986
 4076TIP3   OH233642   1.927   6.557   0.804  0.3187 -0.1454  0.5583
 4076TIP3    H133643   1.992   6.614   0.845 -2.5457  1.2754  3.5988
 4076TIP3    H233644   1.894   6.608   0.731  0.4678  0.4585  0.9013
 4077TIP3   OH233645   3.059   6.752  14.212  0.1195  0.3544  0.2538
 4077TIP3    H133646   3.006   6.799  14.147 -0.7393  0.0221  0.7007
 4077TIP3    H233647   3.135   6.808  14.226 -0.6984  1.4440  0.4909
 4078TIP3   OH233648   6.674   2.554   0.074  0.1056  0.6659 -0.6208
 4078TIP3    H133649   6.633   2.471   0.050 -0.3693  1.4218 -2.5271
 4078TIP3    H233650   6.764   2.529   0.097 -0.6541 -0.6578  1.1773
 4079TIP3   OH233651   2.832   6.635   2.008 -0.5807 -0.0033 -0.0259
 4079TIP3    H133652   2.803   6.592   2.089  0.4477 -0.3133  0.1883
 4079TIP3    H233653   2.866   6.720   2.036 -0.6923  0.0975 -0.1951
 4080TIP3   OH233654   4.563   1.704   4.602  0.2693 -0.5816  0.1780
 4080TIP3    H133655   4.646   1.707   4.554  1.0634  1.4477  1.5277
 4080TIP3    H233656   4.507   1.768   4.559  0.5802  0.4000  1.1670
 4081TIP3   OH233657   6.344   5.169   0.674 -0.8329  0.5633  0.2504
 4081TIP3    H133658   6.332   5.257   0.641  2.2655  0.9864 -0.0410
 4081TIP3    H233659   6.295   5.113   0.613 -2.0007  1.9557 -0.1355
 4082TIP3   OH233660   5.663   4.295   4.171  0.4565 -0.1541  0.4717
 4082TIP3    H133661   5.670   4.335   4.084  0.5778  0.8923  0.9500
 4082TIP3    H233662   5.664   4.369   4.232  1.3800 -0.9173  1.4242
 4083TIP3   OH233663   0.635   6.130  13.464  0.0531  0.0687  0.4802
 4083TIP3    H133664   0.696   6.116  13.537  0.0871  1.6898  0.8129
 4083TIP3    H233665   0.549   6.109  13.501 -0.0142  1.5450  1.2456
 4084TIP3   OH233666   2.028   5.948   0.967  0.4452 -0.3758 -0.1961
 4084TIP3    H133667   1.945   5.921   0.928  0.4588  1.1034 -1.3365
 4084TIP3    H233668   2.007   6.027   1.016  1.2914  0.4874 -1.1645
 4085TIP3   OH233669   6.522   1.483  16.006  0.2818  1.1456 -0.1058
 4085TIP3    H133670   6.589   1.420  16.034  0.0855 -1.2358 -4.2130
 4085TIP3    H233671   6.564   1.568  16.017  1.6598  0.2305  2.9611
 4086TIP3   OH233672   3.508   2.081  14.238 -0.7936  0.0097  0.3247
 4086TIP3    H133673   3.447   2.019  14.197 -0.7794  0.8557 -1.0304
 4086TIP3    H233674   3.571   2.025  14.285 -1.0636 -0.9764 -0.4511
 4087TIP3   OH233675   4.139   3.668   0.256 -0.1894  0.0307  0.1101
 4087TIP3    H133676   4.197   3.684   0.182  1.1534 -0.2320  1.0565
 4087TIP3    H233677   4.074   3.605   0.223 -0.3307  0.8110 -1.1485
 4088TIP3   OH233678   1.117   4.022   1.916  0.5580  0.1921 -0.1161
 4088TIP3    H133679   1.059   4.033   1.992 -2.4152 -0.0062 -2.1919
 4088TIP3    H233680   1.058   4.013   1.842  3.3270  1.1383 -2.6320
 4089TIP3   OH233681   6.647   0.665  11.406 -0.3380  0.5586 -0.1268
 4089TIP3    H133682   6.564   0.670  11.359 -0.8045  1.1567  0.7378
 4089TIP3    H233683   6.637   0.727  11.479  0.0828 -0.8548  1.1851
 4090TIP3   OH233684   2.609   6.348  13.066  0.0459 -0.1006 -0.1717
 4090TIP3    H133685   2.677   6.286  13.039 -0.3231 -0.3706 -0.4974
 4090TIP3    H233686   2.642   6.387  13.147 -0.3156 -1.7100  0.7893
 4091TIP3   OH233687   6.665   5.900  14.231 -0.1507  0.1342 -0.3305
 4091TIP3    H133688   6.753   5.876  14.262 -0.6289 -1.0556  0.1796
 4091TIP3    H233689   6.629   5.954  14.302  0.4391  1.3252 -0.8964
 4092TIP3   OH233690   1.877   3.456  12.965  0.2384  0.4523  0.1875
 4092TIP3    H133691   1.953   3.421  13.012  0.5221  1.1723  0.2621
 4092TIP3    H233692   1.851   3.384  12.906 -0.1204 -0.4653  1.4094
 4093TIP3   OH233693   2.343   5.514   2.438  0.0245 -0.0767 -0.3920
 4093TIP3    H133694   2.356   5.420   2.441  0.1811 -0.0401  2.0062
 4093TIP3    H233695   2.251   5.525   2.414 -0.0636 -0.8496 -0.4366
 4094TIP3   OH233696   5.010   2.386   3.338 -0.0657 -0.3325  0.6225
 4094TIP3    H133697   4.999   2.292   3.322 -0.5411 -0.1928  0.0801
 4094TIP3    H233698   4.998   2.396   3.432  0.5688 -0.8927  0.7672
 4095TIP3   OH233699   5.666   3.731  15.160 -0.2904 -0.3726 -0.0795
 4095TIP3    H133700   5.624   3.721  15.245  0.4664  0.6598  0.4422
 4095TIP3    H233701   5.755   3.760  15.180 -0.1064 -0.0853 -1.2172
 4096TIP3   OH233702   5.711   1.832  13.070 -0.2820  0.6065  0.2118
 4096TIP3    H133703   5.662   1.914  13.071  1.7372  1.8662  0.6164
 4096TIP3    H233704   5.762   1.835  12.989  1.7406  0.9990  1.4430
 4097TIP3   OH233705   1.856   2.048   3.543  0.0096  0.2885 -0.6929
 4097TIP3    H133706   1.794   2.116   3.570 -1.7646 -1.0523 -1.1705
 4097TIP3    H233707   1.859   2.055   3.447 -0.2823 -0.3454 -0.7589
 4098TIP3   OH233708   5.375   3.699  13.531  0.1671 -1.0011 -0.2115
 4098TIP3    H133709   5.416   3.687  13.617  0.4697  0.2072 -0.1726
 4098TIP3    H233710   5.329   3.616  13.515  1.5601 -1.9174  0.3176
 4099TIP3   OH233711   2.679   3.837   0.927 -0.2961 -0.0935 -0.0091
 4099TIP3    H133712   2.694   3.756   0.878  3.9046  0.4827 -0.0465
 4099TIP3    H233713   2.760   3.886   0.918 -1.8007  3.1188  2.0035
 4100TIP3   OH233714   2.162   5.070   2.582  0.0102  0.3430  0.7339
 4100TIP3    H133715   2.185   4.978   2.583 -0.2147  0.2379 -1.0145
 4100TIP3    H233716   2.087   5.076   2.524  0.8173  1.7835 -0.2300
 4101TIP3   OH233717   0.284   6.461   3.118  0.6737  0.1613  0.2524
 4101TIP3    H133718   0.349   6.412   3.067  1.5332  0.9548  0.5519
 4101TIP3    H233719   0.259   6.534   3.061 -1.2325 -1.0301 -0.5344
 4102TIP3   OH233720   3.626   0.420  14.491 -0.1716  0.0068  0.7155
 4102TIP3    H133721   3.562   0.370  14.440 -0.4488  1.3819 -0.3581
 4102TIP3    H233722   3.613   0.390  14.581 -1.3515 -0.7625  0.3261
 4103TIP3   OH233723   4.125   0.667   5.416  0.3652  0.0056  0.3956
 4103TIP3    H133724   4.162   0.622   5.340 -1.5878 -0.0925 -0.5827
 4103TIP3    H233725   4.200   0.690   5.470  1.8248 -0.0497 -1.4951
 4104TIP3   OH233726   0.970   4.554  15.636  0.5215  0.1670  0.3819
 4104TIP3    H133727   1.043   4.533  15.578  0.3726 -0.9541  0.5742
 4104TIP3    H233728   0.999   4.525  15.723  0.5445  1.3698  0.7999
 4105TIP3   OH233729   3.526   2.931  15.101 -0.1338 -0.2295 -0.2951
 4105TIP3    H133730   3.526   3.013  15.051  2.0340  0.5087  0.7699
 4105TIP3    H233731   3.580   2.871  15.049  1.3514  0.2426  0.6512
 4106TIP3   OH233732   6.518   1.318  16.609  0.3007 -0.6033  0.0955
 4106TIP3    H133733   6.597   1.272  16.635  1.2115  0.7542 -0.1267
 4106TIP3    H233734   6.473   1.338  16.691  0.2173 -1.3125  0.2257
 4107TIP3   OH233735   6.784   4.307   3.645 -0.0352  0.2128  0.4818
 4107TIP3    H133736   6.835   4.227   3.632 -0.4022  0.1716 -0.8256
 4107TIP3    H233737   6.742   4.295   3.730  1.8313  0.1014  1.4213
 4108TIP3   OH233738   6.406   1.017  12.440  0.1187 -0.2353 -0.5057
 4108TIP3    H133739   6.318   1.040  12.409  0.6017  2.8869  0.0887
 4108TIP3    H233740   6.417   1.070  12.519  2.1318 -1.4903  0.1209
 4109TIP3   OH233741   1.275   6.330  12.957 -0.3115 -0.1281 -0.0341
 4109TIP3    H133742   1.358   6.284  12.972 -0.0311 -0.2785 -1.8935
 4109TIP3    H233743   1.301   6.419  12.934 -0.6572 -0.1701 -0.6032
 4110TIP3   OH233744   2.698   1.243   3.780 -0.2909 -0.4821  0.2368
 4110TIP3    H133745   2.632   1.228   3.713  2.6976 -1.6532 -2.7409
 4110TIP3    H233746   2.709   1.338   3.783  0.1264 -0.4303 -1.6886
 4111TIP3   OH233747   5.411   3.463  14.167 -0.0774  0.3064  0.3343
 4111TIP3    H133748   5.338   3.463  14.105 -2.3258  1.1265  2.8060
 4111TIP3    H233749   5.438   3.371  14.172  0.7209  0.2985 -2.3019
 4112TIP3   OH233750   1.875   5.765   0.115  0.0489  0.4942 -0.2428
 4112TIP3    H133751   1.785   5.740   0.094  0.0922  0.0584  0.0875
 4112TIP3    H233752   1.869   5.801   0.204  0.6463 -2.1532  0.9441
 4113TIP3   OH233753   0.551   4.126   1.725  0.4683 -0.3750  0.3023
 4113TIP3    H133754   0.562   4.043   1.680  0.9663 -0.2528  0.1950
 4113TIP3    H233755   0.632   4.174   1.709 -0.4775  0.8535 -1.1528
 4114TIP3   OH233756   3.384   1.557   1.928  0.3213 -0.2899 -0.0066
 4114TIP3    H133757   3.361   1.548   2.021 -1.1617 -0.2675 -0.3560
 4114TIP3    H233758   3.302   1.546   1.881  0.6466  1.9092 -1.2276
 4115TIP3   OH233759   2.299   5.409  15.939  0.8014  0.2521 -0.8288
 4115TIP3    H133760   2.375   5.410  15.882  1.3070  1.8367 -0.1823
 4115TIP3    H233761   2.316   5.339  16.001  0.9259 -0.5113 -1.6967
 4116TIP3   OH233762   4.191   5.251  15.404  0.1341  0.3454 -0.1709
 4116TIP3    H133763   4.157   5.322  15.349 -0.3018  0.1744 -0.1264
 4116TIP3    H233764   4.157   5.171  15.363 -1.6101  0.2811  1.2935
 4117TIP3   OH233765   0.112   5.202   5.612 -0.0638  0.3901 -0.3666
 4117TIP3    H133766   0.160   5.238   5.687  1.1774  0.2807 -1.0812
 4117TIP3    H233767   0.052   5.138   5.651  0.9903 -0.1102  0.4828
 4118TIP3   OH233768   0.905   5.100   2.571 -0.4359 -0.0171  0.4959
 4118TIP3    H133769   0.860   5.110   2.488  0.5897 -2.1552 -0.4069
 4118TIP3    H233770   0.835   5.089   2.636 -1.2372 -0.1089 -0.3753
 4119TIP3   OH233771   1.043   2.719   3.852  0.7968  0.1841 -0.7133
 4119TIP3    H133772   1.119   2.769   3.883  1.2717 -1.0573  0.2214
 4119TIP3    H233773   1.077   2.631   3.836 -0.5751 -0.5822  0.3899
 4120TIP3   OH233774   2.779   2.093   5.513  0.5291  0.5104  0.9094
 4120TIP3    H133775   2.792   2.185   5.536 -0.8765  0.8725  0.3598
 4120TIP3    H233776   2.709   2.094   5.448  0.9391 -0.9045  0.4017
 4121TIP3   OH233777   0.268   5.944  10.873 -0.1059  0.4571 -0.6743
 4121TIP3    H133778   0.252   5.991  10.955 -0.2955  0.4353 -0.6992
 4121TIP3    H233779   0.243   6.005  10.804  1.5049  1.0577 -0.7731
 4122TIP3   OH233780   4.739   0.449  14.256  0.7054  0.2018  0.1184
 4122TIP3    H133781   4.724   0.356  14.270  0.2776 -0.1340 -2.1315
 4122TIP3    H233782   4.665   0.492  14.299  0.8245 -0.4965  1.0421
 4123TIP3   OH233783   3.927   3.869   1.025 -0.9628 -0.4178 -0.8828
 4123TIP3    H133784   3.921   3.951   0.976  1.4917  0.4093  0.0411
 4123TIP3    H233785   4.004   3.825   0.988 -0.5101 -0.9031  0.5910
 4124TIP3   OH233786   2.617   4.135  12.956 -0.1333  0.3808 -0.3356
 4124TIP3    H133787   2.540   4.100  12.912 -0.4985  0.2323  0.4172
 4124TIP3    H233788   2.678   4.155  12.884  0.3607 -2.3963 -0.7965
 4125TIP3   OH233789   2.565   6.661   0.124  0.2745  0.8988 -0.2108
 4125TIP3    H133790   2.570   6.725   0.053 -0.8256 -1.1516 -2.2890
 4125TIP3    H233791   2.618   6.587   0.093 -2.8678 -1.4049 -0.5424
 4126TIP3   OH233792   4.729   6.786  13.944 -0.3167  0.8040 -0.1062
 4126TIP3    H133793   4.766   6.755  14.027  1.3453 -0.2797 -1.1944
 4126TIP3    H233794   4.649   6.736  13.933 -0.9203  1.4448  1.1395
 4127TIP3   OH233795   0.432   1.892   3.398  0.0546 -0.6174 -0.0151
 4127TIP3    H133796   0.387   1.812   3.371  0.7850 -1.2407  0.5527
 4127TIP3    H233797   0.450   1.879   3.491 -2.8248  1.6583  1.0355
 4128TIP3   OH233798   4.347   1.491   0.274  0.0662  0.3401  0.2598
 4128TIP3    H133799   4.255   1.483   0.247 -0.4042 -0.3978  1.9340
 4128TIP3    H233800   4.344   1.486   0.369  1.8268  0.6621  0.3577
 4129TIP3   OH233801   2.887   2.109   4.195  0.5340  0.0665  0.4580
 4129TIP3    H133802   2.841   2.037   4.238  3.4500 -1.5359  1.1521
 4129TIP3    H233803   2.961   2.068   4.151  0.0556  2.1872 -2.6850
 4130TIP3   OH233804   4.996   4.346   0.821 -0.1395  0.2024  0.1490
 4130TIP3    H133805   4.904   4.320   0.816  0.3431 -1.6180 -0.0393
 4130TIP3    H233806   5.029   4.334   0.732  0.2432  1.0611  0.1610
 4131TIP3   OH233807   3.574   4.034  15.978  0.1474 -0.1153 -0.3554
 4131TIP3    H133808   3.529   4.095  15.918 -0.2487  0.6343  0.6752
 4131TIP3    H233809   3.550   3.947  15.945  0.2000  0.2744 -1.4721
 4132TIP3   OH233810   2.500   1.572   2.869  0.3267  1.0541 -0.5865
 4132TIP3    H133811   2.415   1.617   2.867  0.0849  0.9215  2.2550
 4132TIP3    H233812   2.479   1.481   2.891  1.1227  0.6373 -1.4903
 4133TIP3   OH233813   1.478   0.516  11.260 -0.0162 -0.6262  0.2715
 4133TIP3    H133814   1.427   0.552  11.332 -0.5897 -1.4938  0.3157
 4133TIP3    H233815   1.423   0.531  11.183 -0.8519 -2.4997  0.4603
 4134TIP3   OH233816   5.102   0.365  16.733  0.0056  0.2442  0.0888
 4134TIP3    H133817   5.135   0.329  16.815  1.4517 -2.9337 -1.7274
 4134TIP3    H233818   5.018   0.405  16.756  1.1347  1.0148  3.3514
 4135TIP3   OH233819   5.897   1.741   2.131 -0.2747  0.3289 -0.2492
 4135TIP3    H133820   5.861   1.702   2.051  1.6376 -1.7306 -0.1992
 4135TIP3    H233821   5.986   1.767   2.107  0.0706  0.3556  1.0072
 4136TIP3   OH233822   2.262   5.775   1.247  0.2288 -0.1638 -0.6157
 4136TIP3    H133823   2.211   5.848   1.283 -1.3090 -1.2234 -0.5494
 4136TIP3    H233824   2.323   5.751   1.318 -0.3271  0.0676 -0.0488
 4137TIP3   OH233825   1.305   5.808  15.725  0.0506  0.5980 -0.2677
 4137TIP3    H133826   1.312   5.727  15.674  2.0072 -0.8083  1.9827
 4137TIP3    H233827   1.230   5.794  15.783 -0.9349  1.3618 -1.3058
 4138TIP3   OH233828   0.828   1.062  12.638  0.0403 -0.2450 -0.4848
 4138TIP3    H133829   0.752   1.026  12.592 -0.4351 -0.7338  0.6558
 4138TIP3    H233830   0.826   1.155  12.618 -1.5426 -0.0453  0.4434
 4139TIP3   OH233831   0.645   3.876  12.367 -0.6594  0.0734 -0.3522
 4139TIP3    H133832   0.601   3.843  12.446  1.0621 -1.5703 -0.0092
 4139TIP3    H233833   0.704   3.805  12.341 -0.1612  1.1431 -2.3225
 4140TIP3   OH233834   1.481   6.242   3.752  0.2357 -0.1375 -0.0778
 4140TIP3    H133835   1.387   6.260   3.754 -0.1620 -1.9281 -0.6040
 4140TIP3    H233836   1.487   6.150   3.726  2.1384 -0.0988  0.0864
 4141TIP3   OH233837   3.460   3.455   2.360 -0.0865  0.5117 -0.5874
 4141TIP3    H133838   3.416   3.387   2.309  0.6449 -0.8261  0.5354
 4141TIP3    H233839   3.553   3.432   2.357 -0.2170 -1.7131  4.1468
 4142TIP3   OH233840   5.040   2.709  16.214  0.1313  0.0830 -0.1534
 4142TIP3    H133841   4.962   2.692  16.161  0.5233 -0.9785 -0.4168
 4142TIP3    H233842   5.057   2.802  16.203 -1.2736  0.3989  0.1587
 4143TIP3   OH233843   2.749   5.550  11.695  0.1994 -0.1728  0.3455
 4143TIP3    H133844   2.732   5.597  11.777  0.7543  0.9257 -0.1446
 4143TIP3    H233845   2.828   5.499  11.713 -0.3232 -0.8215  0.8388
 4144TIP3   OH233846   4.027   0.335   1.503  0.6377  0.4242 -0.6049
 4144TIP3    H133847   4.110   0.295   1.481  1.4855  1.0363  1.2760
 4144TIP3    H233848   4.046   0.429   1.508 -0.1212  0.5574 -0.0317
 4145TIP3   OH233849   6.154   4.618   3.412 -0.0882 -0.2416 -0.0458
 4145TIP3    H133850   6.107   4.700   3.424 -0.6353 -0.6303  0.5493
 4145TIP3    H233851   6.105   4.555   3.465  0.1455 -1.0163 -0.7333
 4146TIP3   OH233852   6.289   5.383  17.009  0.2738 -0.5847 -0.2317
 4146TIP3    H133853   6.261   5.359  17.098  2.3906 -2.0840  0.1164
 4146TIP3    H233854   6.241   5.324  16.952 -0.2333 -0.4104  0.0135
 4147TIP3   OH233855   2.377   6.415  11.303 -0.5288  0.0508  0.1276
 4147TIP3    H133856   2.363   6.400  11.397 -0.0511 -0.6815  0.0874
 4147TIP3    H233857   2.472   6.409  11.292 -0.5347  0.6478 -0.3236
 4148TIP3   OH233858   3.005   4.516   3.010  0.5072 -0.0403  0.0774
 4148TIP3    H133859   3.044   4.494   3.095  3.1724 -0.7363 -1.2145
 4148TIP3    H233860   3.027   4.608   2.996  0.8070 -0.1573 -0.2236
 4149TIP3   OH233861   5.243   1.020   5.169  0.4372  0.4147 -0.2100
 4149TIP3    H133862   5.191   1.098   5.147  3.2968  2.0657 -1.5928
 4149TIP3    H233863   5.241   1.016   5.265 -1.3382  0.9806 -0.1840
 4150TIP3   OH233864   3.509   6.078  12.981  0.6809  0.0312 -0.2366
 4150TIP3    H133865   3.421   6.046  12.963  0.8616 -0.6094 -0.0016
 4150TIP3    H233866   3.503   6.114  13.070  0.8260 -0.6604  0.0584
 4151TIP3   OH233867   4.502   4.841  14.491  0.0111 -0.3004 -0.3745
 4151TIP3    H133868   4.490   4.889  14.410 -0.3762  0.6714  0.2417
 4151TIP3    H233869   4.468   4.753  14.473 -3.7986  0.9389 -0.1436
 4152TIP3   OH233870   0.673   1.684   4.948  0.5315 -0.4837 -0.3479
 4152TIP3    H133871   0.718   1.609   4.908 -0.8813 -2.4133  1.4798
 4152TIP3    H233872   0.581   1.657   4.953 -0.0527  1.4649  0.2325
 4153TIP3   OH233873   3.874   5.853  11.845 -0.3753 -0.2887 -0.4794
 4153TIP3    H133874   3.926   5.898  11.779 -2.1473 -1.2871 -2.6888
 4153TIP3    H233875   3.807   5.917  11.871  0.5707  0.2482  0.7329
 4154TIP3   OH233876   4.430   1.677  17.160  0.1821 -0.3222 -0.2226
 4154TIP3    H133877   4.411   1.610  17.094  1.2585 -0.3314 -0.5414
 4154TIP3    H233878   4.343   1.706  17.189 -0.3117 -1.2656 -0.6669
 4155TIP3   OH233879   4.693   5.401  15.116 -0.0953 -0.0617 -0.6610
 4155TIP3    H133880   4.739   5.432  15.194 -0.2879 -0.1419 -0.5129
 4155TIP3    H233881   4.761   5.385  15.052 -0.0548  1.7523 -1.1314
 4156TIP3   OH233882   3.653   0.996  14.853 -0.4460 -0.4727 -0.2519
 4156TIP3    H133883   3.594   0.952  14.914  0.6917 -1.6916  0.0105
 4156TIP3    H233884   3.712   1.047  14.909 -2.4801  2.5018 -0.5806
 4157TIP3   OH233885   5.959   4.286  11.998 -0.3030  0.0687 -0.1749
 4157TIP3    H133886   5.886   4.286  11.936  0.4702  1.4651 -1.1307
 4157TIP3    H233887   6.016   4.356  11.968  0.5717  0.1574  1.5854
 4158TIP3   OH233888   5.117   6.252  16.844  0.2046 -0.1839 -0.2004
 4158TIP3    H133889   5.213   6.252  16.843  0.2336  1.2680 -0.1280
 4158TIP3    H233890   5.093   6.160  16.846  1.6138 -0.5700  0.4620
 4159TIP3   OH233891   2.460   4.874  15.571 -0.1681  0.0320 -0.1582
 4159TIP3    H133892   2.469   4.902  15.661 -1.8433 -0.7839  0.3194
 4159TIP3    H233893   2.385   4.924  15.538 -1.2655 -1.5848 -0.2250
 4160TIP3   OH233894   0.836   2.990  12.755  0.0394 -0.3265  0.1009
 4160TIP3    H133895   0.848   2.994  12.850  1.2735 -0.4123 -0.0315
 4160TIP3    H233896   0.924   2.977  12.720 -0.1811  1.2208 -1.1513
 4161TIP3   OH233897   2.920   1.805   3.317 -0.7768 -0.1916  0.1249
 4161TIP3    H133898   2.832   1.843   3.314 -0.4443  0.5406 -0.5231
 4161TIP3    H233899   2.978   1.881   3.325 -0.1859 -0.6629  0.3589
 4162TIP3   OH233900   1.882   4.100   0.386 -0.3449 -0.7235 -0.6625
 4162TIP3    H133901   1.827   4.123   0.461 -2.8502 -1.1293 -2.2633
 4162TIP3    H233902   1.903   4.007   0.398 -2.2699 -1.2761 -1.3202
 4163TIP3   OH233903   6.050   6.316  15.582 -0.2231 -0.8059  0.1718
 4163TIP3    H133904   6.069   6.234  15.628  1.3644 -0.1612  0.7454
 4163TIP3    H233905   6.108   6.314  15.506  1.6413  0.8059  1.4620
 4164TIP3   OH233906   0.152   0.578   2.016 -0.3491  0.4661  0.1851
 4164TIP3    H133907   0.060   0.586   1.991 -0.0246  0.5349 -1.0754
 4164TIP3    H233908   0.170   0.485   2.010  0.0585  0.6130 -1.1428
 4165TIP3   OH233909   2.149   0.034  16.028  0.0789 -0.4045  0.0360
 4165TIP3    H133910   2.190  -0.036  15.977 -1.5269 -0.8982 -0.6405
 4165TIP3    H233911   2.072  -0.007  16.068 -1.6519  1.2537 -1.4338
 4166TIP3   OH233912   0.352   4.951  14.453 -0.2691  0.4409  0.0149
 4166TIP3    H133913   0.257   4.942  14.448 -0.3618 -1.3351  2.5986
 4166TIP3    H233914   0.386   4.879  14.400 -0.4269  0.2975  0.1058
 4167TIP3   OH233915   3.451   2.617   1.593  0.3041 -0.2041 -0.1370
 4167TIP3    H133916   3.423   2.572   1.672  0.6748  0.1150  0.1761
 4167TIP3    H233917   3.380   2.678   1.574  1.1397  1.2322  1.1530
 4168TIP3   OH233918   6.667   6.358   2.638 -0.7237  0.5303 -0.2913
 4168TIP3    H133919   6.683   6.401   2.722 -2.3011  0.0547  0.2900
 4168TIP3    H233920   6.586   6.397   2.605  1.1964  2.6421 -2.9495
 4169TIP3   OH233921   0.736   5.275  16.725 -0.0960  0.8099  0.1473
 4169TIP3    H133922   0.778   5.282  16.811 -1.1831  0.4181  0.7318
 4169TIP3    H233923   0.762   5.354  16.679 -0.9528  1.9433  1.5162
 4170TIP3   OH233924   4.617   3.430   2.894 -0.0705 -0.2666 -0.1866
 4170TIP3    H133925   4.596   3.337   2.899 -0.1575 -0.2003  0.9829
 4170TIP3    H233926   4.569   3.469   2.967 -0.5928  0.8115 -1.0785
 4171TIP3   OH233927   3.248   6.151  15.324 -0.0061 -0.2081 -0.3844
 4171TIP3    H133928   3.217   6.121  15.409  2.4930 -1.7015  0.0958
 4171TIP3    H233929   3.218   6.242  15.318 -1.3221 -0.4684  1.5008
 4172TIP3   OH233930   2.352   0.823   3.105 -1.1386  0.3652 -0.1862
 4172TIP3    H133931   2.369   0.730   3.087 -0.2518  0.6488 -0.9389
 4172TIP3    H233932   2.438   0.858   3.131 -0.7933  1.5542 -2.6394
 4173TIP3   OH233933   2.905   5.964  12.224  0.4324 -0.4720 -0.0037
 4173TIP3    H133934   2.909   6.050  12.264  3.1253 -0.4781 -0.0950
 4173TIP3    H233935   2.969   5.912  12.272 -0.9992 -2.4034 -0.0635
 4174TIP3   OH233936   0.594   4.902  13.926 -0.1508  0.2711 -0.3684
 4174TIP3    H133937   0.625   4.826  13.877 -0.5864 -0.5298  0.5581
 4174TIP3    H233938   0.514   4.930  13.880 -0.2975 -0.1843 -0.3973
 4175TIP3   OH233939   2.214   1.221   3.126 -0.5338  0.6045 -0.1233
 4175TIP3    H133940   2.161   1.150   3.090 -0.3011 -0.6990  1.9297
 4175TIP3    H233941   2.233   1.194   3.216  3.6930  0.8960 -0.7033
 4176TIP3   OH233942   1.751   4.204   2.687  0.4058  0.1810 -0.3933
 4176TIP3    H133943   1.656   4.214   2.685  0.4580  1.0131 -3.0706
 4176TIP3    H233944   1.765   4.109   2.685 -0.3777  0.0614 -0.3450
 4177TIP3   OH233945   4.713   2.880  16.281  0.5130 -0.1692 -0.0009
 4177TIP3    H133946   4.736   2.835  16.362 -0.6344 -1.3351 -0.2912
 4177TIP3    H233947   4.693   2.810  16.219 -0.5541  0.7247 -0.7069
 4178TIP3   OH233948   1.826   2.169  14.021  0.3404  0.0757 -0.1286
 4178TIP3    H133949   1.756   2.118  13.981  0.1096 -0.9133  1.4291
 4178TIP3    H233950   1.781   2.223  14.087  1.0733 -1.1838  1.4731
 4179TIP3   OH233951   6.499   2.033  16.049 -0.5151 -0.3364  0.0687
 4179TIP3    H133952   6.436   1.961  16.059 -2.5803  1.4230  0.4871
 4179TIP3    H233953   6.485   2.087  16.127 -0.1355  1.3268 -0.9915
 4180TIP3   OH233954   5.709   1.559   5.982  0.4416 -0.3476  0.0639
 4180TIP3    H133955   5.649   1.484   5.976  0.9695 -0.7769  0.0098
 4180TIP3    H233956   5.785   1.532   5.930  0.6243  0.2439  0.0194
 4181TIP3   OH233957   4.521   0.315   5.335  0.0437 -0.5997  0.2525
 4181TIP3    H133958   4.429   0.338   5.348 -0.0169  1.2728 -2.6287
 4181TIP3    H233959   4.521   0.219   5.331 -1.8170 -0.6400  0.1713
 4182TIP3   OH233960   1.388   4.784   5.491  0.7066 -0.0062 -0.1536
 4182TIP3    H133961   1.419   4.874   5.485  1.1952 -0.0564  1.2876
 4182TIP3    H233962   1.455   4.732   5.447  0.7737  0.2570 -0.3616
 4183TIP3   OH233963   4.264   1.705  11.440 -0.3982  0.3255  0.3597
 4183TIP3    H133964   4.237   1.636  11.500  0.4792 -0.0924  0.2847
 4183TIP3    H233965   4.331   1.665  11.385 -1.1971  0.6962 -0.9272
 4184TIP3   OH233966   2.030   5.683  12.892 -0.3078  0.8118 -0.3154
 4184TIP3    H133967   2.122   5.656  12.888 -0.0117  1.9127 -1.9211
 4184TIP3    H233968   2.014   5.699  12.985  0.7672 -0.5367  0.1377
 4185TIP3   OH233969   3.978   3.235   0.932  0.4919 -0.7378 -0.2211
 4185TIP3    H133970   3.912   3.168   0.911 -1.6461  0.0389  3.2544
 4185TIP3    H233971   3.989   3.283   0.850 -2.8424 -1.3493 -1.2005
 4186TIP3   OH233972   3.842   5.493  17.039 -0.3989  0.0098  0.0370
 4186TIP3    H133973   3.812   5.468  17.127  1.5858  1.7588  1.3183
 4186TIP3    H233974   3.889   5.416  17.007  0.5689 -0.0204  1.4025
 4187TIP3   OH233975   0.873   2.197   0.425  0.1091  0.0971  0.1833
 4187TIP3    H133976   0.961   2.224   0.397 -0.0456 -0.8780 -1.3490
 4187TIP3    H233977   0.815   2.238   0.361 -0.4428 -0.4538  0.3279
 4188TIP3   OH233978   0.632   6.092   5.313  0.0078 -0.4131  0.3676
 4188TIP3    H133979   0.662   6.102   5.404  1.0433  0.3077 -0.0493
 4188TIP3    H233980   0.590   6.176   5.293  2.3380  0.5487 -0.7519
 4189TIP3   OH233981   4.001   1.070   5.440  0.2063 -0.7305  0.2348
 4189TIP3    H133982   4.018   1.074   5.534  1.6427  2.8445  0.0064
 4189TIP3    H233983   3.907   1.084   5.432 -0.0911 -2.0445  1.1204
 4190TIP3   OH233984   4.587   5.293  13.807  0.0892  0.3177 -0.5794
 4190TIP3    H133985   4.504   5.250  13.786 -1.1489  1.8880  0.8490
 4190TIP3    H233986   4.641   5.281  13.728 -1.3606 -0.9983 -1.4272
 4191TIP3   OH233987   3.534   5.706  15.471  0.5521 -0.7190 -0.7127
 4191TIP3    H133988   3.491   5.791  15.466 -0.5718 -1.2320 -0.0536
 4191TIP3    H233989   3.462   5.643  15.478  1.3236 -1.8012 -1.9802
 4192TIP3   OH233990   1.892   5.109   2.079  0.0060  0.0238 -0.5758
 4192TIP3    H133991   1.906   5.172   2.008  0.0681  2.0476  1.1320
 4192TIP3    H233992   1.895   5.023   2.036  0.2572  1.1423 -2.9557
 4193TIP3   OH233993   5.388   0.650   5.784 -0.1437 -0.0820 -0.6925
 4193TIP3    H133994   5.438   0.569   5.773 -0.9346 -0.8257  0.9038
 4193TIP3    H233995   5.300   0.629   5.753 -0.6472 -0.2227  0.7408
 4194TIP3   OH233996   0.578   4.217   2.005  0.4760 -0.2170  0.0275
 4194TIP3    H133997   0.504   4.185   1.955  0.0297  1.2179 -0.2895
 4194TIP3    H233998   0.603   4.298   1.961  2.1630 -0.6086  0.1976
 4195TIP3   OH233999   0.536   3.920   5.819  0.0542 -0.0693  0.2415
 4195TIP3    H134000   0.628   3.946   5.813  0.4847 -1.7565 -1.1001
 4195TIP3    H234001   0.537   3.844   5.878 -0.4072 -0.3652 -0.1258
 4196TIP3   OH234002   5.559   1.105  16.643  0.0358 -0.0622 -0.2420
 4196TIP3    H134003   5.485   1.065  16.690  0.1324  0.2153  0.1498
 4196TIP3    H234004   5.632   1.101  16.706  0.9513 -2.2371 -1.3327
 4197TIP3   OH234005   6.386   3.753  17.169 -0.7397 -0.4481 -0.3349
 4197TIP3    H134006   6.357   3.844  17.174 -0.0429 -0.1362 -1.5614
 4197TIP3    H234007   6.308   3.705  17.141 -1.6000 -0.5524  1.9776
 4198TIP3   OH234008   3.777   4.896   0.937  0.2617  0.4486 -0.4464
 4198TIP3    H134009   3.856   4.843   0.952  0.4004  0.8784  0.4038
 4198TIP3    H234010   3.773   4.955   1.012 -3.4324 -2.6421  2.2058
 4199TIP3   OH234011   2.441   0.247  12.657 -0.0936 -0.2461 -0.0242
 4199TIP3    H134012   2.369   0.212  12.709  1.4878 -1.1413  1.6746
 4199TIP3    H234013   2.482   0.170  12.617  1.7570 -0.1419  1.5406
 4200TIP3   OH234014   2.713   6.038   2.001  0.5078 -0.4824 -0.2735
 4200TIP3    H134015   2.666   6.007   2.078  1.0397  0.1564  0.3182
 4200TIP3    H234016   2.655   6.017   1.928 -0.4829 -0.1628  0.3927
 4201TIP3   OH234017   2.146   5.945  12.835  0.6288  0.1269  0.2780
 4201TIP3    H134018   2.228   5.897  12.824  0.9659  0.7145  0.2205
 4201TIP3    H234019   2.159   6.027  12.789 -0.5326 -0.3867 -1.0402
 4202TIP3   OH234020   6.127   0.103  16.760 -0.6283 -0.3510  0.0608
 4202TIP3    H134021   6.113   0.138  16.847  1.3923  0.0642  0.2604
 4202TIP3    H234022   6.040   0.073  16.732 -1.3194 -0.4825  2.1756
 4203TIP3   OH234023   5.586   5.872   6.790 -0.0077  0.0909 -0.3237
 4203TIP3    H134024   5.662   5.870   6.848 -0.3250  0.0691  0.0931
 4203TIP3    H234025   5.529   5.939   6.826 -0.4759 -0.3334 -0.2619
 4204TIP3   OH234026   1.469   6.298   5.917 -0.6624 -0.3068  0.2330
 4204TIP3    H134027   1.420   6.364   5.967 -1.4469  0.2039 -1.1427
 4204TIP3    H234028   1.458   6.217   5.967 -1.1088  0.2599  1.0790
 4205TIP3   OH234029   0.981   5.892   0.921 -0.4333 -0.1029  0.4266
 4205TIP3    H134030   0.887   5.880   0.938 -1.6118  1.9317 -3.4101
 4205TIP3    H234031   0.993   5.986   0.924  0.7522 -0.1197 -2.0472
 4206TIP3   OH234032   0.298   4.716   2.102 -0.1962  0.1426 -0.2038
 4206TIP3    H134033   0.376   4.661   2.100 -1.5212 -1.8145 -1.1575
 4206TIP3    H234034   0.316   4.785   2.038  0.8673 -0.1189 -0.1979
 4207TIP3   OH234035   6.409   1.634   1.384  0.5038 -0.1871  0.0595
 4207TIP3    H134036   6.343   1.571   1.357  0.6766  0.4130 -1.9819
 4207TIP3    H234037   6.476   1.582   1.429  0.2198 -1.3248 -0.7968
 4208TIP3   OH234038   1.586   3.889  12.761 -0.1683 -0.1003 -0.1820
 4208TIP3    H134039   1.522   3.953  12.792  0.5544  0.2167  0.7136
 4208TIP3    H234040   1.542   3.804  12.772  0.3739 -0.1116  2.7882
 4209TIP3   OH234041   5.893   0.641   4.863 -0.7914  0.2084 -0.0275
 4209TIP3    H134042   5.956   0.651   4.792 -1.4432  0.3219 -0.6070
 4209TIP3    H234043   5.842   0.722   4.862 -1.5026 -0.2276 -0.1381
 4210TIP3   OH234044   2.938   3.717  11.415  0.1559  0.7569  0.7000
 4210TIP3    H134045   2.923   3.688  11.504 -0.9942  0.1827  0.3402
 4210TIP3    H234046   2.912   3.810  11.415 -2.1221  0.1889  0.4699
 4211TIP3   OH234047   4.562   1.746  15.182  0.1468 -0.6778 -0.0489
 4211TIP3    H134048   4.517   1.666  15.208  1.2141 -1.0923  0.6314
 4211TIP3    H234049   4.495   1.814  15.184 -0.3826 -1.2100  1.2049
 4212TIP3   OH234050   6.214   1.657  11.140 -0.7848  0.3246  0.7032
 4212TIP3    H134051   6.246   1.631  11.054 -0.8174 -1.4726  1.1908
 4212TIP3    H234052   6.205   1.752  11.135  1.8956  0.6086 -0.3762
 4213TIP3   OH234053   4.466   0.339  16.961  0.1715  0.3274 -0.1580
 4213TIP3    H134054   4.482   0.244  16.956 -0.1731  0.1473  1.4829
 4213TIP3    H234055   4.452   0.366  16.871 -0.6165 -1.3487 -0.5736
 4214TIP3   OH234056   3.731   0.827   2.821 -0.4215 -0.0191 -0.4541
 4214TIP3    H134057   3.710   0.744   2.778  0.1529 -0.4207  0.0258
 4214TIP3    H234058   3.704   0.894   2.758 -1.7691 -0.5369 -0.4642
 4215TIP3   OH234059   4.714   5.514   3.112 -0.2718  0.1726 -0.2004
 4215TIP3    H134060   4.782   5.484   3.172 -1.8503 -1.2977  0.9400
 4215TIP3    H234061   4.656   5.439   3.101 -0.8125  0.8411 -2.5114
 4216TIP3   OH234062   1.588   1.635   2.231  0.4696 -0.1621  0.0154
 4216TIP3    H134063   1.510   1.580   2.243  1.0307 -1.0718 -0.4321
 4216TIP3    H234064   1.659   1.585   2.271  1.2437 -0.4131 -1.6196
 4217TIP3   OH234065   0.780   1.472  13.632  0.1465 -0.0280  0.0073
 4217TIP3    H134066   0.862   1.422  13.635 -0.7564 -1.5235  2.2322
 4217TIP3    H234067   0.775   1.515  13.717 -1.1593  0.4102 -0.2717
 4218TIP3   OH234068   2.798   4.544   3.220 -0.2808 -0.3299 -0.0560
 4218TIP3    H134069   2.798   4.460   3.175  1.4305 -1.4719  1.9210
 4218TIP3    H234070   2.870   4.538   3.283  0.0736  2.7240 -0.0153
 4219TIP3   OH234071   6.806   1.065   5.745  0.4490 -0.4427 -0.0281
 4219TIP3    H134072   6.756   1.066   5.827 -0.2040 -1.2069 -0.4091
 4219TIP3    H234073   6.890   1.027   5.769  0.5852  0.1536  0.4633
 4220TIP3   OH234074   0.626   6.145  12.772  0.4349  0.7450  0.1441
 4220TIP3    H134075   0.705   6.093  12.759  1.3070  2.4252 -1.8828
 4220TIP3    H234076   0.573   6.129  12.695  0.7380  2.7792 -0.5610
 4221TIP3   OH234077   4.985   2.985  14.966 -0.2014 -0.2878 -0.4148
 4221TIP3    H134078   4.919   2.991  15.036  0.7266 -1.2927  0.5813
 4221TIP3    H234079   5.069   2.983  15.012  0.5848  1.2380 -1.6754
 4222TIP3   OH234080   3.190   0.022  12.647 -0.9575 -0.2380 -0.2462
 4222TIP3    H134081   3.182   0.114  12.675 -1.5407 -0.4663  0.3470
 4222TIP3    H234082   3.119  -0.023  12.691 -0.4521 -1.0534 -0.2408
 4223TIP3   OH234083   0.184   4.007   2.647  0.6824 -0.3505 -0.0560
 4223TIP3    H134084   0.230   3.929   2.680 -1.0126 -0.9360  1.0128
 4223TIP3    H234085   0.177   4.064   2.723  0.6842  0.2560 -0.5072
 4224TIP3   OH234086   3.125   4.293   1.475 -0.9172  0.4824 -0.1541
 4224TIP3    H134087   3.035   4.262   1.482 -0.4573 -0.8081  0.3434
 4224TIP3    H234088   3.153   4.266   1.388 -1.0984  1.1686 -0.4339
 4225TIP3   OH234089   1.249   5.595   0.726  0.0118  0.0978  0.1955
 4225TIP3    H134090   1.162   5.634   0.715  0.3814  1.2806  1.2032
 4225TIP3    H234091   1.308   5.670   0.739  1.0386 -0.7208  0.4290
 4226TIP3   OH234092   5.761   2.982  17.098  0.3151 -0.4463  0.0865
 4226TIP3    H134093   5.824   2.910  17.101 -0.2242 -0.8872  2.7329
 4226TIP3    H234094   5.783   3.029  17.017  2.0228 -2.3507 -0.6382
 4227TIP3   OH234095   4.633   0.941  16.456  0.0495 -0.3104  0.2357
 4227TIP3    H134096   4.670   0.949  16.368  0.4053  1.0806  0.4864
 4227TIP3    H234097   4.677   1.010  16.506 -2.0210  0.6207  0.8517
 4228TIP3   OH234098   0.710   4.238   2.267 -0.1845 -0.2135  0.2891
 4228TIP3    H134099   0.775   4.307   2.254  2.6057 -2.4917  0.9927
 4228TIP3    H234100   0.693   4.204   2.179 -0.0025  0.0604  0.1483
 4229TIP3   OH234101   6.299   3.492   5.245  0.1835 -0.3468  0.0496
 4229TIP3    H134102   6.216   3.450   5.268  1.2710 -1.7624  1.5482
 4229TIP3    H234103   6.319   3.549   5.320  0.0456  0.8685 -0.7995
 4230TIP3   OH234104   3.243   4.464  11.243  0.5514  0.4697 -0.3330
 4230TIP3    H134105   3.156   4.424  11.253  1.6934 -2.1993 -0.2524
 4230TIP3    H234106   3.256   4.514  11.323 -0.0427 -0.9069  0.6513
 4231TIP3   OH234107   5.571   1.557   0.560 -0.2446 -0.1986 -0.1443
 4231TIP3    H134108   5.564   1.544   0.465  0.3850  0.5776 -0.3100
 4231TIP3    H234109   5.521   1.636   0.577  1.8406  1.2324 -0.2681
 4232TIP3   OH234110   5.998   2.132   0.876 -0.1389 -0.5772 -0.2139
 4232TIP3    H134111   6.049   2.212   0.878 -2.0462  0.6852  0.2065
 4232TIP3    H234112   6.021   2.086   0.957  0.3027 -0.0294 -0.0284
 4233TIP3   OH234113   0.259   1.835  10.608  0.6969  0.3039  0.2417
 4233TIP3    H134114   0.252   1.780  10.530 -1.4692 -0.6111  0.9908
 4233TIP3    H234115   0.312   1.785  10.669 -0.5466 -0.6309  0.6009
 4234TIP3   OH234116   0.674   5.553  14.607  0.5406 -1.1050 -0.0653
 4234TIP3    H134117   0.718   5.611  14.545  0.1862 -0.7885 -0.0211
 4234TIP3    H234118   0.686   5.594  14.692  1.8237 -2.0077  0.2251
 4235TIP3   OH234119   5.866   3.631   0.743  0.9983  0.5072  0.2256
 4235TIP3    H134120   5.839   3.583   0.821  0.3570 -0.9890 -0.8632
 4235TIP3    H234121   5.941   3.683   0.771  2.2151 -1.6998  1.3277
 4236TIP3   OH234122   1.353   0.850  12.507 -0.3071 -0.2147  0.1488
 4236TIP3    H134123   1.262   0.822  12.506 -0.7988  1.2999  0.9696
 4236TIP3    H234124   1.403   0.768  12.500 -1.7037 -1.1307  0.5568
 4237TIP3   OH234125   5.173   6.274  17.246 -0.4786 -0.0203  0.0808
 4237TIP3    H134126   5.166   6.363  17.212 -1.1753 -0.0338  0.1623
 4237TIP3    H234127   5.175   6.284  17.341  2.3487  0.0745  0.0990
 4238TIP3   OH234128   5.623   1.760   1.286  0.0187 -0.4770  0.5464
 4238TIP3    H134129   5.705   1.724   1.252  0.4941  0.1665  1.0001
 4238TIP3    H234130   5.579   1.794   1.208  1.1614  1.1100  0.5375
 4239TIP3   OH234131   2.114   1.786   1.538  0.1333 -0.2928 -0.1055
 4239TIP3    H134132   2.130   1.692   1.528  1.8366  0.0182 -0.7171
 4239TIP3    H234133   2.190   1.818   1.586 -0.6376  0.7205  0.4736
 4240TIP3   OH234134   2.802   3.789  15.815 -0.2086 -0.4060 -0.2215
 4240TIP3    H134135   2.720   3.768  15.860  0.1795 -0.0304  0.6881
 4240TIP3    H234136   2.867   3.731  15.856  0.0697 -0.3975 -0.6395
 4241TIP3   OH234137   1.665   1.123   1.844 -0.2452  0.1220 -0.2165
 4241TIP3    H134138   1.585   1.079   1.818  0.4109 -2.2525  1.4046
 4241TIP3    H234139   1.652   1.145   1.937  0.1080  1.8736 -0.5447
 4242TIP3   OH234140   0.258   4.693  11.303 -0.1410  0.0663 -0.5913
 4242TIP3    H134141   0.225   4.604  11.286  0.9574 -0.4914  0.0908
 4242TIP3    H234142   0.277   4.728  11.216  1.0741 -1.0362 -0.8074
 4243TIP3   OH234143   5.432   3.211  10.715 -0.5331 -0.1953 -0.4477
 4243TIP3    H134144   5.421   3.231  10.622 -1.7494 -2.6412 -0.8853
 4243TIP3    H234145   5.511   3.260  10.740 -2.0026  3.2425 -1.8408
 4244TIP3   OH234146   3.797   0.874   6.347  0.1428  0.0345  0.2438
 4244TIP3    H134147   3.790   0.787   6.387 -1.6079 -0.6317 -1.3794
 4244TIP3    H234148   3.765   0.934   6.416 -0.6113 -0.8318  0.6702
 4245TIP3   OH234149   2.525   5.095   1.959  0.2055  0.4499 -0.3386
 4245TIP3    H134150   2.505   5.184   1.989  0.9123  0.3601  0.4322
 4245TIP3    H234151   2.485   5.039   2.026 -0.9028  0.1474 -1.2195
 4246TIP3   OH234152   3.721   6.504   4.026  0.2935 -0.4027  0.5340
 4246TIP3    H134153   3.696   6.551   4.106 -2.0562 -0.8594  0.1319
 4246TIP3    H234154   3.685   6.417   4.037 -0.9515 -0.1758 -1.4299
 4247TIP3   OH234155   1.228   6.666  10.810  0.1891 -0.1012 -0.0661
 4247TIP3    H134156   1.215   6.594  10.749 -1.2113  1.0947 -1.2436
 4247TIP3    H234157   1.278   6.731  10.761 -1.7033  1.2469 -0.3147
 4248TIP3   OH234158   0.999   0.602  16.569  0.3542 -0.1644 -0.2827
 4248TIP3    H134159   1.017   0.557  16.651  0.3151 -0.0953 -0.2365
 4248TIP3    H234160   1.061   0.564  16.507 -0.8579 -1.5767 -0.6987
 4249TIP3   OH234161   2.131   2.183  11.716 -0.7696  0.2914 -0.0045
 4249TIP3    H134162   2.179   2.265  11.703 -1.8974  1.0439  0.3350
 4249TIP3    H234163   2.196   2.114  11.702 -0.0023  1.2106 -1.2320
 4250TIP3   OH234164   5.351   1.522  16.133  0.3767  0.0972  0.0513
 4250TIP3    H134165   5.433   1.500  16.178  0.8883  0.6785 -0.5843
 4250TIP3    H234166   5.365   1.492  16.043 -0.5106 -0.7356  0.1740
 4251TIP3   OH234167   5.498   4.925   3.410  0.1564  0.0406  0.0668
 4251TIP3    H134168   5.415   4.879   3.401  0.5237 -0.4314 -1.0213
 4251TIP3    H234169   5.543   4.878   3.481  0.5173 -1.3218 -1.0063
 4252TIP3   OH234170   4.565   5.437   1.026 -0.1367  0.8201 -0.3810
 4252TIP3    H134171   4.589   5.522   0.988  1.6591  0.8989  0.8487
 4252TIP3    H234172   4.568   5.376   0.952 -0.5568  1.6399 -1.1010
 4253TIP3   OH234173   1.953   6.274   5.166 -0.0564  0.3632  0.0982
 4253TIP3    H134174   1.930   6.290   5.074  1.2465 -1.1186 -0.5259
 4253TIP3    H234175   1.870   6.246   5.206 -0.6036  0.8567 -0.6479
 4254TIP3   OH234176   0.904   3.751  15.287 -0.0081 -0.9758 -0.2890
 4254TIP3    H134177   0.967   3.811  15.328 -2.5249  0.9674  1.0289
 4254TIP3    H234178   0.852   3.806  15.230 -1.4577 -2.1913 -0.1975
 4255TIP3   OH234179   6.309   4.978  13.776  0.1576 -0.1446  0.6823
 4255TIP3    H134180   6.320   5.048  13.841  0.0724  0.7565 -0.2450
 4255TIP3    H234181   6.215   4.960  13.777 -0.1830  1.3340 -0.6270
 4256TIP3   OH234182   0.673   1.269   4.052  0.1999  0.0737  0.3890
 4256TIP3    H134183   0.664   1.205   3.981  0.1512 -0.3354  0.7533
 4256TIP3    H234184   0.727   1.338   4.016 -1.7914  1.0655 -0.8457
 4257TIP3   OH234185   5.157   0.632  16.995  0.3354 -0.2529 -0.2310
 4257TIP3    H134186   5.108   0.554  17.021  2.1785 -1.0867  0.9394
 4257TIP3    H234187   5.104   0.705  17.027 -0.6059 -1.0714  0.1312
 4258TIP3   OH234188   5.567   1.457   4.347  0.0372 -0.2580 -0.2833
 4258TIP3    H134189   5.624   1.414   4.411  0.4976  0.2937 -0.3202
 4258TIP3    H234190   5.480   1.453   4.386  0.6986  2.7400  1.8616
 4259TIP3   OH234191   0.716   1.525  11.249 -0.0878  0.1317 -0.1321
 4259TIP3    H134192   0.712   1.473  11.329  2.7550  0.1096  0.1036
 4259TIP3    H234193   0.732   1.460  11.179  0.2399  0.3879 -0.2989
 4260TIP3   OH234194   1.252   3.967   3.920  0.2685 -0.1340  0.0983
 4260TIP3    H134195   1.344   3.972   3.894  0.4420  1.2608  0.9219
 4260TIP3    H234196   1.236   4.048   3.969 -1.3769 -0.3971  0.0377
 4261TIP3   OH234197   1.190   3.768   0.046 -0.6974  0.2169  0.1765
 4261TIP3    H134198   1.198   3.834   0.114 -0.1549 -0.2193  0.5353
 4261TIP3    H234199   1.249   3.797  -0.023 -1.4542  0.8073 -0.2416
 4262TIP3   OH234200   4.832   5.584  17.203 -0.2778 -0.1614  0.2882
 4262TIP3    H134201   4.795   5.583  17.115 -2.0910 -0.0584  1.0114
 4262TIP3    H234202   4.772   5.638  17.254 -0.1746 -1.5324  1.9554
 4263TIP3   OH234203   3.798   2.650  16.488  0.5594 -0.1820  0.4623
 4263TIP3    H134204   3.875   2.706  16.501 -0.3949  1.5406 -0.8228
 4263TIP3    H234205   3.747   2.661  16.568 -0.4649  2.3469 -0.4003
 4264TIP3   OH234206   5.121   5.051   3.974  0.2995  0.4821  0.8407
 4264TIP3    H134207   5.090   5.116   4.036 -0.9637  1.3345 -0.6096
 4264TIP3    H234208   5.109   5.093   3.888  2.2185 -0.5320  0.0168
 4265TIP3   OH234209   5.542   0.308   5.409 -0.0539  0.5260 -0.0301
 4265TIP3    H134210   5.603   0.254   5.460 -0.4126 -0.3735 -0.5212
 4265TIP3    H234211   5.572   0.398   5.422  2.2997  0.0418 -1.4364
 4266TIP3   OH234212   1.304   6.091   6.132 -0.0293 -0.1262 -0.1499
 4266TIP3    H134213   1.292   6.110   6.225  1.1800  0.0060 -0.0045
 4266TIP3    H234214   1.237   6.144   6.089 -0.5223 -0.0903  0.6276
 4267TIP3   OH234215   3.393   4.988   4.070 -0.4078 -0.5158 -0.4815
 4267TIP3    H134216   3.373   5.049   3.999 -2.6407  0.6733  1.0344
 4267TIP3    H234217   3.308   4.970   4.110  0.8531 -0.2528  2.5684
 4268TIP3   OH234218   0.986   5.128   2.864  0.3838 -0.4704 -0.2677
 4268TIP3    H134219   0.941   5.119   2.780  0.0302  0.3033 -0.1794
 4268TIP3    H234220   1.078   5.142   2.841  0.6059 -2.0945 -0.4499
 4269TIP3   OH234221   3.899   0.129  13.537 -0.1572  0.1655  0.0690
 4269TIP3    H134222   3.931   0.208  13.495 -0.6205  0.2093 -0.2041
 4269TIP3    H234223   3.804   0.130  13.522 -0.1179 -0.6243 -0.2501
 4270TIP3   OH234224   6.529   2.158  11.742  0.2372  0.1319 -0.1685
 4270TIP3    H134225   6.589   2.086  11.723  0.9469  0.6058  0.2213
 4270TIP3    H234226   6.496   2.140  11.830 -1.9429 -1.3006 -1.1822
 4271TIP3   OH234227   2.714   0.210   5.937  0.0449  0.2743 -0.1266
 4271TIP3    H134228   2.774   0.254   5.998 -1.0175  0.8506  0.5407
 4271TIP3    H234229   2.643   0.178   5.993 -0.6311  0.2349 -0.9914
 4272TIP3   OH234230   3.571   5.967   3.712  0.6350 -0.1087 -0.0154
 4272TIP3    H134231   3.542   6.053   3.741 -0.0862 -0.1065 -0.7173
 4272TIP3    H234232   3.588   5.977   3.619 -0.7466 -1.0323 -0.4017
 4273TIP3   OH234233   1.790   1.300  11.363 -0.4864 -0.7197  0.1845
 4273TIP3    H134234   1.816   1.310  11.271 -0.9125  0.8063  0.1902
 4273TIP3    H234235   1.857   1.349  11.411 -0.0228 -1.8747  0.7426
 4274TIP3   OH234236   6.743   4.654  13.311  0.0722  0.3801 -0.5641
 4274TIP3    H134237   6.707   4.734  13.349 -0.4630  0.2214 -0.7407
 4274TIP3    H234238   6.681   4.586  13.334 -0.0154  0.1972 -1.3216
 4275TIP3   OH234239   4.507   3.909  14.971  0.0154 -0.0749  0.5305
 4275TIP3    H134240   4.599   3.934  14.963 -0.0483 -0.2467 -1.0265
 4275TIP3    H234241   4.504   3.819  14.938 -1.2282  1.0912 -2.8594
 4276TIP3   OH234242   0.615   6.596  11.868 -0.0383 -0.1881 -0.0813
 4276TIP3    H134243   0.559   6.669  11.840  0.0731 -0.1263 -0.1437
 4276TIP3    H234244   0.678   6.636  11.928 -1.1153 -0.5537  1.3430
 4277TIP3   OH234245   3.758   2.185  13.999 -0.1371 -0.0886  0.0656
 4277TIP3    H134246   3.792   2.098  14.023 -0.2237 -0.5467 -1.3707
 4277TIP3    H234247   3.762   2.235  14.080 -0.3368 -1.5126  1.0047
 4278TIP3   OH234248   3.099   6.387   6.548 -0.1073 -0.6516  0.5119
 4278TIP3    H134249   3.180   6.353   6.509  0.3135  0.4330  0.3931
 4278TIP3    H234250   3.043   6.311   6.557  0.1785 -1.1149 -1.2412
 4279TIP3   OH234251   1.249   5.218   2.853  0.2114  0.8472  0.4283
 4279TIP3    H134252   1.304   5.236   2.929  1.4237 -0.8057 -0.0046
 4279TIP3    H234253   1.289   5.267   2.782  0.8574  0.0563  0.2293
 4280TIP3   OH234254   0.144   5.002   1.054  0.0647 -0.0348  0.1142
 4280TIP3    H134255   0.213   4.978   1.116  0.5391  1.5008  0.2354
 4280TIP3    H234256   0.156   5.096   1.041 -0.3226 -0.2184 -1.9440
 4281TIP3   OH234257   2.425   4.506   5.081  0.2512  0.0131  0.0985
 4281TIP3    H134258   2.389   4.479   4.997  0.0922  2.8379 -0.8729
 4281TIP3    H234259   2.364   4.473   5.146 -0.8584 -0.3398 -1.0793
 4282TIP3   OH234260   6.270   4.474   1.006 -0.7104 -0.6834  0.3079
 4282TIP3    H134261   6.261   4.453   0.912 -0.3120  1.4270 -0.2474
 4282TIP3    H234262   6.241   4.565   1.013 -0.7217 -0.8008  2.2604
 4283TIP3   OH234263   1.094   1.564   2.882 -0.4481 -0.4311  0.6390
 4283TIP3    H134264   1.056   1.563   2.793  1.0683 -1.8194 -0.0421
 4283TIP3    H234265   1.024   1.599   2.937 -1.5151  0.2559 -1.0698
 4284TIP3   OH234266   4.536   5.692  10.781  0.6018  0.2353  0.2242
 4284TIP3    H134267   4.535   5.623  10.847  1.0769  1.4783  1.5981
 4284TIP3    H234268   4.479   5.660  10.712 -0.2544 -0.9452  1.4260
 4285TIP3   OH234269   2.087   5.792   2.529 -0.0900 -0.8473  0.1630
 4285TIP3    H134270   2.172   5.781   2.570 -0.7492 -0.8529  1.5942
 4285TIP3    H234271   2.075   5.887   2.522 -0.3805 -0.8273  0.8830
 4286TIP3   OH234272   1.175   6.655  14.958  0.4634 -0.2519  0.8103
 4286TIP3    H134273   1.184   6.737  15.008  0.0313  0.1716  0.2111
 4286TIP3    H234274   1.082   6.636  14.962 -0.1021  1.3161 -2.1467
 4287TIP3   OH234275   5.699   5.583  15.214 -0.2011  0.3108  0.9183
 4287TIP3    H134276   5.651   5.592  15.297 -0.1611  3.4325  0.6927
 4287TIP3    H234277   5.774   5.641  15.223  2.2652 -2.4730  0.2346
 4288TIP3   OH234278   6.647   4.387  13.183 -0.1573  0.5563  0.1739
 4288TIP3    H134279   6.647   4.398  13.088  0.5106 -2.5920 -0.2958
 4288TIP3    H234280   6.561   4.348  13.203 -0.2750  1.1496  0.8886
 4289TIP3   OH234281   2.639   3.546  14.726  0.2217  0.1455  0.0596
 4289TIP3    H134282   2.707   3.478  14.724  0.3606  0.2807  0.1218
 4289TIP3    H234283   2.649   3.586  14.812  1.3968  1.5023 -0.6597
 4290TIP3   OH234284   6.441   4.624   3.403  0.3059 -0.5928  0.2951
 4290TIP3    H134285   6.455   4.646   3.311  0.1207 -1.4850  0.0391
 4290TIP3    H234286   6.365   4.564   3.402  2.1108 -3.0610  0.6680
 4291TIP3   OH234287   6.731   1.680  13.732 -0.4064 -0.2465 -0.1425
 4291TIP3    H134288   6.715   1.768  13.766 -0.6155 -1.1475  2.3342
 4291TIP3    H234289   6.734   1.625  13.810  0.5395 -2.3279 -1.5515
 4292TIP3   OH234290   4.921   4.585   4.965  0.6084 -0.3007 -0.4940
 4292TIP3    H134291   5.011   4.580   4.932  0.8023 -2.2948  0.2408
 4292TIP3    H234292   4.930   4.620   5.054  0.6800 -0.6262 -0.3718
 4293TIP3   OH234293   1.358   3.384   2.771  0.2753 -0.3304  0.8209
 4293TIP3    H134294   1.407   3.302   2.779 -0.5420 -0.9944 -0.6473
 4293TIP3    H234295   1.293   3.379   2.842 -1.1067 -1.9542 -0.4704
 4294TIP3   OH234296   0.235   6.742  16.050 -0.1489  0.4639 -0.2592
 4294TIP3    H134297   0.231   6.806  16.121  1.8931  0.2367  0.1013
 4294TIP3    H234298   0.258   6.792  15.972 -0.3568  0.4150 -0.3557
 4295TIP3   OH234299   4.543   6.743  15.788  0.5021 -0.2389 -0.4973
 4295TIP3    H134300   4.632   6.735  15.822  0.9435  0.4301 -1.4376
 4295TIP3    H234301   4.533   6.836  15.770 -0.7218 -0.1760  0.4387
 4296TIP3   OH234302   2.781   3.637  13.705  0.4922 -0.0621  0.4770
 4296TIP3    H134303   2.831   3.685  13.772  0.1157 -0.3367  0.9618
 4296TIP3    H234304   2.720   3.702  13.671  1.8127  0.5551 -0.8175
 4297TIP3   OH234305   2.888   3.005   4.856 -0.3776  0.0197 -0.4118
 4297TIP3    H134306   2.886   3.041   4.767  2.1298  2.2816  0.2692
 4297TIP3    H234307   2.916   2.914   4.845 -0.9413  0.0062 -1.9680
 4298TIP3   OH234308   0.688   5.872   1.261 -0.5278 -0.2344  0.0678
 4298TIP3    H134309   0.732   5.797   1.220 -1.2333 -0.0140 -1.1471
 4298TIP3    H234310   0.741   5.892   1.337  0.3443 -1.2287 -0.2536
 4299TIP3   OH234311   5.701   0.531  12.541  0.2517 -0.1369  0.0979
 4299TIP3    H134312   5.606   0.544  12.546  0.3293  0.2437  0.7245
 4299TIP3    H234313   5.711   0.439  12.518 -0.2731 -0.0834 -0.3877
 4300TIP3   OH234314   2.364   4.365   4.837  0.1424 -0.3813 -0.0775
 4300TIP3    H134315   2.448   4.321   4.846 -0.5423 -2.2125 -1.9898
 4300TIP3    H234316   2.369   4.410   4.753  0.1488  1.8301  1.0210
 4301TIP3   OH234317   6.519   4.947  11.801 -0.5388  0.5271  0.2658
 4301TIP3    H134318   6.477   4.968  11.717 -0.0309 -0.3830 -0.2283
 4301TIP3    H234319   6.610   4.975  11.790 -0.2881 -0.2754  0.2347
 4302TIP3   OH234320   5.458   0.147   3.441 -0.0407  0.1639  0.4046
 4302TIP3    H134321   5.513   0.077   3.407 -0.6456  0.0071 -0.2838
 4302TIP3    H234322   5.492   0.165   3.528  0.9973 -0.0303  0.0476
 4303TIP3   OH234323   4.741   3.144   0.608  0.2541 -0.0560 -0.0003
 4303TIP3    H134324   4.724   3.139   0.702  0.2879 -2.1785 -0.0489
 4303TIP3    H234325   4.702   3.227   0.580 -0.6825  0.1059  1.6914
 4304TIP3   OH234326   5.903   6.216  16.997  0.6447 -0.1908  0.4392
 4304TIP3    H134327   5.958   6.291  17.021 -0.0965  0.7619 -0.7422
 4304TIP3    H234328   5.928   6.196  16.907 -0.5472 -0.1013  0.0751
 4305TIP3   OH234329   1.669   6.205  17.063 -0.2438 -0.7560  0.3762
 4305TIP3    H134330   1.611   6.237  17.132  1.6225 -0.4258  1.8644
 4305TIP3    H234331   1.628   6.124  17.033 -2.5524  0.5301 -0.1155
 4306TIP3   OH234332   1.771   6.261   2.926  0.1429  0.4422  0.1584
 4306TIP3    H134333   1.779   6.326   2.856  0.0809  0.6216  0.3163
 4306TIP3    H234334   1.811   6.182   2.891 -0.0165  0.4903 -0.1350
 4307TIP3   OH234335   4.264   4.809   0.260 -0.2963  0.4838 -0.3007
 4307TIP3    H134336   4.259   4.853   0.344 -0.9483 -2.5845  1.4358
 4307TIP3    H234337   4.353   4.773   0.257 -0.4232  0.1902 -0.6838
 4308TIP3   OH234338   1.020   4.858  14.595  0.7036  0.0693  0.5591
 4308TIP3    H134339   1.020   4.770  14.632  1.8685  0.2823  1.1088
 4308TIP3    H234340   1.050   4.914  14.666  0.1181  0.9075  0.1686
 4309TIP3   OH234341   4.772   4.635   2.178 -0.2480  0.3475  0.2115
 4309TIP3    H134342   4.789   4.669   2.266 -1.3298  0.4893  0.3768
 4309TIP3    H234343   4.685   4.597   2.183  0.2584 -0.9630 -0.4269
 4310TIP3   OH234344   3.930   6.764  12.498 -0.1965  0.2046 -0.5408
 4310TIP3    H134345   3.899   6.768  12.589  0.5727 -1.3295 -0.1657
 4310TIP3    H234346   3.854   6.789  12.446 -1.2776 -0.8528  0.4617
 4311TIP3   OH234347   0.924   5.557  15.568  0.0793  0.1550  0.5043
 4311TIP3    H134348   0.987   5.507  15.620 -1.6717 -0.3214  2.2911
 4311TIP3    H234349   0.960   5.645  15.563  2.3045 -0.7630 -1.0838
 4312TIP3   OH234350   0.531   2.499   4.674  0.4021 -0.6263  0.1744
 4312TIP3    H134351   0.436   2.516   4.676  0.6417  0.7640  1.2446
 4312TIP3    H234352   0.541   2.426   4.613 -1.4370 -1.3206  0.6347
 4313TIP3   OH234353   2.974   6.180   2.649  0.0216  0.4054  0.1727
 4313TIP3    H134354   3.062   6.216   2.653 -0.0578  0.5179  1.0136
 4313TIP3    H234355   2.968   6.121   2.724  0.5602 -2.3503 -1.8021
 4314TIP3   OH234356   1.297   5.541   3.212 -0.2793 -0.1420 -0.5497
 4314TIP3    H134357   1.246   5.477   3.262  0.0972  1.2447  1.7859
 4314TIP3    H234358   1.231   5.598   3.172 -0.7421  1.5445  2.3136
 4315TIP3   OH234359   5.960   2.465   5.375 -0.6334 -0.6173  0.2734
 4315TIP3    H134360   5.918   2.458   5.290  0.0866  0.9099 -0.2456
 4315TIP3    H234361   5.892   2.503   5.432 -0.6350 -0.1931 -0.0105
 4316TIP3   OH234362   6.069   4.344   1.403 -0.3561  0.1522  0.5082
 4316TIP3    H134363   6.145   4.316   1.455  0.2743  1.3133  0.2331
 4316TIP3    H234364   6.092   4.319   1.313 -0.6739 -0.2363  0.5292
 4317TIP3   OH234365   1.492   4.366   5.006 -0.7123 -0.1190 -0.4106
 4317TIP3    H134366   1.433   4.428   4.963 -2.1115 -1.3023 -0.2583
 4317TIP3    H234367   1.579   4.391   4.975 -1.1770  2.1319 -0.0649
 4318TIP3   OH234368   3.366   3.437   0.709  0.1068  0.2470  0.4185
 4318TIP3    H134369   3.345   3.375   0.778  0.0833 -1.5870 -1.1613
 4318TIP3    H234370   3.460   3.454   0.720  0.4379 -1.1833  0.0643
 4319TIP3   OH234371   1.948   1.926  16.888 -0.1827  0.2532  0.0516
 4319TIP3    H134372   1.911   1.840  16.906  0.8118  0.0222  1.1286
 4319TIP3    H234373   2.023   1.910  16.832  2.0579 -0.0525  2.8760
 4320TIP3   OH234374   5.961   2.624   3.407 -0.4388 -0.0390 -0.3856
 4320TIP3    H134375   5.996   2.677   3.335  0.0615  1.3613  0.8423
 4320TIP3    H234376   6.028   2.558   3.423  0.3207  0.8138  0.0185
 4321TIP3   OH234377   5.617   5.958  16.212 -0.1723  0.7571  0.4414
 4321TIP3    H134378   5.695   5.970  16.266 -0.9257  0.0082  1.7666
 4321TIP3    H234379   5.651   5.945  16.124  1.1900  0.6776  0.9470
 4322TIP3   OH234380   0.472   5.272   0.847 -0.0709  0.1036 -0.9732
 4322TIP3    H134381   0.377   5.260   0.842 -0.6564  3.2275  0.1154
 4322TIP3    H234382   0.493   5.256   0.939  0.4073 -0.3184 -1.1565
 4323TIP3   OH234383   5.032   3.821   5.624  0.1114 -0.2043 -0.2873
 4323TIP3    H134384   5.103   3.884   5.613 -1.9365  2.1591 -0.7948
 4323TIP3    H234385   5.004   3.831   5.714  0.1591 -0.8645 -0.1925
 4324TIP3   OH234386   1.935   3.371  12.340  0.3256 -1.0607 -1.1114
 4324TIP3    H134387   1.966   3.373  12.249 -0.3427 -1.6211 -1.3617
 4324TIP3    H234388   1.841   3.354  12.333 -0.0886  0.7431 -0.3767
 4325TIP3   OH234389   6.634   5.094   0.392  0.2867 -0.1957 -0.5647
 4325TIP3    H134390   6.721   5.105   0.354  1.2987 -2.6972  0.7569
 4325TIP3    H234391   6.636   5.145   0.473 -0.1987  1.3298 -1.4958
 4326TIP3   OH234392   2.878   6.622  17.146  0.4758  0.3754  0.2895
 4326TIP3    H134393   2.808   6.652  17.088 -0.2063  0.5386  1.1664
 4326TIP3    H234394   2.949   6.597  17.087 -0.5376 -0.3867 -0.6661
 4327TIP3   OH234395   4.562   1.453  11.929 -0.1306 -0.2553 -0.1267
 4327TIP3    H134396   4.551   1.547  11.910  0.0009  0.1049  1.4467
 4327TIP3    H234397   4.530   1.409  11.850  2.3303  1.1418 -2.0818
 4328TIP3   OH234398   3.568   2.076   3.045 -0.1320 -0.1314  0.4573
 4328TIP3    H134399   3.509   2.051   2.974 -0.7518  1.4586  0.3526
 4328TIP3    H234400   3.647   2.107   3.000  0.5402 -1.6347  0.5743
 4329TIP3   OH234401   4.824   4.392   4.430  0.3706 -0.6406 -0.4474
 4329TIP3    H134402   4.898   4.409   4.373  0.4334 -1.5646 -0.6528
 4329TIP3    H234403   4.749   4.387   4.371  0.0828  0.5458 -0.2170
 4330TIP3   OH234404   5.412   6.656   4.625  1.0335 -0.1765  0.2061
 4330TIP3    H134405   5.451   6.718   4.563 -0.9824  0.1062 -0.8689
 4330TIP3    H234406   5.318   6.673   4.620  0.6393 -1.5849  1.8267
 4331TIP3   OH234407   6.099   3.048   5.911  0.2416 -0.0826  0.1874
 4331TIP3    H134408   6.184   3.076   5.944  1.0530 -2.4156  0.2304
 4331TIP3    H234409   6.069   2.982   5.973 -3.3049  2.9733  2.1606
 4332TIP3   OH234410   0.384   2.768  16.531  0.3021 -0.0005 -0.1734
 4332TIP3    H134411   0.296   2.751  16.496 -0.1573  2.2458 -0.2587
 4332TIP3    H234412   0.367   2.812  16.615  1.2412  2.4531 -1.1776
 4333TIP3   OH234413   3.539   5.857   1.392  0.0505  0.0600  0.0952
 4333TIP3    H134414   3.508   5.771   1.421 -1.1882  0.9861  1.6833
 4333TIP3    H234415   3.632   5.844   1.374  0.0340 -1.4656  0.9450
 4334TIP3   OH234416   3.408   0.755  14.633  0.4732 -0.4101  0.3674
 4334TIP3    H134417   3.473   0.783  14.569  0.1878 -0.6299 -0.0248
 4334TIP3    H234418   3.327   0.749  14.583 -0.1864  1.2823  1.1388
 4335TIP3   OH234419   3.962   6.811  15.800 -0.1577  0.1649 -0.0301
 4335TIP3    H134420   3.895   6.756  15.759 -0.4041  1.0542 -0.8452
 4335TIP3    H234421   3.925   6.834  15.885  0.2452 -1.4791  0.6434
 4336TIP3   OH234422   1.513   1.987  13.688  0.5539  0.5481  0.0156
 4336TIP3    H134423   1.582   2.009  13.751  0.0800 -0.8065  1.0521
 4336TIP3    H234424   1.489   1.896  13.709 -2.5395  1.3905  0.6847
 4337TIP3   OH234425   1.492   0.784  14.842 -0.7745 -0.4579 -0.1731
 4337TIP3    H134426   1.470   0.874  14.816 -0.0751 -0.2998 -0.2432
 4337TIP3    H234427   1.501   0.788  14.937 -2.0360 -0.7476 -0.0291
 4338TIP3   OH234428   6.572   1.905   0.902 -0.2528 -0.3317 -0.0403
 4338TIP3    H134429   6.478   1.919   0.888 -0.0768  2.0829  0.6328
 4338TIP3    H234430   6.582   1.911   0.998  0.8169  1.8168 -0.2184
 4339TIP3   OH234431   1.854   2.891  14.711 -0.1260 -0.7564  0.0443
 4339TIP3    H134432   1.920   2.960  14.702 -0.1246 -0.5844  1.2428
 4339TIP3    H234433   1.898   2.812  14.679  0.3023 -0.4421 -0.1558
 4340TIP3   OH234434   3.021   3.762  12.720 -0.8049  0.7040  0.1904
 4340TIP3    H134435   3.080   3.722  12.783  1.2334  0.5081 -1.7356
 4340TIP3    H234436   2.974   3.829  12.770 -0.7550 -0.7687  2.3310
 4341TIP3   OH234437   2.343   6.799  15.098 -0.1859 -0.1408 -0.3519
 4341TIP3    H134438   2.302   6.718  15.129  1.4947 -1.2220 -0.7935
 4341TIP3    H234439   2.394   6.829  15.174 -2.0175  1.4115  0.3292
 4342TIP3   OH234440   0.640   0.162   1.269 -0.1330 -0.1072  0.4185
 4342TIP3    H134441   0.630   0.239   1.325  1.2385 -0.1462  0.7384
 4342TIP3    H234442   0.576   0.099   1.303 -0.7092  0.5916  0.6535
 4343TIP3   OH234443   0.741   5.348  11.905 -0.2913  0.3102  0.1784
 4343TIP3    H134444   0.722   5.260  11.873 -1.7031  0.0650  1.5905
 4343TIP3    H234445   0.837   5.355  11.900 -0.2390 -0.8442 -1.0435
 4344TIP3   OH234446   0.063   6.232  15.373 -0.0539  0.0281  0.7391
 4344TIP3    H134447   0.132   6.169  15.392 -0.4890 -0.5984  0.2936
 4344TIP3    H234448   0.013   6.193  15.301 -0.0904  1.0692  0.1661
 4345TIP3   OH234449   4.801   5.990  12.240 -0.2430 -0.3562  0.4053
 4345TIP3    H134450   4.772   5.940  12.164  0.5158  1.0074 -0.8379
 4345TIP3    H234451   4.896   5.990  12.234 -0.2109  0.9463  0.5212
 4346TIP3   OH234452   5.705   2.658   1.512  0.1007  0.1685 -0.8473
 4346TIP3    H134453   5.712   2.709   1.431 -0.7952  0.6096 -0.6535
 4346TIP3    H234454   5.773   2.695   1.569 -0.2242  0.8297 -0.8840
 4347TIP3   OH234455   5.581   5.975  16.914  0.4219 -0.0267  0.6938
 4347TIP3    H134456   5.594   6.016  16.999  3.0980 -0.0326  0.3468
 4347TIP3    H234457   5.637   5.898  16.915  2.0981  1.0386 -1.7433
 4348TIP3   OH234458   3.014   6.273  14.463 -0.2671  0.2633  0.3509
 4348TIP3    H134459   3.006   6.364  14.434  0.2296  0.5996  1.2321
 4348TIP3    H234460   3.016   6.222  14.382  0.3703  1.1142 -0.1851
 4349TIP3   OH234461   3.188   1.012   3.613 -0.2158 -0.6560 -0.1202
 4349TIP3    H134462   3.097   1.024   3.639  0.0616 -1.5925  1.3906
 4349TIP3    H234463   3.229   1.097   3.629 -0.6701 -0.4205 -0.1827
 4350TIP3   OH234464   0.175   3.015  16.535 -0.0347 -0.1499  0.1906
 4350TIP3    H134465   0.219   3.095  16.507 -0.6478  0.0607 -0.1785
 4350TIP3    H234466   0.187   3.013  16.630 -0.5468  0.7026  0.2841
 4351TIP3   OH234467   3.993   1.759  14.593  0.0317 -0.7452 -0.0030
 4351TIP3    H134468   3.926   1.691  14.587 -0.9764  0.3202 -3.5730
 4351TIP3    H234469   4.060   1.732  14.530  0.3781  0.7114 -0.3091
 4352TIP3   OH234470   1.527   3.574   4.107  0.0346  0.2430 -0.0489
 4352TIP3    H134471   1.439   3.545   4.082  0.1051  0.8051 -1.0157
 4352TIP3    H234472   1.571   3.494   4.135 -0.4040 -0.2573 -0.7281
 4353TIP3   OH234473   4.454   5.217  14.843  0.3863  0.6164  0.4150
 4353TIP3    H134474   4.454   5.232  14.748 -0.7862 -0.3223  0.2431
 4353TIP3    H234475   4.537   5.172  14.860 -0.7314 -2.0454 -0.6972
 4354TIP3   OH234476   0.883   3.839  11.075 -0.2184  0.0746 -0.1361
 4354TIP3    H134477   0.972   3.873  11.082 -0.7155  1.4413 -0.1015
 4354TIP3    H234478   0.830   3.900  11.127 -1.3337 -0.0722 -1.0670
 4355TIP3   OH234479   5.065   6.089  11.414  0.0910 -0.4773 -0.6139
 4355TIP3    H134480   5.068   6.131  11.328  0.5845  1.5627  0.3156
 4355TIP3    H234481   5.150   6.047  11.423  0.6782  0.6753 -0.5331
 4356TIP3   OH234482   1.235   3.818  16.465  0.2016  0.2219 -0.5843
 4356TIP3    H134483   1.282   3.807  16.548  1.1350 -0.3649 -1.1839
 4356TIP3    H234484   1.199   3.907  16.470  1.1289  0.5808  0.0061
 4357TIP3   OH234485   2.542   5.952  13.092  0.3420 -0.4232  0.5214
 4357TIP3    H134486   2.526   5.915  13.179  2.6600  1.3404  1.7892
 4357TIP3    H234487   2.485   6.029  13.088  0.0514 -0.6440  0.3567
 4358TIP3   OH234488   5.290   1.433   2.286 -0.1452 -0.9613  0.6315
 4358TIP3    H134489   5.377   1.395   2.274 -0.0212 -0.7840  0.9611
 4358TIP3    H234490   5.289   1.510   2.229 -0.6000 -1.7618 -0.4849
 4359TIP3   OH234491   4.528   0.064   5.248  0.0665 -0.1202  0.2993
 4359TIP3    H134492   4.498  -0.022   5.280 -0.3357  0.4975  1.6804
 4359TIP3    H234493   4.622   0.055   5.239 -0.2870 -1.8508 -3.2979
 4360TIP3   OH234494   3.478   3.669  13.567  0.0638 -0.4519 -0.2343
 4360TIP3    H134495   3.564   3.696  13.535 -0.8407  0.7396 -1.8448
 4360TIP3    H234496   3.474   3.704  13.656  0.4287  1.4793 -0.9148
 4361TIP3   OH234497   3.612   6.698   5.959  0.4300 -0.0980  0.5638
 4361TIP3    H134498   3.631   6.774   5.904  0.5580 -0.1156  0.5830
 4361TIP3    H234499   3.693   6.647   5.957  0.1987 -0.4572  0.1895
 4362TIP3   OH234500   4.995   4.394  15.645 -0.1801 -0.4827 -0.0597
 4362TIP3    H134501   4.911   4.349  15.640  0.9817 -3.2101  2.3435
 4362TIP3    H234502   4.989   4.446  15.726  0.4805 -0.7495  0.1585
 4363TIP3   OH234503   3.346   1.341   2.942 -0.6504 -0.1529  0.0153
 4363TIP3    H134504   3.362   1.256   2.901 -2.7705 -0.5828 -0.0289
 4363TIP3    H234505   3.304   1.393   2.874 -1.8377 -0.0069  0.8265
 4364TIP3   OH234506   0.705   3.738   0.829  0.3528 -0.3515  0.2869
 4364TIP3    H134507   0.728   3.790   0.752  0.3442  0.3057  0.7224
 4364TIP3    H234508   0.642   3.792   0.877 -0.6952 -1.3316  0.0707
 4365TIP3   OH234509   5.887   5.401  13.791 -0.3345 -0.5247 -0.5983
 4365TIP3    H134510   5.919   5.414  13.702 -0.3199 -1.6144 -0.7663
 4365TIP3    H234511   5.900   5.308  13.808 -2.4694 -0.8156 -0.3014
 4366TIP3   OH234512   3.591   0.466  16.146  0.0036 -0.6195 -0.3882
 4366TIP3    H134513   3.622   0.397  16.088  1.1594 -0.3456 -0.1250
 4366TIP3    H234514   3.659   0.472  16.214 -0.6198  0.0326  0.1881
 4367TIP3   OH234515   4.164   2.337  13.140 -0.0131  0.4579 -0.1441
 4367TIP3    H134516   4.107   2.341  13.216 -0.5820  0.4952 -0.5669
 4367TIP3    H234517   4.131   2.264  13.089  0.2666  0.5317 -0.4332
 4368TIP3   OH234518   1.421   5.018   5.797  0.0376 -0.3600 -0.1455
 4368TIP3    H134519   1.383   5.024   5.885  2.0588  1.4970  0.7221
 4368TIP3    H234520   1.346   5.011   5.738 -1.5341  1.2019  1.5472
 4369TIP3   OH234521   5.187   4.693  14.895 -0.3018  0.4176 -0.5398
 4369TIP3    H134522   5.279   4.714  14.877  0.0676 -1.5089 -1.1901
 4369TIP3    H234523   5.150   4.673  14.809 -1.8496  2.8423 -0.5150
 4370TIP3   OH234524   4.614   6.491   6.423  0.0828 -0.0077 -0.1096
 4370TIP3    H134525   4.685   6.473   6.485  1.3719  1.7253 -0.9966
 4370TIP3    H234526   4.624   6.423   6.356  0.4603 -0.1985  0.1331
 4371TIP3   OH234527   3.667   5.898  17.250 -0.0375 -0.1765 -0.2066
 4371TIP3    H134528   3.639   5.860  17.334 -0.5646 -0.2050 -0.3891
 4371TIP3    H234529   3.739   5.842  17.221  1.3570  0.8860  1.0812
 4372TIP3   OH234530   3.392   0.041  16.980 -0.2460  0.3312 -0.5259
 4372TIP3    H134531   3.324   0.056  17.044 -0.8252 -0.9580 -0.8132
 4372TIP3    H234532   3.352  -0.016  16.914  1.2001 -0.7570 -0.5107
 4373TIP3   OH234533   0.892   0.506  12.524 -0.4462 -0.1864  0.8157
 4373TIP3    H134534   0.807   0.481  12.559 -0.4417  0.1459  1.0754
 4373TIP3    H234535   0.954   0.450  12.570 -0.5092 -0.2938  0.7688
 4374TIP3   OH234536   3.727   1.376   0.865  0.1371 -0.4452  0.0503
 4374TIP3    H134537   3.676   1.361   0.945  1.3555 -0.5650  0.8313
 4374TIP3    H234538   3.816   1.348   0.888  0.9054  1.1976 -0.7617
 4375TIP3   OH234539   6.111   0.778  14.240  0.3921  0.4985  0.1484
 4375TIP3    H134540   6.071   0.831  14.308  0.1952  3.3538 -2.0057
 4375TIP3    H234541   6.067   0.806  14.159  1.6273 -1.6510 -1.3693
 4376TIP3   OH234542   5.144   6.702   1.879  0.8452  0.1676  0.3830
 4376TIP3    H134543   5.098   6.695   1.962  0.6655  1.2087  0.3810
 4376TIP3    H234544   5.108   6.631   1.825  1.9194 -1.3762  1.6221
 4377TIP3   OH234545   3.125   0.388   1.487 -0.2549  0.4694 -0.0218
 4377TIP3    H134546   3.070   0.463   1.463  0.7894  1.7107  1.2673
 4377TIP3    H234547   3.077   0.345   1.558  0.1528  1.2701  0.7705
 4378TIP3   OH234548   4.809   3.697   2.074 -0.1702  0.0578  0.4100
 4378TIP3    H134549   4.898   3.730   2.058 -0.6090  0.9964 -0.1298
 4378TIP3    H234550   4.782   3.659   1.991 -0.9064  1.2969  0.0598
 4379TIP3   OH234551   0.001   3.051   2.146  0.8343 -0.0361  0.5601
 4379TIP3    H134552  -0.023   3.017   2.061 -0.8555 -0.0078  1.0033
 4379TIP3    H234553   0.051   3.131   2.127  3.4147 -1.7743 -0.4328
 4380TIP3   OH234554   2.918   3.808   1.898 -0.1519 -0.5378  0.4245
 4380TIP3    H134555   2.921   3.718   1.866 -1.3265 -0.9491  1.3708
 4380TIP3    H234556   2.833   3.841   1.866  0.8557  0.7288 -1.1012
 4381TIP3   OH234557   1.675   0.504  13.543  0.6625  0.1846  0.4410
 4381TIP3    H134558   1.701   0.535  13.630 -1.1448  0.7453  0.8375
 4381TIP3    H234559   1.684   0.581  13.487 -0.7856  0.6104  0.7495
 4382TIP3   OH234560   2.549   0.105   4.420 -0.0688 -0.0789  0.7241
 4382TIP3    H134561   2.608   0.044   4.464  2.5900  1.4418 -0.4649
 4382TIP3    H234562   2.484   0.050   4.376  1.3565 -1.9501  0.8561
 4383TIP3   OH234563   6.710   2.259   4.957  0.1557  0.0336  0.4347
 4383TIP3    H134564   6.668   2.184   4.999 -1.1664  1.1026  1.1409
 4383TIP3    H234565   6.671   2.335   5.001  1.6887  1.1317 -0.0210
 4384TIP3   OH234566   3.742   1.945   6.007  0.0340  0.4751 -0.6162
 4384TIP3    H134567   3.670   1.890   6.039  2.0692 -1.4016  1.0966
 4384TIP3    H234568   3.788   1.971   6.087  2.8815 -0.8110 -1.7186
 4385TIP3   OH234569   1.394   1.195  13.041 -0.4467 -0.2211 -0.6766
 4385TIP3    H134570   1.305   1.172  13.014 -1.1806  1.2304  0.3493
 4385TIP3    H234571   1.382   1.246  13.122  1.3198 -0.0576 -0.4796
 4386TIP3   OH234572   0.713   3.576   3.555 -0.1277 -0.3076  0.4024
 4386TIP3    H134573   0.677   3.602   3.471 -1.1476  0.2468  0.9960
 4386TIP3    H234574   0.669   3.632   3.619 -0.0856 -1.3736  1.4019
 4387TIP3   OH234575   6.661   5.676   5.160 -0.3341  0.7074  0.1418
 4387TIP3    H134576   6.616   5.595   5.134 -0.1947  0.6697  0.0176
 4387TIP3    H234577   6.726   5.647   5.224 -1.3544  0.9214  1.3352
 4388TIP3   OH234578   2.970   4.747  14.083 -0.2295 -0.1756 -0.0498
 4388TIP3    H134579   3.000   4.837  14.096  0.2166 -0.5671  1.9750
 4388TIP3    H234580   2.878   4.755  14.061  0.0588  0.8110 -0.9791
 4389TIP3   OH234581   3.368   4.749   0.844 -0.3530  0.0790 -0.2891
 4389TIP3    H134582   3.385   4.748   0.750 -2.0888  1.5562 -0.6830
 4389TIP3    H234583   3.274   4.732   0.851  0.1075 -2.2814  1.3599
 4390TIP3   OH234584   3.450   2.730   0.435  0.5892  0.3358  0.2094
 4390TIP3    H134585   3.396   2.727   0.513 -0.3540 -0.1413 -0.4423
 4390TIP3    H234586   3.458   2.638   0.408 -0.2039  0.5942 -0.9837
 4391TIP3   OH234587   3.908   6.786   5.238  0.1132 -0.6140  0.0974
 4391TIP3    H134588   3.861   6.773   5.156 -2.1324  1.2906  0.9726
 4391TIP3    H234589   3.840   6.794   5.304  1.6795  1.1057  1.6355
 4392TIP3   OH234590   5.817   2.838   4.642  0.4763 -0.4146  0.3903
 4392TIP3    H134591   5.791   2.832   4.734 -1.5705 -2.5117 -0.2463
 4392TIP3    H234592   5.907   2.805   4.641  0.5036 -0.4340  1.6176
 4393TIP3   OH234593   4.489   0.801  12.595 -0.2438 -0.9370  0.0696
 4393TIP3    H134594   4.460   0.862  12.664 -0.8765 -1.6975  0.4938
 4393TIP3    H234595   4.413   0.744  12.581 -1.5437  1.3281 -3.7824
 4394TIP3   OH234596   1.541   0.957   4.995  0.5260 -0.5476  0.6226
 4394TIP3    H134597   1.570   0.990   5.081 -1.1524  0.2853  0.8956
 4394TIP3    H234598   1.495   1.031   4.955  0.9166 -1.0652 -0.8346
 4395TIP3   OH234599   0.739   2.203   6.322  0.0876 -0.4181  0.8861
 4395TIP3    H134600   0.649   2.221   6.294  0.2510 -0.0567  0.5805
 4395TIP3    H234601   0.753   2.259   6.398 -0.0925 -0.8135  1.2179
 4396TIP3   OH234602   1.844   0.556  12.044 -0.3307  0.2742 -0.9396
 4396TIP3    H134603   1.795   0.539  12.124  0.8117  1.2413 -0.0044
 4396TIP3    H234604   1.779   0.594  11.984 -2.1397 -3.7938 -1.8971
 4397TIP3   OH234605   2.053   1.008   3.147  0.1299 -0.3696 -0.1110
 4397TIP3    H134606   1.967   1.040   3.176  0.0619 -0.6546  0.0072
 4397TIP3    H234607   2.101   0.993   3.228  0.5124  0.3850 -0.1948
 4398TIP3   OH234608   2.231   3.705  14.834 -0.0538 -0.4557  0.1132
 4398TIP3    H134609   2.286   3.631  14.861  0.3840 -0.4548 -0.7400
 4398TIP3    H234610   2.278   3.743  14.760 -1.0923 -0.2988 -0.4723
 4399TIP3   OH234611   2.110   2.672   6.138  0.2134  0.0219 -0.1467
 4399TIP3    H134612   2.091   2.763   6.116  1.9379  0.9059  1.6987
 4399TIP3    H234613   2.167   2.677   6.215  1.1502 -2.6013 -0.5600
 4400TIP3   OH234614   6.489   2.055  15.771  0.1550 -0.8582 -0.0419
 4400TIP3    H134615   6.519   2.025  15.857  0.6505 -1.6997 -0.4904
 4400TIP3    H234616   6.417   2.115  15.790  1.3312  0.2863  1.0264
 4401TIP3   OH234617   4.500   3.554   4.581 -0.4368 -0.1302  0.0575
 4401TIP3    H134618   4.428   3.531   4.522 -0.1810  0.9668 -0.7047
 4401TIP3    H234619   4.544   3.627   4.538  0.3271  0.0823  1.1633
 4402TIP3   OH234620   5.289   6.381   0.963 -1.2246 -0.2390  0.7892
 4402TIP3    H134621   5.230   6.442   1.007 -2.7877 -0.1793 -1.2475
 4402TIP3    H234622   5.304   6.312   1.028 -2.6639  0.3101  1.7643
 4403TIP3   OH234623   3.542   1.629  12.735  0.1355  0.1824 -0.1185
 4403TIP3    H134624   3.541   1.635  12.831 -1.4813 -0.9214 -0.0307
 4403TIP3    H234625   3.619   1.576  12.715  0.1869 -0.0310  0.6208
 4404TIP3   OH234626   4.249   2.157   5.699  0.5711  0.4010 -0.6969
 4404TIP3    H134627   4.221   2.087   5.759  0.8163 -0.5755 -1.6848
 4404TIP3    H234628   4.206   2.236   5.732  0.4941 -0.1639  0.6005
 4405TIP3   OH234629   6.008   6.060   5.850  0.3424 -0.0660 -0.2096
 4405TIP3    H134630   5.992   6.064   5.756  0.0262  0.8030 -0.1320
 4405TIP3    H234631   5.982   5.972   5.876 -0.1619 -0.1061 -0.8324
 4406TIP3   OH234632   3.491   5.427   5.638  0.1196 -0.0473  0.0227
 4406TIP3    H134633   3.407   5.423   5.684  0.2539  1.2266  0.4086
 4406TIP3    H234634   3.502   5.339   5.601 -1.4392 -0.2057 -0.1493
 4407TIP3   OH234635   1.074   0.935  16.265  0.1546 -0.0032 -0.4790
 4407TIP3    H134636   1.068   1.029  16.281  0.2690  0.0239 -0.5903
 4407TIP3    H234637   1.168   0.916  16.272 -0.0539 -0.5136  1.8340
 4408TIP3   OH234638   1.617   0.968  12.442  0.2821  0.1359 -0.5646
 4408TIP3    H134639   1.571   1.051  12.452  1.0850  0.6426 -0.9384
 4408TIP3    H234640   1.548   0.904  12.427 -0.3396  0.7517 -0.4128
 4409TIP3   OH234641   3.103   5.544  10.712  0.0773 -0.0590 -0.3674
 4409TIP3    H134642   3.124   5.464  10.663  0.6481 -0.8804  1.1653
 4409TIP3    H234643   3.026   5.521  10.764 -0.3626  0.7229 -0.6434
 4410TIP3   OH234644   4.686   0.731   0.392 -0.3564 -0.5143 -0.6830
 4410TIP3    H134645   4.593   0.710   0.398 -0.8108  1.6312  1.0307
 4410TIP3    H234646   4.708   0.765   0.479  2.3882 -2.2197 -0.6152
 4411TIP3   OH234647   6.615   1.537  16.460  0.1497 -0.0782 -0.0365
 4411TIP3    H134648   6.579   1.464  16.511  0.5185  0.4524  1.0095
 4411TIP3    H234649   6.550   1.553  16.392 -0.8015 -0.1917  0.8290
 4412TIP3   OH234650   3.682   4.985  17.055 -0.5444  0.7713  0.7749
 4412TIP3    H134651   3.766   4.996  17.011  0.7207 -1.3088  2.5036
 4412TIP3    H234652   3.703   4.984  17.148 -2.1298 -1.9679  1.2021
 4413TIP3   OH234653   3.883   3.791   4.659  0.3750  0.2071 -0.0345
 4413TIP3    H134654   3.923   3.877   4.667  0.2810  0.1521  1.2746
 4413TIP3    H234655   3.955   3.733   4.633  0.9380  0.2915  1.2855
 4414TIP3   OH234656   1.433   6.510  14.638  0.2527  0.4889 -0.3759
 4414TIP3    H134657   1.518   6.547  14.614  0.7222 -0.6715 -0.5517
 4414TIP3    H234658   1.371   6.552  14.578  0.9163  0.2538 -1.2429
 4415TIP3   OH234659   5.665   0.471  10.795 -0.3652  0.4074 -0.0157
 4415TIP3    H134660   5.608   0.531  10.746 -0.5263  0.6763  0.5010
 4415TIP3    H234661   5.606   0.400  10.822  0.3320 -1.4897 -3.0246
 4416TIP3   OH234662   5.284   6.350  16.385 -0.2582 -0.3974 -0.5890
 4416TIP3    H134663   5.191   6.336  16.366 -0.7602  2.9985 -1.1515
 4416TIP3    H234664   5.295   6.445  16.386  3.3734 -0.6530 -1.2591
 4417TIP3   OH234665   6.522   0.928  14.922 -0.1921 -0.3367 -0.4644
 4417TIP3    H134666   6.519   1.019  14.891 -1.2241  0.2722  1.2672
 4417TIP3    H234667   6.588   0.928  14.991 -1.1161 -0.5491  0.4552
 4418TIP3   OH234668   2.335   0.942  13.491 -0.4075  0.1985 -0.3195
 4418TIP3    H134669   2.309   1.029  13.521 -0.4042  0.4614 -1.0669
 4418TIP3    H234670   2.348   0.951  13.397  0.8124 -0.3085 -0.2300
 4419TIP3   OH234671   6.166   0.353   5.096  0.3468 -0.2263 -0.1467
 4419TIP3    H134672   6.167   0.263   5.129 -0.4923 -1.2216 -2.5819
 4419TIP3    H234673   6.105   0.351   5.022  0.8604  2.1841 -0.7410
 4420TIP3   OH234674   4.169   0.701  13.337 -0.2165 -0.4610  0.7851
 4420TIP3    H134675   4.202   0.789  13.353 -0.1840 -0.3253  0.0447
 4420TIP3    H234676   4.190   0.651  13.416 -0.4135  0.2423  1.2854
 4421TIP3   OH234677   0.138   3.982  11.852  0.0087 -0.1129 -0.4256
 4421TIP3    H134678   0.183   3.913  11.901 -1.0643 -0.6764 -0.1840
 4421TIP3    H234679   0.058   3.939  11.820  0.4416  0.3728 -2.2718
 4422TIP3   OH234680   2.878   4.550  12.881 -0.2600 -0.2660  0.1089
 4422TIP3    H134681   2.898   4.640  12.905 -2.8030  0.7627 -1.2299
 4422TIP3    H234682   2.836   4.513  12.958 -0.0160 -0.0056  0.3666
 4423TIP3   OH234683   0.370   4.069  17.168  0.5713 -0.2953  0.2340
 4423TIP3    H134684   0.327   3.984  17.183  0.0866 -0.3909 -1.4628
 4423TIP3    H234685   0.302   4.134  17.185  0.8679 -0.2437  1.2770
 4424TIP3   OH234686   2.557   4.453   4.505 -0.3609 -0.5837 -0.0129
 4424TIP3    H134687   2.462   4.462   4.511 -0.1610  2.1305  0.2424
 4424TIP3    H234688   2.584   4.523   4.445  1.4663 -1.3435 -0.1270
 4425TIP3   OH234689   2.745   2.833  11.687 -0.0180  0.3034 -0.0330
 4425TIP3    H134690   2.656   2.868  11.683 -0.8538 -1.7621 -0.4639
 4425TIP3    H234691   2.789   2.888  11.752 -1.7532  1.0283  0.5811
 4426TIP3   OH234692   6.635   4.627  12.970  0.3438  0.1120  0.3007
 4426TIP3    H134693   6.620   4.680  13.049  0.5985 -0.8946  1.0458
 4426TIP3    H234694   6.715   4.663  12.933 -0.4556  1.4223 -0.2220
 4427TIP3   OH234695   6.480   2.246   0.678  0.6978 -0.6487  0.5659
 4427TIP3    H134696   6.550   2.206   0.731  1.7396  0.1749 -0.1419
 4427TIP3    H234697   6.525   2.314   0.627 -0.9971  1.3857  1.6477
 4428TIP3   OH234698   5.600   0.781  14.574  0.6529 -0.3485  0.7000
 4428TIP3    H134699   5.544   0.755  14.647 -1.2913  1.2497 -0.1131
 4428TIP3    H234700   5.583   0.717  14.506  0.0192 -0.0591  0.5750
 4429TIP3   OH234701   3.601   0.709  12.017 -0.0141  0.3724 -0.4190
 4429TIP3    H134702   3.601   0.772  11.944 -2.5919  1.9010  0.7465
 4429TIP3    H234703   3.543   0.638  11.988  0.8225 -0.1898 -0.7340
 4430TIP3   OH234704   0.636   0.333   1.536  0.1325  0.7052  0.6746
 4430TIP3    H134705   0.661   0.370   1.621 -1.1521  1.1517  0.8834
 4430TIP3    H234706   0.632   0.407   1.477 -0.1223  0.5587  0.5073
 4431TIP3   OH234707   2.181   6.583   0.252 -0.1788 -0.2302 -0.2223
 4431TIP3    H134708   2.208   6.609   0.164  0.4710  3.0228  0.7922
 4431TIP3    H234709   2.103   6.636   0.270 -0.2899 -0.8301  1.1911
 4432TIP3   OH234710   0.417   0.205   4.077 -0.0596 -0.4197 -0.2468
 4432TIP3    H134711   0.459   0.157   4.006  2.0908  2.3698 -1.0440
 4432TIP3    H234712   0.452   0.167   4.157  3.3480  1.0748 -0.8729
 4433TIP3   OH234713   6.063   6.627  12.383 -0.2375  0.0750  0.2853
 4433TIP3    H134714   6.070   6.549  12.439  1.6978 -0.2947 -0.3893
 4433TIP3    H234715   6.145   6.674  12.398 -0.4481  0.8667 -0.9421
 4434TIP3   OH234716   1.139   0.168  16.995  0.2183 -0.0524 -0.2102
 4434TIP3    H134717   1.169   0.170  16.904 -1.3588 -0.0786 -0.7610
 4434TIP3    H234718   1.214   0.135  17.045  1.1804  0.1871 -1.4606
 4435TIP3   OH234719   6.466   3.920   0.641  0.1434  0.6238 -0.1316
 4435TIP3    H134720   6.506   4.007   0.638  0.9107  0.3752  1.5982
 4435TIP3    H234721   6.538   3.862   0.664 -0.1943 -0.6125 -2.0276
 4436TIP3   OH234722   0.282   2.840   4.422 -0.0797 -0.0413  0.1418
 4436TIP3    H134723   0.272   2.805   4.511 -0.6095  1.0192  0.5080
 4436TIP3    H234724   0.366   2.885   4.424 -0.1976  0.1769  0.1707
 4437TIP3   OH234725   0.292   0.097  15.823  0.2092  0.2786 -0.1165
 4437TIP3    H134726   0.354   0.146  15.770  0.5058  1.1513  0.9909
 4437TIP3    H234727   0.247   0.163  15.875 -0.9366 -0.4380 -0.1541
 4438TIP3   OH234728   3.226   2.118   5.833  0.3821  0.0500  0.4013
 4438TIP3    H134729   3.198   2.054   5.898  2.3185  0.7725  2.0851
 4438TIP3    H234730   3.205   2.078   5.749 -0.3024 -1.8805  1.4235
 4439TIP3   OH234731   6.108   1.036   3.662 -0.2899  0.4407  0.0060
 4439TIP3    H134732   6.023   1.029   3.618 -0.0728 -3.3825 -0.1118
 4439TIP3    H234733   6.172   1.017   3.594  0.4108 -0.3454  0.8668
 4440TIP3   OH234734   5.065   6.247   1.184  0.5571 -0.3138  1.0891
 4440TIP3    H134735   5.000   6.271   1.117  0.7671 -1.5235  0.4315
 4440TIP3    H234736   5.098   6.331   1.214  0.5334  0.2824 -0.4220
 4441TIP3   OH234737   2.034   0.356  12.165  0.0532 -0.5094 -0.1319
 4441TIP3    H134738   1.984   0.437  12.181  2.1795  0.5928  1.4393
 4441TIP3    H234739   1.988   0.289  12.215 -1.3046 -0.1311 -0.8268
 4442TIP3   OH234740   1.316   5.109  14.174 -0.2224 -0.1439 -0.3133
 4442TIP3    H134741   1.392   5.069  14.216 -0.6643 -0.9283 -0.2328
 4442TIP3    H234742   1.241   5.070  14.220 -0.6758  0.3036 -0.6686
 4443TIP3   OH234743   2.119   5.390   0.577 -0.2052  0.3746  0.4024
 4443TIP3    H134744   2.038   5.411   0.531 -0.1574 -0.4212 -0.0682
 4443TIP3    H234745   2.090   5.355   0.661 -0.4750 -1.7269 -0.4826
 4444TIP3   OH234746   6.746   3.792   2.337  0.0911 -0.1397  0.0386
 4444TIP3    H134747   6.686   3.846   2.285 -0.1218 -0.5113 -0.1056
 4444TIP3    H234748   6.755   3.839   2.420 -1.2789 -0.6321  0.4997
 4445TIP3   OH234749   2.093   1.168  16.077 -0.3877  0.1691  0.0000
 4445TIP3    H134750   2.098   1.209  16.164 -0.1042  0.3284 -0.0906
 4445TIP3    H234751   1.999   1.160  16.060 -0.4441  0.2494  0.2707
 4446TIP3   OH234752   2.205   4.187   4.970 -0.3555 -0.8675  0.7168
 4446TIP3    H134753   2.131   4.238   5.004 -0.6409 -0.3226 -0.6838
 4446TIP3    H234754   2.267   4.253   4.940  0.5005 -1.3328  1.4011
 4447TIP3   OH234755   3.359   3.968  13.618 -0.3058 -0.2186  0.3287
 4447TIP3    H134756   3.442   3.950  13.574 -1.7118  1.2790 -3.4184
 4447TIP3    H234757   3.303   3.895  13.594 -0.2059 -1.2111  2.8160
 4448TIP3   OH234758   0.452   6.338  15.036  0.2116  0.1923  0.1181
 4448TIP3    H134759   0.430   6.408  14.974  0.5360 -1.0181 -1.4429
 4448TIP3    H234760   0.405   6.261  15.002 -0.6252 -0.2423  2.1288
 4449TIP3   OH234761   0.777   5.242  13.766  0.5275  0.6701 -0.1046
 4449TIP3    H134762   0.727   5.193  13.701  2.1108 -1.7021  0.3244
 4449TIP3    H234763   0.858   5.267  13.721  1.3797 -0.4791  0.7176
 4450TIP3   OH234764   6.194   6.301  16.972  0.2155  0.1274  0.2334
 4450TIP3    H134765   6.235   6.379  17.010 -1.2934  1.3124 -0.4324
 4450TIP3    H234766   6.184   6.322  16.879 -0.7962 -0.5835  0.1572
 4451TIP3   OH234767   0.490   2.445   1.390 -0.7191  0.2112 -0.3955
 4451TIP3    H134768   0.436   2.523   1.378  0.0026  1.0015  1.1259
 4451TIP3    H234769   0.439   2.374   1.351 -2.2764  1.1288 -0.1358
 4452TIP3   OH234770   5.711   6.074   5.310 -0.2726  0.2888  0.0727
 4452TIP3    H134771   5.795   6.063   5.355 -0.8866 -1.3918  0.9001
 4452TIP3    H234772   5.701   5.995   5.257 -2.0003 -0.3176  1.1961
 4453TIP3   OH234773   0.610   1.545   5.573 -0.9793 -0.5472  0.4177
 4453TIP3    H134774   0.580   1.635   5.568 -0.0877 -0.1852  1.2768
 4453TIP3    H234775   0.531   1.492   5.559 -1.6013  0.3590  0.4449
 4454TIP3   OH234776   0.398   5.942  16.834  0.0050  0.9821 -0.1565
 4454TIP3    H134777   0.467   5.885  16.801  0.3077  1.1947  0.1096
 4454TIP3    H234778   0.443   6.020  16.865 -0.2943  0.8900  0.5447
 4455TIP3   OH234779   5.903   5.041   4.143  0.1021  0.4617  0.6867
 4455TIP3    H134780   5.879   5.074   4.057  0.4884 -2.2804 -0.5616
 4455TIP3    H234781   5.992   5.007   4.132 -0.4085 -1.3202  1.7452
 4456TIP3   OH234782   3.769   5.514  16.120 -0.2509 -0.4663  0.1465
 4456TIP3    H134783   3.739   5.424  16.132 -2.0193 -0.0884 -1.0778
 4456TIP3    H234784   3.821   5.512  16.039  1.6568 -0.7765  1.3219
 4457TIP3   OH234785   3.987   5.244   1.521  0.5100  0.0113 -0.1110
 4457TIP3    H134786   3.927   5.315   1.499 -0.2140 -0.4868  0.2100
 4457TIP3    H234787   3.993   5.247   1.617  1.3097  0.3036 -0.1678
 4458TIP3   OH234788   5.174   5.177  13.615 -0.2653 -0.1601 -0.2239
 4458TIP3    H134789   5.223   5.099  13.593 -0.6465 -0.2791 -0.6684
 4458TIP3    H234790   5.084   5.146  13.629 -0.4996  0.2423 -0.7714
 4459TIP3   OH234791   4.639   1.707   2.062  0.1228 -0.1519  0.0232
 4459TIP3    H134792   4.565   1.760   2.091  0.0038 -0.1398 -0.3078
 4459TIP3    H234793   4.715   1.762   2.077  0.0350 -0.0361  0.0468
 4460TIP3   OH234794   3.763   0.760  12.330 -0.1791  0.3800  0.0006
 4460TIP3    H134795   3.701   0.699  12.370 -2.5380  1.0415 -2.3290
 4460TIP3    H234796   3.767   0.834  12.391 -1.9740  0.4388  0.1080
 4461TIP3   OH234797   4.066   5.993   2.941  0.7976  0.0168 -0.1733
 4461TIP3    H134798   4.147   5.990   2.992 -0.1444  1.0417  1.4850
 4461TIP3    H234799   4.057   6.086   2.918  0.3137 -0.1576 -0.6861
 4462TIP3   OH234800   3.907   4.322  12.511 -0.5553 -0.0129 -0.1863
 4462TIP3    H134801   3.942   4.315  12.422  1.5388  1.1740  0.4760
 4462TIP3    H234802   3.839   4.389  12.505 -0.7113 -0.2261 -0.9474
 4463TIP3   OH234803   2.995   3.104   0.004 -0.2576  0.3366  0.0031
 4463TIP3    H134804   3.027   3.129  -0.083 -0.1779 -0.9865 -0.3635
 4463TIP3    H234805   3.074   3.083   0.053 -0.4119 -1.0142 -0.2913
 4464TIP3   OH234806   0.157   2.824   1.563  0.3704 -0.2192 -0.0900
 4464TIP3    H134807   0.194   2.909   1.586  1.6193  0.4000 -3.6481
 4464TIP3    H234808   0.198   2.762   1.624 -0.1892  1.5811  2.2571
 4465TIP3   OH234809   0.613   6.526   4.307 -0.2970  0.2449  0.3197
 4465TIP3    H134810   0.677   6.456   4.324 -0.7803 -0.7713 -1.8028
 4465TIP3    H234811   0.541   6.482   4.263 -1.2662  1.8698  0.2355
 4466TIP3   OH234812   5.195   3.733  13.021 -0.2412 -0.2971  0.1171
 4466TIP3    H134813   5.125   3.668  13.025 -1.0870  0.5788 -0.2593
 4466TIP3    H234814   5.214   3.754  13.112  1.1752 -2.2252  0.3459
 4467TIP3   OH234815   2.791   2.332   1.923 -0.0816 -0.4989  0.0087
 4467TIP3    H134816   2.830   2.300   2.004 -0.3676 -0.6542  0.0900
 4467TIP3    H234817   2.794   2.256   1.864  3.3591  0.5343 -1.3804
 4468TIP3   OH234818   0.148   2.417  17.043 -0.1993 -0.1167  0.2835
 4468TIP3    H134819   0.174   2.440  16.954 -1.0052  1.2553  0.3731
 4468TIP3    H234820   0.094   2.490  17.072 -3.3804 -2.3110  0.4328
 4469TIP3   OH234821   6.245   4.402  16.563 -0.5947  0.0712  0.1202
 4469TIP3    H134822   6.177   4.342  16.532  0.4906 -0.5703 -1.1432
 4469TIP3    H234823   6.326   4.350  16.559  0.4882  1.7768 -1.6008
 4470TIP3   OH234824   5.830   0.904   0.404  0.5452  0.0361 -0.5439
 4470TIP3    H134825   5.874   0.876   0.484 -0.1369  1.9464  0.5910
 4470TIP3    H234826   5.838   1.000   0.405 -0.9848  0.2198 -1.8634
 4471TIP3   OH234827   6.272   3.744  15.361  0.0879  0.2452  0.3016
 4471TIP3    H134828   6.276   3.705  15.448 -1.5657 -0.1507  0.2291
 4471TIP3    H234829   6.358   3.728  15.323  0.7606  0.2383  1.7720
 4472TIP3   OH234830   2.659   0.750   0.983 -0.1050 -0.0521  0.1980
 4472TIP3    H134831   2.676   0.728   1.075 -0.9985 -2.7049 -0.1807
 4472TIP3    H234832   2.567   0.778   0.982 -0.2752 -0.6097  0.0377
 4473TIP3   OH234833   5.557   5.119  10.773  0.1000 -0.5178  0.2526
 4473TIP3    H134834   5.523   5.209  10.777  0.3083 -0.3956 -0.6006
 4473TIP3    H234835   5.522   5.084  10.691 -2.8903 -2.4286  2.1516
 4474TIP3   OH234836   1.867   3.500   5.705 -0.4549  0.3016  0.2488
 4474TIP3    H134837   1.901   3.486   5.794  0.9548 -1.4362 -0.5045
 4474TIP3    H234838   1.922   3.445   5.649 -2.2111  0.2546 -1.5422
 4475TIP3   OH234839   5.670   6.684  14.596  0.3732 -0.5296  0.0877
 4475TIP3    H134840   5.722   6.618  14.642  0.2492 -0.3706  0.4667
 4475TIP3    H234841   5.595   6.635  14.561  0.1350 -0.5497  0.6061
 4476TIP3   OH234842   5.079   0.519   5.769  0.2287 -0.3531 -0.3969
 4476TIP3    H134843   5.111   0.471   5.693 -0.0126  0.7282 -1.2084
 4476TIP3    H234844   5.122   0.477   5.844 -1.5200 -3.1470 -0.8322
 4477TIP3   OH234845   0.672   0.493  12.887 -0.3131 -0.3720  0.0140
 4477TIP3    H134846   0.764   0.474  12.870  0.9970  3.8848  1.1696
 4477TIP3    H234847   0.667   0.509  12.981 -1.2807  2.9934 -0.4491
 4478TIP3   OH234848   2.964   4.742  15.448  1.3273 -0.1332 -0.6699
 4478TIP3    H134849   2.971   4.670  15.511  0.6595 -0.4960 -0.9896
 4478TIP3    H234850   2.870   4.756  15.439  1.3621 -0.7448 -2.3058
 4479TIP3   OH234851   2.126   2.755   5.064  0.0578  0.2682 -0.0598
 4479TIP3    H134852   2.040   2.764   5.025  0.1144  0.9408 -0.0351
 4479TIP3    H234853   2.156   2.845   5.078 -0.0860  0.0833  1.7866
 4480TIP3   OH234854   3.113   2.666  13.419 -0.2477  0.1490 -0.7725
 4480TIP3    H134855   3.034   2.659  13.473  0.9925 -0.2835  1.0669
 4480TIP3    H234856   3.079   2.672  13.330 -2.4026  1.3015  0.0303
 4481TIP3   OH234857   0.793   6.684  12.079 -0.2372 -0.4405  0.0732
 4481TIP3    H134858   0.867   6.629  12.051  0.4916  0.1152  0.8462
 4481TIP3    H234859   0.834   6.761  12.119 -1.2019 -0.5922  1.4537
 4482TIP3   OH234860   4.571   4.323   4.119  0.5376  0.0015  0.1460
 4482TIP3    H134861   4.541   4.322   4.209  1.0547 -0.0417  0.3192
 4482TIP3    H234862   4.528   4.248   4.078 -2.1451  1.7315 -0.4594
 4483TIP3   OH234863   2.107   6.620   4.072 -0.5262 -0.7031 -0.1115
 4483TIP3    H134864   2.177   6.562   4.044 -0.4220 -1.1670  1.0885
 4483TIP3    H234865   2.132   6.650   4.159 -1.2269  0.0940 -0.1647
 4484TIP3   OH234866   4.539   5.484   3.904  0.0478  0.2001 -0.4659
 4484TIP3    H134867   4.529   5.514   3.813 -0.0772 -0.5730 -0.7178
 4484TIP3    H234868   4.538   5.564   3.956 -0.2214  0.6310 -1.1206
 4485TIP3   OH234869   2.102   6.236   6.008  0.4673  0.3994  0.1903
 4485TIP3    H134870   2.148   6.268   5.931 -1.5938 -0.3651 -1.4678
 4485TIP3    H234871   2.011   6.228   5.980  0.0112 -2.0576  1.9963
 4486TIP3   OH234872   2.164   3.774   4.417 -0.3154 -0.0781 -0.0963
 4486TIP3    H134873   2.106   3.716   4.467  2.5023 -2.5464  0.5959
 4486TIP3    H234874   2.202   3.832   4.483  0.7083 -0.9477  0.1103
 4487TIP3   OH234875   6.775   0.081   0.347 -0.2750 -0.4182  0.1184
 4487TIP3    H134876   6.725   0.062   0.268 -0.6148  1.6483 -0.2173
 4487TIP3    H234877   6.744   0.167   0.375  2.5479  0.6508  0.2949
 4488TIP3   OH234878   4.194   2.754   5.758  0.3039  0.9062  0.0360
 4488TIP3    H134879   4.259   2.789   5.819 -0.0036 -1.2148  1.7168
 4488TIP3    H234880   4.242   2.692   5.704 -0.0505  0.3268  0.3750
 4489TIP3   OH234881   3.342   3.317   2.925  0.1756  0.8835  0.0686
 4489TIP3    H134882   3.317   3.317   2.832  2.2141 -0.5862 -0.5523
 4489TIP3    H234883   3.376   3.229   2.940  0.8218  1.4233  1.9587
 4490TIP3   OH234884   2.064   1.733  11.963  0.3696  0.3076  0.0114
 4490TIP3    H134885   2.073   1.814  12.014  0.6917 -0.6374  1.5115
 4490TIP3    H234886   2.058   1.664  12.029  0.0753 -0.8966 -1.2452
 4491TIP3   OH234887   5.260   1.154   4.385 -0.0636 -0.1671  0.3794
 4491TIP3    H134888   5.220   1.070   4.407 -1.6606 -0.0442 -1.7568
 4491TIP3    H234889   5.246   1.164   4.291 -1.8595  3.4379  0.8718
 4492TIP3   OH234890   3.693   3.558  16.721  0.1065  0.1736  0.0984
 4492TIP3    H134891   3.745   3.567  16.801  0.0388  0.0281  0.1593
 4492TIP3    H234892   3.684   3.463  16.710 -0.0733  0.1985  0.0404
 4493TIP3   OH234893   5.086   0.525   3.676  0.4545  0.1154  0.2038
 4493TIP3    H134894   5.034   0.457   3.634 -0.0611 -0.7541  2.0962
 4493TIP3    H234895   5.147   0.476   3.732 -0.7929  1.1555  2.6115
 4494TIP3   OH234896   4.186   2.167  14.737 -0.5813  0.3351  0.1888
 4494TIP3    H134897   4.262   2.117  14.707 -0.4565  1.6132 -1.9094
 4494TIP3    H234898   4.118   2.101  14.752  0.1509 -0.6277 -0.5445
 4495TIP3   OH234899   4.157   6.648   2.479  0.4369  0.1242 -0.1568
 4495TIP3    H134900   4.117   6.725   2.519  1.7023  0.6147  0.2385
 4495TIP3    H234901   4.172   6.673   2.388  4.2588  1.9152  0.7335
 4496TIP3   OH234902   4.812   5.695   1.006 -0.5283 -0.8220  0.0332
 4496TIP3    H134903   4.745   5.696   1.075 -1.3338  1.5805 -0.6813
 4496TIP3    H234904   4.765   5.664   0.929 -0.3973 -0.6149 -0.1270
 4497TIP3   OH234905   3.281   2.781   3.444 -0.0692 -0.7189  0.2077
 4497TIP3    H134906   3.208   2.806   3.500 -0.4773 -0.4082 -0.4538
 4497TIP3    H234907   3.354   2.766   3.505 -0.8911 -1.8676  0.9515
 4498TIP3   OH234908   4.905   4.222   4.643  0.1863  0.2837 -0.4501
 4498TIP3    H134909   4.885   4.289   4.578  2.0473 -0.4225 -1.8736
 4498TIP3    H234910   4.994   4.192   4.620  0.3027 -1.0917  1.4911
 4499TIP3   OH234911   0.492   5.591  13.403 -0.4518  0.6053 -0.6978
 4499TIP3    H134912   0.400   5.615  13.408 -0.8162 -0.5067 -1.8360
 4499TIP3    H234913   0.495   5.512  13.350  0.7390 -1.6392  2.3783
 4500TIP3   OH234914   1.775   4.525  14.814  0.2170  0.0522  0.7032
 4500TIP3    H134915   1.722   4.503  14.738  1.8419  1.4789 -0.9411
 4500TIP3    H234916   1.862   4.490  14.794  0.6882  0.4779  1.8929
 4501TIP3   OH234917   6.131   0.079   3.511 -0.2795  0.2286  0.1646
 4501TIP3    H134918   6.134  -0.013   3.486  0.4217  0.2322  0.2087
 4501TIP3    H234919   6.216   0.096   3.551 -0.3682  0.9212  0.0778
 4502TIP3   OH234920   5.106   1.593   0.539 -0.1832 -0.0047 -0.2686
 4502TIP3    H134921   5.113   1.564   0.630  0.4958  1.6889  0.2472
 4502TIP3    H234922   5.017   1.568   0.512 -0.7835  0.4602  1.2076
 4503TIP3   OH234923   2.608   0.809   0.104 -0.6235 -0.2880  0.0272
 4503TIP3    H134924   2.653   0.746   0.047 -0.8230 -1.4854  1.1296
 4503TIP3    H234925   2.674   0.836   0.168 -0.1891  1.6246 -1.1485
 4504TIP3   OH234926   1.812   0.753  16.122  0.6181  0.5392  0.2663
 4504TIP3    H134927   1.727   0.736  16.081 -0.8830  2.6793  2.2628
 4504TIP3    H234928   1.862   0.801  16.055  0.5158 -1.1234 -1.0848
 4505TIP3   OH234929   2.371   5.039   1.743 -0.5814  0.4540 -0.4530
 4505TIP3    H134930   2.418   5.087   1.675 -0.0003  0.2169 -0.2301
 4505TIP3    H234931   2.414   5.066   1.825 -1.0354  0.4659 -0.2168
 4506TIP3   OH234932   0.638   1.893   5.458  0.5775  0.0817 -0.1303
 4506TIP3    H134933   0.636   1.982   5.423  0.6546  1.1242  2.3646
 4506TIP3    H234934   0.549   1.879   5.492  1.5855  0.7991  3.0682
 4507TIP3   OH234935   3.525   4.143  12.841  0.0402 -0.2649  0.4760
 4507TIP3    H134936   3.481   4.221  12.873 -0.0441 -0.4741  0.8700
 4507TIP3    H234937   3.618   4.162  12.853  0.0455  0.0330 -0.0265
 4508TIP3   OH234938   2.291   1.403  16.604  0.6207  0.2341 -0.4786
 4508TIP3    H134939   2.223   1.443  16.550  0.2628 -1.4878 -1.3822
 4508TIP3    H234940   2.364   1.389  16.545  0.2172 -1.7006 -0.5811
 4509TIP3   OH234941   3.545   6.578   3.526 -0.1489  0.0394  0.3468
 4509TIP3    H134942   3.505   6.507   3.476 -0.0617  0.2569 -0.0353
 4509TIP3    H234943   3.598   6.535   3.592  0.3951 -0.2495 -0.2776
 4510TIP3   OH234944   5.366   2.724   3.111  0.1502  0.1538  0.6516
 4510TIP3    H134945   5.418   2.647   3.089  1.2660  1.0724 -0.0967
 4510TIP3    H234946   5.340   2.711   3.202  2.0749 -0.1556  1.1972
 4511TIP3   OH234947   5.738   5.374  14.620  0.2795 -0.6632  0.3241
 4511TIP3    H134948   5.675   5.302  14.618 -1.6464  0.9331 -1.1406
 4511TIP3    H234949   5.779   5.372  14.533  0.2191 -0.0105  0.2779
 4512TIP3   OH234950   4.154   2.612  14.260  0.7737  0.6399 -0.6433
 4512TIP3    H134951   4.087   2.678  14.242  1.5901  1.3052 -1.3579
 4512TIP3    H234952   4.132   2.538  14.203  1.9027  1.7460 -2.6273
 4513TIP3   OH234953   0.436   1.140   2.772 -0.0393  0.2753 -0.6133
 4513TIP3    H134954   0.477   1.155   2.857 -0.1907 -2.1581 -0.0301
 4513TIP3    H234955   0.398   1.225   2.748  0.9008  1.2771  1.2389
 4514TIP3   OH234956   4.416   2.962   3.370 -0.2725 -0.3329  0.7198
 4514TIP3    H134957   4.383   2.873   3.382  0.9646 -0.7836  0.9135
 4514TIP3    H234958   4.363   3.016   3.428  0.0279 -1.1975  1.8141
 4515TIP3   OH234959   3.013   5.492  11.694 -0.4956 -0.7642  0.0051
 4515TIP3    H134960   3.035   5.487  11.787 -1.4215 -2.4290  0.1698
 4515TIP3    H234961   3.098   5.497  11.650 -0.0379 -0.1686  0.9128
 4516TIP3   OH234962   6.754   1.669   5.409  0.3215 -0.1322  0.2594
 4516TIP3    H134963   6.667   1.689   5.374 -0.2978 -1.2058  1.1216
 4516TIP3    H234964   6.793   1.755   5.427 -0.7924  0.3631  0.4197
 4517TIP3   OH234965   4.388   1.868   5.788 -0.0612  0.3863 -0.0353
 4517TIP3    H134966   4.343   1.812   5.723  0.1560 -0.6960  0.7184
 4517TIP3    H234967   4.317   1.910   5.836 -0.2781 -0.3966  0.3578
 4518TIP3   OH234968   3.806   3.024   0.954  0.0108 -0.1289 -0.0172
 4518TIP3    H134969   3.861   3.001   0.878  0.2115  3.9418 -1.3420
 4518TIP3    H234970   3.865   3.014   1.029  1.1582 -0.2468 -0.8938
 4519TIP3   OH234971   2.331   2.714   6.605  0.0891 -0.0203 -0.3618
 4519TIP3    H134972   2.285   2.630   6.604  0.8613 -0.4514 -1.3132
 4519TIP3    H234973   2.419   2.693   6.635  0.0785  0.5803  0.1251
 4520TIP3   OH234974   2.325   6.548  16.211 -0.1355  0.1319  0.1362
 4520TIP3    H134975   2.337   6.573  16.303 -0.1363  0.4152  0.0603
 4520TIP3    H234976   2.392   6.597  16.164  0.4599 -0.7047  0.0899
 4521TIP3   OH234977   0.668   0.708   3.453 -0.0118 -0.8517  0.1995
 4521TIP3    H134978   0.670   0.756   3.536  1.4345  2.0667 -1.3632
 4521TIP3    H234979   0.577   0.681   3.444 -0.2167 -1.2143  2.6765
 4522TIP3   OH234980   1.657   2.605   1.684  0.3353  0.4783  0.0502
 4522TIP3    H134981   1.723   2.553   1.640 -0.3593 -0.9000  0.5980
 4522TIP3    H234982   1.669   2.586   1.777 -2.0089 -1.3219  0.0726
 4523TIP3   OH234983   6.040   0.802  15.640 -0.0273 -0.1366  0.3584
 4523TIP3    H134984   6.085   0.818  15.557 -0.9815  0.7085 -0.0126
 4523TIP3    H234985   6.020   0.708  15.638  0.9870 -0.3692  0.1835
 4524TIP3   OH234986   1.619   2.574  14.340  0.3129 -0.7802 -0.4899
 4524TIP3    H134987   1.639   2.513  14.411  1.2489  1.5560  1.3944
 4524TIP3    H234988   1.681   2.646  14.351 -2.3107  1.7799 -0.9152
 4525TIP3   OH234989   6.091   6.620   6.354 -0.4364 -0.4058  0.1201
 4525TIP3    H134990   5.999   6.643   6.364 -1.1026 -2.9236  0.6172
 4525TIP3    H234991   6.137   6.679   6.414 -1.7361  0.7586  0.0189
 4526TIP3   OH234992   1.634   1.702  12.258  0.0987  0.2274 -0.3655
 4526TIP3    H134993   1.594   1.789  12.255 -0.3476  0.0719  0.7649
 4526TIP3    H234994   1.565   1.643  12.227 -0.6443 -0.0597  1.7309
 4527TIP3   OH234995   3.027   5.784  12.677 -0.2633  0.0999  0.5829
 4527TIP3    H134996   2.969   5.777  12.752  0.3567  0.0780  1.0663
 4527TIP3    H234997   3.008   5.706  12.625 -0.6656  0.0968  0.7343
 4528TIP3   OH234998   0.249   5.151  14.624  0.2649  0.1774 -0.1635
 4528TIP3    H134999   0.323   5.210  14.638 -0.9017  1.6745 -0.0438
 4528TIP3    H235000   0.287   5.063  14.629  1.8579  0.8787  0.8366
 4529TIP3   OH235001   4.324   4.139   3.177 -0.0227  0.2627  0.0710
 4529TIP3    H135002   4.295   4.220   3.134 -0.5031  0.7312  1.2501
 4529TIP3    H235003   4.243   4.099   3.210  0.4715  0.8585  2.1436
 4530TIP3   OH235004   3.734   3.027  14.126 -0.3887 -0.2171  0.5859
 4530TIP3    H135005   3.714   2.956  14.186  2.6439 -1.7068  0.0624
 4530TIP3    H235006   3.785   3.089  14.178 -1.8767  0.9647  0.6995
 4531TIP3   OH235007   4.741   0.014   4.067 -0.3037  0.2671 -0.0479
 4531TIP3    H135008   4.722   0.005   3.974 -1.0825  4.2063 -0.4412
 4531TIP3    H235009   4.670  -0.034   4.111 -1.0899  0.0498 -1.4953
 4532TIP3   OH235010   3.803   0.297   5.707 -0.2832 -0.2005  0.0504
 4532TIP3    H135011   3.855   0.218   5.699 -1.0963 -0.6722 -0.8197
 4532TIP3    H235012   3.863   0.369   5.687  0.5884 -0.5289  1.3542
 4533TIP3   OH235013   0.050   5.269  15.530 -0.2901  0.1746 -0.1567
 4533TIP3    H135014   0.108   5.304  15.462 -1.0148 -0.7114 -1.2771
 4533TIP3    H235015   0.102   5.203  15.575  0.1349  0.6293  0.0287
 4534TIP3   OH235016   5.696   1.578  11.668  0.7851  0.3529  0.1599
 4534TIP3    H135017   5.687   1.564  11.574  0.6064  0.4559  0.1613
 4534TIP3    H235018   5.710   1.491  11.705 -1.2686  0.0274  0.2891
 4535TIP3   OH235019   5.447   6.172   2.038 -0.2068  0.1998 -0.5907
 4535TIP3    H135020   5.511   6.232   1.999  1.1410 -0.0837  1.1185
 4535TIP3    H235021   5.364   6.219   2.031  0.4470  1.3026 -1.2972
 4536TIP3   OH235022   3.684   2.220   0.385 -0.4425 -0.0588 -0.1780
 4536TIP3    H135023   3.700   2.173   0.466  1.7338 -1.6062 -1.4078
 4536TIP3    H235024   3.620   2.166   0.338  0.9872 -1.1376 -0.9717
 4537TIP3   OH235025   5.477   0.974   1.895  0.2002 -0.5048  0.2654
 4537TIP3    H135026   5.391   0.983   1.936  1.3800  2.3846  2.5702
 4537TIP3    H235027   5.467   1.011   1.808 -0.5711  1.7053  1.2123
 4538TIP3   OH235028   5.166   0.577  16.225  0.3628 -0.2249  0.6752
 4538TIP3    H135029   5.111   0.632  16.281 -0.9256  0.6640 -1.3309
 4538TIP3    H235030   5.138   0.599  16.136  2.2097 -1.6767 -0.3284
 4539TIP3   OH235031   3.025   0.281   4.028  0.0964  0.0118  0.2886
 4539TIP3    H135032   2.958   0.228   4.071  0.3634 -0.6491 -0.0984
 4539TIP3    H235033   2.981   0.317   3.951  0.5204 -1.4722 -0.6872
 4540TIP3   OH235034   4.009   1.888   3.673 -0.7084 -0.4144 -0.4668
 4540TIP3    H135035   3.991   1.875   3.580  0.2210 -2.0018 -0.4621
 4540TIP3    H235036   3.933   1.936   3.706 -1.8538 -1.3177 -1.6955
 4541TIP3   OH235037   4.018   6.695  15.454 -0.3392 -0.1597  0.0734
 4541TIP3    H135038   4.109   6.725  15.457  0.1054 -1.3909 -0.5676
 4541TIP3    H235039   3.970   6.761  15.503  1.1064 -0.2587  1.7111
 4542TIP3   OH235040   0.778   1.867   3.774 -0.2039  0.5301 -0.2198
 4542TIP3    H135041   0.689   1.847   3.744 -0.6531  0.0643  1.3032
 4542TIP3    H235042   0.783   1.827   3.861  1.0255  1.7680  0.3158
 4543TIP3   OH235043   2.788   3.030  16.521  0.6560  0.0135  0.0506
 4543TIP3    H135044   2.849   3.017  16.449 -1.7805 -1.6379 -1.8966
 4543TIP3    H235045   2.706   2.989  16.491 -1.1035  1.1045  2.9219
 4544TIP3   OH235046   4.023   3.274  16.362 -0.0394  0.1157  0.0574
 4544TIP3    H135047   4.054   3.185  16.381  2.6406  0.8679 -0.4158
 4544TIP3    H235048   4.103   3.327  16.357 -1.5703  2.6630  0.7107
 4545TIP3   OH235049   6.239   2.287   0.808  0.0987  0.4153 -0.3942
 4545TIP3    H135050   6.307   2.256   0.749 -0.0087  0.9768 -0.8262
 4545TIP3    H235051   6.272   2.268   0.895  0.4395 -0.0584 -0.6225
 4546TIP3   OH235052   1.177   5.326  15.118 -0.1825  0.0243 -0.3933
 4546TIP3    H135053   1.175   5.232  15.101  0.9325 -0.5694  2.2065
 4546TIP3    H235054   1.267   5.345  15.142 -0.5753  1.5809 -0.0067
 4547TIP3   OH235055   5.650   2.312  17.232 -0.2047 -0.4798  0.2442
 4547TIP3    H135056   5.671   2.219  17.235  0.6748 -0.2688  1.1158
 4547TIP3    H235057   5.603   2.329  17.314  0.8549  0.1010  0.7593
 4548TIP3   OH235058   6.731   6.096   3.866  0.3538 -0.2728  0.0851
 4548TIP3    H135059   6.734   6.178   3.915  0.0356  0.4387 -1.0514
 4548TIP3    H235060   6.822   6.069   3.859  0.3716 -0.6066  1.4097
 4549TIP3   OH235061   3.487   2.217   0.727 -0.1855 -0.3983 -0.1661
 4549TIP3    H135062   3.554   2.173   0.674  0.4953 -1.3827  1.4599
 4549TIP3    H235063   3.465   2.155   0.796 -2.1523  0.2683 -0.1369
 4550TIP3   OH235064   6.282   3.636   2.061  0.1630 -0.1670  0.5392
 4550TIP3    H135065   6.310   3.564   2.118  0.0300 -0.2775  0.4661
 4550TIP3    H235066   6.218   3.684   2.112 -2.2690 -2.0136 -0.5562
 4551TIP3   OH235067   4.721   0.374   2.279 -0.2956  0.2325  0.5572
 4551TIP3    H135068   4.769   0.309   2.228 -0.6108 -1.0856  1.8712
 4551TIP3    H235069   4.773   0.386   2.358  0.7582  3.0737 -0.4674
 4552TIP3   OH235070   4.304   0.698  13.795  0.5879  0.2772 -0.0631
 4552TIP3    H135071   4.285   0.791  13.784  1.6228  0.2486 -2.9718
 4552TIP3    H235072   4.341   0.671  13.711  1.5121 -2.4955  1.1164
 4553TIP3   OH235073   3.370   0.202   4.675 -0.2815 -0.4612 -0.1024
 4553TIP3    H135074   3.326   0.253   4.607  0.6563 -0.4460 -0.7218
 4553TIP3    H235075   3.421   0.136   4.626  0.6082 -0.2888  0.5646
 4554TIP3   OH235076   3.950   3.463   3.790  0.2667 -0.9853 -0.3151
 4554TIP3    H135077   3.861   3.481   3.819 -0.5615 -1.7422 -2.2529
 4554TIP3    H235078   3.946   3.464   3.695  2.2600 -1.4085 -0.4626
 4555TIP3   OH235079   5.003   1.287  16.499 -0.1219 -0.2228  0.1069
 4555TIP3    H135080   5.081   1.285  16.444  0.4382 -1.5841  0.8941
 4555TIP3    H235081   4.990   1.379  16.519  0.7397  0.1080 -0.7969
 4556TIP3   OH235082   6.295   4.260  12.333 -0.2796 -0.1754 -0.3637
 4556TIP3    H135083   6.216   4.224  12.291 -1.1703  0.1711  0.9757
 4556TIP3    H235084   6.264   4.334  12.384  0.7797 -0.5343  0.8535
 4557TIP3   OH235085   6.380   3.913   2.034  0.1195  0.3060  0.2853
 4557TIP3    H135086   6.476   3.911   2.033  0.1511  0.1609  1.9794
 4557TIP3    H235087   6.354   3.822   2.043 -0.1332  0.4834  1.4041
 4558TIP3   OH235088   4.477   1.232  11.748 -0.3812  0.7906 -0.5368
 4558TIP3    H135089   4.430   1.169  11.802 -0.2629  0.0951 -1.2209
 4558TIP3    H235090   4.411   1.262  11.684  0.6505 -2.2754 -3.3186
 4559TIP3   OH235091   4.350   3.239  16.731 -0.0068 -0.1976  0.0228
 4559TIP3    H135092   4.429   3.257  16.783  0.7050  0.6503 -1.2983
 4559TIP3    H235093   4.383   3.197  16.651 -1.1392 -2.1010  0.4839
 4560TIP3   OH235094   2.611   6.447  16.830 -0.0386 -0.5293  0.0368
 4560TIP3    H135095   2.630   6.401  16.911  0.8063 -0.8284 -0.3106
 4560TIP3    H235096   2.630   6.384  16.761  0.4167  0.0943 -0.4262
 4561TIP3   OH235097   2.789   6.532   1.250 -0.1879 -0.2668 -0.0207
 4561TIP3    H135098   2.759   6.575   1.331  0.8654 -2.4040  1.6006
 4561TIP3    H235099   2.879   6.562   1.238 -1.0226  1.7813 -1.7396
 4562TIP3   OH235100   4.370   1.919   2.013  0.0986  0.1778  0.4089
 4562TIP3    H135101   4.359   1.844   2.071 -0.3949 -0.5706 -0.6045
 4562TIP3    H235102   4.281   1.940   1.984  0.3353  0.5034 -0.1012
 4563TIP3   OH235103   2.833   0.732  12.954  0.1223 -0.0879 -0.2102
 4563TIP3    H135104   2.793   0.682  12.883  0.0062 -0.0028 -0.2047
 4563TIP3    H235105   2.915   0.766  12.917 -0.2240  0.4507 -0.4879
 4564TIP3   OH235106   0.843   1.677   1.849  0.0171  0.6210  0.6613
 4564TIP3    H135107   0.924   1.629   1.828  1.5639  2.4454  2.0682
 4564TIP3    H235108   0.864   1.768   1.829 -1.7870  1.1160  0.8934
 4565TIP3   OH235109   3.218   4.671   4.450  0.6633  0.2027 -0.7406
 4565TIP3    H135110   3.244   4.591   4.496  1.0063  0.1295 -1.0597
 4565TIP3    H235111   3.160   4.716   4.512 -0.6125 -0.9257 -1.0647
 4566TIP3   OH235112   1.064   3.037  16.206  0.2641 -0.7044  0.5751
 4566TIP3    H135113   1.007   3.000  16.273 -1.5789  0.1723 -0.4550
 4566TIP3    H235114   1.102   3.115  16.246  0.9120 -1.3680  1.3075
 4567TIP3   OH235115   3.603   3.824  12.498  0.7039  0.7427  0.5211
 4567TIP3    H135116   3.674   3.873  12.458  0.3414  0.7954 -0.0680
 4567TIP3    H235117   3.645   3.768  12.563  1.2394  1.0247  0.4157
 4568TIP3   OH235118   4.723   4.139   2.726  0.2647 -0.0361 -0.2153
 4568TIP3    H135119   4.754   4.221   2.686  1.4719 -1.0126 -1.3836
 4568TIP3    H235120   4.800   4.104   2.770  0.2604 -1.4150 -1.2594
 4569TIP3   OH235121   2.424   5.581   3.720  0.7147 -0.3357  0.1657
 4569TIP3    H135122   2.377   5.599   3.638 -2.8169 -0.6648  1.9441
 4569TIP3    H235123   2.429   5.666   3.764  1.6290 -0.3537  0.1159
 4570TIP3   OH235124   6.524   4.045   5.711 -0.0971  0.5394 -0.2165
 4570TIP3    H135125   6.601   4.065   5.765 -0.1722 -1.1002  0.5815
 4570TIP3    H235126   6.450   4.070   5.766 -0.1559 -0.2189  0.0636
 4571TIP3   OH235127   5.435   2.626   4.295  0.4951 -0.4304 -0.0282
 4571TIP3    H135128   5.516   2.672   4.272 -0.2833  0.5690 -0.8486
 4571TIP3    H235129   5.464   2.556   4.354  1.8221  0.5931  0.6100
 4572TIP3   OH235130   2.132   6.707  14.264  0.9023 -0.1670  0.5465
 4572TIP3    H135131   2.093   6.696  14.351  0.5470  1.6091  0.6641
 4572TIP3    H235132   2.201   6.773  14.277  0.8970  0.0631 -0.4939
 4573TIP3   OH235133   0.677   4.248   5.043 -0.1938  0.3102  0.2374
 4573TIP3    H135134   0.672   4.184   5.113  0.4594 -2.4095 -2.0100
 4573TIP3    H235135   0.588   4.252   5.008 -0.1780  0.4537  0.2123
 4574TIP3   OH235136   6.710   3.799   0.731 -0.1799  0.2357  0.1583
 4574TIP3    H135137   6.805   3.782   0.726 -0.3981 -1.3602  0.8876
 4574TIP3    H235138   6.698   3.842   0.816 -0.0960  0.6026 -0.0132
 4575TIP3   OH235139   2.216   4.029  12.564 -0.0906  0.1697  0.2746
 4575TIP3    H135140   2.201   3.939  12.590  1.2310  0.2605  1.4588
 4575TIP3    H235141   2.287   4.024  12.500  0.3467  0.3982  0.7344
 4576TIP3   OH235142   2.568   2.740   3.080 -0.2736 -0.0339 -0.5416
 4576TIP3    H135143   2.614   2.673   3.031  1.9437  1.1743 -0.2637
 4576TIP3    H235144   2.638   2.795   3.116 -1.9038  0.8449  1.4795
 4577TIP3   OH235145   6.666   5.628  12.268 -0.2414  0.0987  0.2480
 4577TIP3    H135146   6.717   5.681  12.206 -0.2562 -0.6071 -0.3768
 4577TIP3    H235147   6.724   5.618  12.344  1.1774 -1.8999 -1.0151
 4578TIP3   OH235148   1.289   6.755   1.149 -0.5195 -0.0204 -0.9584
 4578TIP3    H135149   1.247   6.773   1.233 -0.8447  0.1076 -1.1462
 4578TIP3    H235150   1.219   6.718   1.095  0.1751 -2.0932 -0.5063
 4579TIP3   OH235151   6.418   2.714   5.700 -0.3752  0.5113 -0.0887
 4579TIP3    H135152   6.449   2.726   5.790  0.9847 -1.8133 -0.1597
 4579TIP3    H235153   6.467   2.777   5.649  1.5206 -0.5336  0.3581
 4580TIP3   OH235154   5.760   1.424  11.210  0.1793 -0.4158 -0.0098
 4580TIP3    H135155   5.791   1.349  11.159 -0.5908 -0.7292 -0.0310
 4580TIP3    H235156   5.801   1.500  11.169 -2.5885 -0.3162 -2.9868
 4581TIP3   OH235157   2.281   6.443   3.981  0.0199  0.0980  0.0818
 4581TIP3    H135158   2.249   6.374   3.923 -0.8996  1.0972 -0.6426
 4581TIP3    H235159   2.339   6.398   4.042  2.3895 -0.7616 -2.5994
 4582TIP3   OH235160   3.111   4.527   1.190  0.5814 -0.0656 -0.3126
 4582TIP3    H135161   3.110   4.436   1.220  0.3694 -0.3841 -1.2515
 4582TIP3    H235162   3.174   4.528   1.118  0.3193  0.4604 -0.5397
 4583TIP3   OH235163   3.970   5.646   0.331 -0.1657  0.5786  0.4944
 4583TIP3    H135164   4.043   5.618   0.277 -0.6778  0.7300 -0.2930
 4583TIP3    H235165   3.972   5.742   0.327 -1.4909  0.5775 -1.0503
 4584TIP3   OH235166   3.783   0.643   6.078  0.7231 -0.2393 -0.0463
 4584TIP3    H135167   3.733   0.637   6.160 -1.3677 -0.8218 -1.2855
 4584TIP3    H235168   3.847   0.573   6.084 -0.6952 -1.5605  0.3080
 4585TIP3   OH235169   0.213   3.128  15.383 -0.1388 -0.0302  0.3741
 4585TIP3    H135170   0.195   3.208  15.334  0.5837  0.4998  0.9552
 4585TIP3    H235171   0.137   3.117  15.440  0.4195  1.0854  1.3771
 4586TIP3   OH235172   3.436   1.910  14.542  0.0242  0.1696  0.0646
 4586TIP3    H135173   3.417   1.905  14.448  1.8061 -1.1780 -0.2949
 4586TIP3    H235174   3.499   1.838  14.557 -3.2490 -2.4149  3.0879
 4587TIP3   OH235175   0.502   3.622  11.121  0.7702  0.2192 -0.5758
 4587TIP3    H135176   0.524   3.552  11.059  0.2461  1.3895 -2.1334
 4587TIP3    H235177   0.525   3.585  11.207  5.2710 -0.0791 -1.6622
 4588TIP3   OH235178   6.753   6.708   5.679 -0.3754  0.6691  0.0435
 4588TIP3    H135179   6.722   6.789   5.719  1.2436  1.3924 -0.0953
 4588TIP3    H235180   6.789   6.658   5.753 -0.5570  0.4659 -0.0049
 4589TIP3   OH235181   2.575   4.281   3.596 -0.5017 -0.1512 -0.4437
 4589TIP3    H135182   2.606   4.261   3.685 -0.8639  1.2474  0.0274
 4589TIP3    H235183   2.641   4.242   3.539  0.9238  0.7928  0.4852
 4590TIP3   OH235184   6.716   3.083  11.563  0.1730 -0.0252  0.6633
 4590TIP3    H135185   6.694   3.170  11.530  0.6026  0.0086  0.4560
 4590TIP3    H235186   6.632   3.041  11.581 -0.0407  0.3153  0.4533
 4591TIP3   OH235187   2.906   3.156  13.653  0.5138 -0.3951  0.3432
 4591TIP3    H135188   2.818   3.120  13.641 -0.4287  1.0321  2.3407
 4591TIP3    H235189   2.959   3.113  13.586 -1.5064 -1.9374 -0.3741
 4592TIP3   OH235190   4.660   5.851   1.814  0.5421  0.2909  0.1302
 4592TIP3    H135191   4.630   5.930   1.770 -0.6797  0.2201  0.7879
 4592TIP3    H235192   4.652   5.783   1.746 -0.6596  0.3126  0.2131
 4593TIP3   OH235193   5.607   2.914   1.021  0.0124  0.2047 -0.3431
 4593TIP3    H135194   5.564   2.978   0.964  1.0755  2.1513  0.8970
 4593TIP3    H235195   5.693   2.901   0.981 -0.5985 -1.3940 -1.2100
 4594TIP3   OH235196   1.537   4.299  12.317  0.5461  0.0418  0.0552
 4594TIP3    H135197   1.621   4.341  12.301  0.6509 -0.6363 -1.3138
 4594TIP3    H235198   1.493   4.357  12.379  1.4877  1.1103 -0.2361
 4595TIP3   OH235199   4.484   0.482  13.343  0.1429  0.2337  0.0000
 4595TIP3    H135200   4.569   0.457  13.307  1.2364  2.1381  1.0831
 4595TIP3    H235201   4.442   0.398  13.366  2.6099 -0.7435  1.3585
 4596TIP3   OH235202   0.142   5.224  16.052 -0.2259 -0.3754 -0.1797
 4596TIP3    H135203   0.157   5.264  15.966  0.5133 -0.9083 -0.3037
 4596TIP3    H235204   0.050   5.199  16.051  0.1799 -2.0266 -1.5326
 4597TIP3   OH235205   3.233   4.529  16.012 -0.0014 -0.4085  0.2644
 4597TIP3    H135206   3.257   4.572  16.095  0.1257  3.3147 -1.4963
 4597TIP3    H235207   3.298   4.559  15.949 -1.8028 -0.6408 -1.8389
 4598TIP3   OH235208   1.235   6.231   1.130  0.4601  0.1427 -0.2764
 4598TIP3    H135209   1.308   6.224   1.192  0.5802 -0.8728 -0.5012
 4598TIP3    H235210   1.251   6.313   1.083  1.2873  0.0943 -0.0999
 4599TIP3   OH235211   4.156   2.511   4.685 -0.1690  0.2070  0.3222
 4599TIP3    H135212   4.239   2.484   4.645 -1.1092  0.9861 -2.3491
 4599TIP3    H235213   4.158   2.606   4.682 -1.2604  0.2265 -0.0258
 4600TIP3   OH235214   5.352   5.071  15.652  0.1478  0.8785  0.2904
 4600TIP3    H135215   5.315   4.983  15.644  0.0270  1.0431 -1.1779
 4600TIP3    H235216   5.400   5.069  15.735 -0.3381 -0.3863  0.5656
 4601TIP3   OH235217   5.936   4.676   3.986  0.2851 -0.4181 -0.2240
 4601TIP3    H135218   5.843   4.663   4.006 -0.1624 -1.5268 -2.6621
 4601TIP3    H235219   5.938   4.756   3.934  0.8743  0.1900  0.7015
 4602TIP3   OH235220   2.620   2.034  11.810 -0.2868  1.1125 -0.1515
 4602TIP3    H135221   2.669   2.111  11.783 -0.1676  0.9426 -0.4304
 4602TIP3    H235222   2.619   1.978  11.732 -1.1953  1.2518 -0.2501
 4603TIP3   OH235223   3.886   0.916  15.994  0.1121  0.2885  0.7112
 4603TIP3    H135224   3.830   0.921  15.917  0.3498  2.1248  0.6353
 4603TIP3    H235225   3.970   0.883  15.961 -0.3056 -0.6126  0.5083
 4604TIP3   OH235226   6.061   0.290   3.005 -0.0808  0.2610  0.0846
 4604TIP3    H135227   5.970   0.263   2.987 -0.4648  0.2373  1.9415
 4604TIP3    H235228   6.090   0.233   3.076  1.0965  0.8596  0.1005
 4605TIP3   OH235229   4.479   6.233   1.494  0.6467  0.6599  0.5173
 4605TIP3    H135230   4.533   6.261   1.420  1.5306 -0.3060  0.7701
 4605TIP3    H235231   4.450   6.144   1.471 -4.3737  2.4671 -1.5381
 4606TIP3   OH235232   5.239   0.342   0.385 -0.1686  0.1350  0.2826
 4606TIP3    H135233   5.155   0.308   0.355 -1.1193  2.5764 -0.0391
 4606TIP3    H235234   5.217   0.396   0.461  1.4559 -1.1107  1.7246
 4607TIP3   OH235235   5.487   4.536   1.825 -0.8350 -0.1583 -0.2420
 4607TIP3    H135236   5.416   4.551   1.762 -0.4808  0.3592 -0.5311
 4607TIP3    H235237   5.567   4.558   1.777 -0.4783 -0.6976  0.0920
 4608TIP3   OH235238   4.813   3.123   3.201 -0.2281 -0.5950  0.3634
 4608TIP3    H135239   4.788   3.036   3.231 -1.0062 -0.8408 -0.9367
 4608TIP3    H235240   4.895   3.108   3.152  0.6178 -0.3071  1.6351
 4609TIP3   OH235241   6.801   4.944  10.871 -0.4919 -0.2882  0.3670
 4609TIP3    H135242   6.720   4.995  10.859  0.2941  1.1607  1.0298
 4609TIP3    H235243   6.813   4.900  10.787 -0.4374  1.7940 -0.7923
 4610TIP3   OH235244   3.999   2.188   6.555 -0.4982 -0.2256  0.0927
 4610TIP3    H135245   4.021   2.135   6.631  1.2638 -0.2027 -0.3522
 4610TIP3    H235246   4.082   2.198   6.508 -1.6876 -1.0685 -2.3738
 4611TIP3   OH235247   2.251   2.940  15.453 -0.6888  0.3264 -0.2327
 4611TIP3    H135248   2.346   2.940  15.441 -0.2092  0.3180  2.7356
 4611TIP3    H235249   2.236   2.878  15.524 -2.6618  1.8088  0.7587
 4612TIP3   OH235250   4.683   2.303  10.773 -0.0109 -0.1786  0.0954
 4612TIP3    H135251   4.702   2.323  10.682 -2.6747 -3.0508 -1.3172
 4612TIP3    H235252   4.767   2.276  10.810  1.1034  0.8951 -1.5237
 4613TIP3   OH235253   6.034   4.061  13.150  0.3519  0.0902  0.3014
 4613TIP3    H135254   6.018   3.984  13.094  0.6501  0.7308 -0.6802
 4613TIP3    H235255   5.967   4.054  13.218  0.3159 -0.9924  0.1838
 4614TIP3   OH235256   1.601   5.539  16.677 -0.3745 -0.5272  0.2052
 4614TIP3    H135257   1.590   5.529  16.583  1.4295 -0.3926 -0.0512
 4614TIP3    H235258   1.591   5.450  16.711  1.2140 -0.9883 -0.4132
 4615TIP3   OH235259   4.163   3.336   0.513  0.2410  0.3554 -0.3844
 4615TIP3    H135260   4.214   3.265   0.473  1.4309 -0.0892  1.8057
 4615TIP3    H235261   4.201   3.416   0.476  1.6583 -0.0270  0.1816
 4616TIP3   OH235262   0.927   0.710   3.392 -0.6522 -0.4463 -0.1638
 4616TIP3    H135263   0.844   0.663   3.406  0.2028 -1.2220  3.3338
 4616TIP3    H235264   0.904   0.802   3.403 -1.3480 -0.4664 -1.2572
 4617TIP3   OH235265   0.404   5.499   3.521 -0.0014 -0.5420  0.0819
 4617TIP3    H135266   0.463   5.558   3.474 -0.6149  1.1369  1.2895
 4617TIP3    H235267   0.462   5.441   3.570  0.6689  0.2299  0.2374
 4618TIP3   OH235268   5.345   5.323  13.471  0.5727  0.6283  0.4088
 4618TIP3    H135269   5.288   5.273  13.529  3.0617 -1.0326  1.6003
 4618TIP3    H235270   5.353   5.409  13.512  0.3108  0.3007  1.1464
 4619TIP3   OH235271   2.687   2.549  13.310  0.1210  0.2406 -0.3764
 4619TIP3    H135272   2.672   2.611  13.381 -1.0409  1.7953 -1.9046
 4619TIP3    H235273   2.601   2.534  13.272  0.6795 -0.7357 -1.3218
 4620TIP3   OH235274   6.017   4.984  11.568  0.5783  0.0248 -0.2639
 4620TIP3    H135275   6.062   4.935  11.637 -2.2179 -0.3393  1.4702
 4620TIP3    H235276   6.064   5.067  11.564  1.8072 -0.5601  0.9560
 4621TIP3   OH235277   1.548   2.787   1.269  1.0169 -0.1536  0.7272
 4621TIP3    H135278   1.543   2.694   1.291 -1.6258 -0.3680 -0.3977
 4621TIP3    H235279   1.615   2.791   1.200 -0.1827 -1.6058 -0.6178
 4622TIP3   OH235280   3.017   1.425  15.127 -0.3598  0.1100 -0.4304
 4622TIP3    H135281   3.110   1.439  15.144 -0.5208  2.0895 -0.9578
 4622TIP3    H235282   2.979   1.408  15.213  0.7676 -3.0581 -0.4187
 4623TIP3   OH235283   5.983   3.428   1.629  0.0800  0.2782  0.5803
 4623TIP3    H135284   6.057   3.484   1.606 -0.0330  0.3500  0.3886
 4623TIP3    H235285   5.956   3.387   1.547 -1.2120  1.6025  0.2932
 4624TIP3   OH235286   2.885   3.285  14.424  0.1049  0.0278  0.8292
 4624TIP3    H135287   2.843   3.200  14.435  0.2915 -0.0521  0.9338
 4624TIP3    H235288   2.890   3.297  14.329  0.3933 -0.2380  0.8088
 4625TIP3   OH235289   5.305   6.276   0.308  0.2611  0.0416  0.4432
 4625TIP3    H135290   5.210   6.286   0.303  0.2895 -0.3458 -1.7326
 4625TIP3    H235291   5.322   6.244   0.397 -1.8984 -2.4758  0.0485
 4626TIP3   OH235292   0.134   2.719  15.117  0.1236 -0.0180 -0.1609
 4626TIP3    H135293   0.067   2.786  15.132  0.4167 -0.0505  1.5397
 4626TIP3    H235294   0.147   2.679  15.203  0.2101 -2.0341 -1.0614
 4627TIP3   OH235295   0.870   6.069  11.967  0.3807  0.4103  0.4461
 4627TIP3    H135296   0.792   6.070  11.913  0.3132  1.2912  0.5359
 4627TIP3    H235297   0.908   5.982  11.954 -0.0652  0.3346 -0.3806
 4628TIP3   OH235298   2.507   0.805  11.530 -0.1800  0.2387 -0.1853
 4628TIP3    H135299   2.514   0.750  11.608 -1.0588  0.6703  0.2126
 4628TIP3    H235300   2.526   0.893  11.561 -0.3487  0.3864 -0.4934
 4629TIP3   OH235301   0.578   5.159  14.846  0.1747  0.2252 -0.8549
 4629TIP3    H135302   0.666   5.128  14.825 -0.1420  0.6236 -2.9805
 4629TIP3    H235303   0.592   5.234  14.903  1.0286 -1.9654  2.0953
 4630TIP3   OH235304   1.382   1.347   0.769 -0.3379  0.4076  0.6818
 4630TIP3    H135305   1.459   1.290   0.775 -1.4546 -1.1116  1.5419
 4630TIP3    H235306   1.358   1.344   0.676  0.0896  0.1088  0.5747
 4631TIP3   OH235307   1.172   0.729  12.798 -0.7573  0.1266 -0.3250
 4631TIP3    H135308   1.189   0.699  12.887  0.1953  0.6810 -0.3005
 4631TIP3    H235309   1.102   0.793  12.806 -0.9429 -0.1143 -0.0226
 4632TIP3   OH235310   5.930   1.552  14.711  0.0478  0.7881  0.1912
 4632TIP3    H135311   5.859   1.502  14.672 -0.6181  0.6632  1.5067
 4632TIP3    H235312   6.001   1.488  14.722 -0.8348  0.0299  1.9608
 4633TIP3   OH235313   3.147   2.371  16.666 -0.5434 -0.0651  0.3914
 4633TIP3    H135314   3.086   2.435  16.703 -1.1776  0.5001 -1.5203
 4633TIP3    H235315   3.199   2.342  16.741 -2.8674 -0.2882  2.0413
 4634TIP3   OH235316   2.612   4.401   5.933 -0.6494  0.2355  0.0382
 4634TIP3    H135317   2.586   4.482   5.976 -1.5252 -0.9024  1.7313
 4634TIP3    H235318   2.603   4.333   6.000  5.1963 -0.6503  0.5135
 4635TIP3   OH235319   3.625   0.261  16.606 -0.2579 -0.4084  0.0120
 4635TIP3    H135320   3.610   0.319  16.681 -1.9761 -0.6748 -0.1046
 4635TIP3    H235321   3.575   0.183  16.626  0.9094 -1.3239 -0.4946
 4636TIP3   OH235322   3.607   1.501  15.947 -0.4902 -0.7816  0.1188
 4636TIP3    H135323   3.645   1.414  15.960  0.2406 -0.3115  1.2729
 4636TIP3    H235324   3.673   1.561  15.982 -0.9876  0.2447 -0.6691
 4637TIP3   OH235325   5.013   2.683  17.107  0.5715  0.0052  0.5821
 4637TIP3    H135326   5.048   2.672  17.195 -1.2313 -2.5274  1.1144
 4637TIP3    H235327   4.918   2.676  17.118  0.3453 -1.5201 -1.6479
 4638TIP3   OH235328   0.123   2.206   1.006  0.1584 -0.3876  0.7321
 4638TIP3    H135329   0.133   2.120   1.047 -0.2332  0.2485  2.2166
 4638TIP3    H235330   0.073   2.257   1.069  0.4861  0.9765 -0.0744
 4639TIP3   OH235331   5.413   6.584   1.503  0.5861 -0.1937  0.4490
 4639TIP3    H135332   5.342   6.622   1.555  1.4535  0.9066  0.8527
 4639TIP3    H235333   5.415   6.635   1.422  1.2269  0.1088  0.6469
 4640TIP3   OH235334   3.748   0.326   0.923  0.0195  0.2198  0.0472
 4640TIP3    H135335   3.770   0.326   0.830 -0.7264  2.0040 -0.1714
 4640TIP3    H235336   3.678   0.260   0.930  1.1325 -1.0549 -0.3359
 4641TIP3   OH235337   1.769   3.364   3.871  0.2304  0.3364 -0.5720
 4641TIP3    H135338   1.746   3.451   3.904 -0.5509  0.5385 -1.5657
 4641TIP3    H235339   1.824   3.382   3.794 -0.0348 -0.0357 -0.8526
 4642TIP3   OH235340   5.801   0.604   4.497  0.1065 -0.5706  0.1175
 4642TIP3    H135341   5.879   0.649   4.530  0.8302 -2.4007  1.0317
 4642TIP3    H235342   5.826   0.569   4.412 -0.4929  0.7559 -0.6448
 4643TIP3   OH235343   3.828   2.183   5.422 -0.2232  0.5852 -0.4743
 4643TIP3    H135344   3.891   2.210   5.488  0.5039 -0.9517 -0.4973
 4643TIP3    H235345   3.751   2.237   5.438  0.5921  1.5090  0.4493
 4644TIP3   OH235346   6.080   5.627  17.058 -0.1397  0.1092  0.2673
 4644TIP3    H135347   6.121   5.713  17.053 -0.5874  0.3563  0.6991
 4644TIP3    H235348   6.144   5.567  17.020  0.3678  0.5687  0.3904
 4645TIP3   OH235349   3.681   6.294  14.975 -0.3724 -0.4931 -0.0824
 4645TIP3    H135350   3.691   6.199  14.985  1.6033 -0.4088 -0.8910
 4645TIP3    H235351   3.742   6.317  14.905 -0.9186  1.3747  0.0186
 4646TIP3   OH235352   5.671   2.201  12.396 -0.0213  0.2121  0.1897
 4646TIP3    H135353   5.608   2.174  12.329  0.3678  0.1544 -0.1561
 4646TIP3    H235354   5.616   2.233  12.468 -0.4631 -0.6617  0.2514
 4647TIP3   OH235355   6.719   3.710   6.089 -0.1582 -0.2785  0.3496
 4647TIP3    H135356   6.783   3.678   6.153 -2.0200 -2.4678  1.2608
 4647TIP3    H235357   6.674   3.781   6.135  1.8216  1.6665 -0.4948
 4648TIP3   OH235358   0.647   5.450  12.818  0.0263  0.0624  0.3368
 4648TIP3    H135359   0.692   5.534  12.829 -1.4083  0.6470  2.0704
 4648TIP3    H235360   0.650   5.409  12.904 -0.2433 -1.2080 -0.2274
 4649TIP3   OH235361   2.607   4.360   5.671  0.6965 -0.0950  0.7201
 4649TIP3    H135362   2.659   4.279   5.675 -0.1532 -0.6598  0.5495
 4649TIP3    H235363   2.587   4.381   5.762  1.4006  0.2534  0.8039
 4650TIP3   OH235364   0.401   6.212  16.184 -0.0357  0.1441 -0.1394
 4650TIP3    H135365   0.370   6.286  16.236 -1.0543 -1.7929  2.2130
 4650TIP3    H235366   0.418   6.249  16.097 -4.6373  2.3228 -0.4129
 4651TIP3   OH235367   2.579   4.726  14.411  0.3185  0.2179  0.2107
 4651TIP3    H135368   2.662   4.678  14.410 -0.3464 -1.0814 -2.5891
 4651TIP3    H235369   2.513   4.659  14.394 -1.1959  1.4397  1.0674
 4652TIP3   OH235370   1.913   3.909   4.250 -0.1829 -0.8226  0.0268
 4652TIP3    H135371   1.913   3.919   4.345 -1.2533 -0.0256 -0.0329
 4652TIP3    H235372   1.841   3.848   4.232 -2.5397  1.8793 -0.4516
 4653TIP3   OH235373   2.586   6.396   2.099  0.3322  0.1062 -0.1471
 4653TIP3    H135374   2.646   6.357   2.036 -1.5353 -1.2823 -1.1706
 4653TIP3    H235375   2.562   6.480   2.061  0.7441  0.1679 -0.2791
 4654TIP3   OH235376   4.982   1.756  13.335 -0.2193 -0.3403 -0.3764
 4654TIP3    H135377   5.059   1.753  13.278 -1.1392 -0.3824 -1.6702
 4654TIP3    H235378   4.994   1.834  13.388 -0.0624  0.5663 -1.7067
 4655TIP3   OH235379   2.628   2.865  15.952 -0.8362 -0.5491  0.1934
 4655TIP3    H135380   2.698   2.836  15.894 -0.6976 -0.9616  0.5565
 4655TIP3    H235381   2.674   2.895  16.031 -1.0434 -0.4440  0.2745
 4656TIP3   OH235382   3.973   0.415  11.760  0.7102 -0.8580  0.5587
 4656TIP3    H135383   3.947   0.459  11.679 -0.0762 -2.5766 -0.1945
 4656TIP3    H235384   4.001   0.485  11.818 -2.5272  0.8818  0.2523
 4657TIP3   OH235385   5.471   1.894  11.431  0.2311  1.0902 -0.2230
 4657TIP3    H135386   5.398   1.955  11.444  0.0476  0.9963 -0.8015
 4657TIP3    H235387   5.523   1.934  11.362  0.3525  0.8095 -0.2937
 4658TIP3   OH235388   6.115   1.242  16.889 -0.0851  0.0690  0.0769
 4658TIP3    H135389   6.095   1.162  16.841 -1.6684  0.9736 -0.8392
 4658TIP3    H235390   6.153   1.212  16.972 -3.0032 -1.7528  0.8923
 4659TIP3   OH235391   0.408   5.840  10.626  0.2765 -0.3443  0.0037
 4659TIP3    H135392   0.375   5.750  10.621  2.7530 -1.3471  0.4313
 4659TIP3    H235393   0.384   5.870  10.714 -0.3118 -0.6925 -0.0383
 4660TIP3   OH235394   5.812   2.341   1.043 -0.2030  0.3752  0.2414
 4660TIP3    H135395   5.805   2.246   1.052 -0.2010  0.4990  1.9149
 4660TIP3    H235396   5.792   2.374   1.131 -1.6159  2.0001 -0.6370
 4661TIP3   OH235397   6.197   5.502  11.596 -0.0673  0.1726  0.1741
 4661TIP3    H135398   6.278   5.552  11.602  1.1087 -1.6771  0.2740
 4661TIP3    H235399   6.145   5.549  11.530  0.7942  1.7244  0.5438
 4662TIP3   OH235400   2.163   0.035   1.370 -0.1407  0.4615 -0.3766
 4662TIP3    H135401   2.092   0.003   1.426  1.6788 -1.9122  0.7635
 4662TIP3    H235402   2.171   0.128   1.393 -0.4804 -0.0722  2.2551
 4663TIP3   OH235403   1.187   1.189  15.022 -0.0590 -0.1817  0.0715
 4663TIP3    H135404   1.120   1.239  14.978 -1.6663 -1.8263  0.5136
 4663TIP3    H235405   1.146   1.159  15.103  1.9839  0.6682  1.5169
 4664TIP3   OH235406   5.636   3.660   1.736  0.5307  0.4650 -0.2816
 4664TIP3    H135407   5.718   3.681   1.693  0.8095 -1.0098 -0.5279
 4664TIP3    H235408   5.568   3.702   1.682  0.9432 -0.5214 -1.6074
 4665TIP3   OH235409   1.679   1.495  13.317 -0.2257  0.2545  0.2895
 4665TIP3    H135410   1.668   1.490  13.412  1.2116  1.5359  0.5720
 4665TIP3    H235411   1.706   1.586  13.301  1.7343 -0.4848 -1.0675
 4666TIP3   OH235412   2.678   3.056  13.574  0.0884  0.4641 -0.7351
 4666TIP3    H135413   2.588   3.088  13.572 -0.9585 -2.1499 -1.8875
 4666TIP3    H235414   2.697   3.034  13.482  1.4461 -0.1248 -0.3438
 4667TIP3   OH235415   0.369   5.461   1.051 -0.0272  0.0060  0.0768
 4667TIP3    H135416   0.349   5.468   1.144  0.6882  1.0560  0.1608
 4667TIP3    H235417   0.464   5.446   1.047  0.1617  1.2181 -0.5039
 4668TIP3   OH235418   1.831   2.909  11.197  0.4947 -0.3000 -0.8540
 4668TIP3    H135419   1.892   2.871  11.261  1.2584  0.3788 -1.1720
 4668TIP3    H235420   1.815   2.998  11.228 -0.5431 -0.5406 -0.6424
 4669TIP3   OH235421   2.187   6.251   2.769 -0.1909 -0.8244  0.4138
 4669TIP3    H135422   2.255   6.306   2.806  1.1305 -0.6088 -2.1168
 4669TIP3    H235423   2.208   6.163   2.799  0.4106 -0.5783  0.7258
 4670TIP3   OH235424   5.821   4.137   0.301  0.4989  0.3443  0.4298
 4670TIP3    H135425   5.725   4.138   0.297  0.5417  1.4571 -1.0648
 4670TIP3    H235426   5.843   4.209   0.360  0.4075 -1.2112  2.4526
 4671TIP3   OH235427   4.701   1.302  15.220  0.2941 -0.5827  0.3326
 4671TIP3    H135428   4.685   1.299  15.126  0.5004  2.9626  0.0469
 4671TIP3    H235429   4.797   1.300  15.228  0.2684 -2.4768  0.6589
 4672TIP3   OH235430   5.953   3.135   4.747  0.0270  0.1011 -0.2848
 4672TIP3    H135431   5.881   3.137   4.684 -0.6990  0.8341  0.5386
 4672TIP3    H235432   5.914   3.167   4.828  0.6549 -1.9219  0.8532
 4673TIP3   OH235433   2.929   6.002  10.871  0.0344  0.1700 -0.5758
 4673TIP3    H135434   2.982   6.044  10.802 -0.9821 -0.3551 -1.7156
 4673TIP3    H235435   2.858   6.064  10.887  0.2451  0.2716 -0.0028
 4674TIP3   OH235436   6.038   3.170   4.204  0.4176 -0.5316 -0.0473
 4674TIP3    H135437   6.059   3.252   4.159  2.0273 -1.5783 -1.3237
 4674TIP3    H235438   5.946   3.178   4.228  0.7065  1.9027  0.4478
 4675TIP3   OH235439   4.582   4.813   0.349  0.3657 -0.0599 -0.1861
 4675TIP3    H135440   4.676   4.817   0.368  0.4436 -0.3646 -0.4939
 4675TIP3    H235441   4.544   4.769   0.425  0.5963 -0.7540 -0.4714
 4676TIP3   OH235442   1.038   4.334   0.673  0.3354 -0.3097 -0.4482
 4676TIP3    H135443   0.985   4.358   0.750  0.8663  0.9146 -0.4405
 4676TIP3    H235444   0.998   4.253   0.641 -2.9294  1.6120 -1.6994
 4677TIP3   OH235445   2.429   3.415  12.164 -0.3228 -0.4924  0.0928
 4677TIP3    H135446   2.420   3.396  12.070 -2.1855 -0.5673  0.2653
 4677TIP3    H235447   2.367   3.358  12.207  0.6566 -0.6037  1.4277
 4678TIP3   OH235448   2.241   3.184   3.140 -0.0522 -0.2330  0.0327
 4678TIP3    H135449   2.270   3.141   3.221 -0.9046 -1.0787 -0.0864
 4678TIP3    H235450   2.219   3.111   3.081 -1.5065  0.3412 -0.1825
 4679TIP3   OH235451   0.250   0.091  12.569  0.5099 -0.2143  0.8765
 4679TIP3    H135452   0.291   0.048  12.494  0.8227  0.1905  0.8093
 4679TIP3    H235453   0.182   0.145  12.531 -0.4831 -1.3156  1.0359
 4680TIP3   OH235454   5.554   2.548  14.448 -0.0718 -0.7454  0.5537
 4680TIP3    H135455   5.532   2.465  14.491 -0.0923 -0.8937  0.2612
 4680TIP3    H235456   5.499   2.550  14.369 -0.5983 -0.1147  0.9277
 4681TIP3   OH235457   0.423   3.851  13.842 -0.4220  0.2719  0.1334
 4681TIP3    H135458   0.338   3.828  13.805  0.6506 -1.6456 -1.2864
 4681TIP3    H235459   0.410   3.938  13.881 -2.7284  0.4768 -0.9725
 4682TIP3   OH235460   5.146   5.306  12.549 -0.4462 -0.3815  0.7526
 4682TIP3    H135461   5.170   5.397  12.531 -0.1714 -0.3438  1.3025
 4682TIP3    H235462   5.093   5.280  12.473 -0.2341  0.1241  0.4261
 4683TIP3   OH235463   2.024   0.094   0.564  0.4538  0.1333  0.1246
 4683TIP3    H135464   1.935   0.124   0.543 -0.0213 -0.3610  1.3136
 4683TIP3    H235465   2.011   0.028   0.633  1.4657 -2.4212 -1.9411
 4684TIP3   OH235466   5.242   2.861  15.565  0.2057  0.1788 -0.0893
 4684TIP3    H135467   5.229   2.836  15.657  0.5765 -3.0543 -0.7904
 4684TIP3    H235468   5.336   2.878  15.558  0.7251 -2.3495 -0.3371
 4685TIP3   OH235469   1.648   0.954   6.091  0.5601  0.7620  0.3931
 4685TIP3    H135470   1.737   0.922   6.077 -0.2459 -1.2514 -0.5026
 4685TIP3    H235471   1.604   0.883   6.136 -1.1887  0.7565 -1.2143
 4686TIP3   OH235472   4.486   3.419   5.558 -0.0126 -0.4045 -0.3113
 4686TIP3    H135473   4.467   3.327   5.539 -2.2806 -0.5356  2.0303
 4686TIP3    H235474   4.575   3.432   5.524  0.4589 -3.4866 -0.6065
 4687TIP3   OH235475   4.528   0.550   5.645 -0.0550 -0.3269  0.0433
 4687TIP3    H135476   4.588   0.569   5.718 -0.6409  0.2285  0.3881
 4687TIP3    H235477   4.478   0.475   5.675  0.7062 -1.0210 -0.3927
 4688TIP3   OH235478   3.700   0.708   4.997 -0.0986  0.1832  0.4181
 4688TIP3    H135479   3.721   0.751   4.914  0.7716  0.9468  1.0047
 4688TIP3    H235480   3.614   0.669   4.983 -1.2108  2.5834 -0.0022
 4689TIP3   OH235481   0.824   2.220   5.023 -0.5037  0.4619  0.1993
 4689TIP3    H135482   0.741   2.247   5.061 -0.9388 -0.2057 -0.2531
 4689TIP3    H235483   0.818   2.124   5.016 -0.2060  0.5025 -0.9781
 4690TIP3   OH235484   1.021   1.381  13.713 -0.4338  0.3808 -0.2359
 4690TIP3    H135485   1.075   1.446  13.758 -0.8319 -0.1214  0.9995
 4690TIP3    H235486   1.085   1.322  13.673 -0.0005 -0.6997  1.9322
 4691TIP3   OH235487   1.360   4.776   3.134 -0.1139 -0.5853  0.3631
 4691TIP3    H135488   1.312   4.727   3.200  1.0899 -0.8003  1.1238
 4691TIP3    H235489   1.303   4.776   3.057 -2.2047  0.9039  1.8009
 4692TIP3   OH235490   2.482   2.593   3.296  0.0005  0.0458 -0.4428
 4692TIP3    H135491   2.539   2.518   3.316  0.1924  0.5941  1.2061
 4692TIP3    H235492   2.524   2.636   3.221  1.4667  0.1177  0.3900
 4693TIP3   OH235493   5.025   0.162   0.572 -0.1968  0.2276  0.5549
 4693TIP3    H135494   5.040   0.141   0.479  0.3483 -0.5458  0.8146
 4693TIP3    H235495   5.112   0.181   0.607 -0.3854  0.3724  0.9507
 4694TIP3   OH235496   3.942   0.489  11.501 -0.0092 -0.2857  0.2433
 4694TIP3    H135497   3.861   0.466  11.455  0.1895  0.6831 -0.6359
 4694TIP3    H235498   4.007   0.497  11.431  1.4206 -3.1553  1.0932
 4695TIP3   OH235499   1.343   4.408   6.223  0.2535 -0.4144  0.4970
 4695TIP3    H135500   1.369   4.364   6.304  0.6712  0.3753  0.8062
 4695TIP3    H235501   1.267   4.461   6.247  0.9391  0.5425  0.6089
 4696TIP3   OH235502   4.553   1.783   3.447 -0.3670  0.3583 -0.6971
 4696TIP3    H135503   4.476   1.752   3.495  0.5409  0.0924  0.6420
 4696TIP3    H235504   4.563   1.721   3.375 -1.7744  0.7831 -1.3032
 4697TIP3   OH235505   5.475   1.908   3.935 -0.5277 -0.0128  0.5997
 4697TIP3    H135506   5.497   1.996   3.966 -1.4315  0.6760 -0.6337
 4697TIP3    H235507   5.400   1.882   3.988 -1.6731  0.9022 -0.5248
 4698TIP3   OH235508   1.784   3.956   1.340  0.7380  0.7564  0.3870
 4698TIP3    H135509   1.798   3.945   1.246  0.8382  2.2707  0.1961
 4698TIP3    H235510   1.806   4.048   1.357 -0.9462  0.9898  1.5748
 4699TIP3   OH235511   4.765   2.420  12.063  0.3335  0.0242 -0.0278
 4699TIP3    H135512   4.858   2.435  12.045  0.2941 -1.2270 -1.4876
 4699TIP3    H235513   4.760   2.415  12.159  1.8383 -0.2615  0.0655
 4700TIP3   OH235514   4.245   1.086   0.321  0.5942 -0.2696 -0.2480
 4700TIP3    H135515   4.323   1.111   0.370 -0.1161 -1.2314  1.4273
 4700TIP3    H235516   4.175   1.140   0.357  0.2384 -0.2612 -0.9230
 4701TIP3   OH235517   6.552   1.157  14.795  1.1907 -0.4497 -0.1298
 4701TIP3    H135518   6.646   1.158  14.775  0.7135 -0.7619 -2.6550
 4701TIP3    H235519   6.519   1.239  14.760  0.5698 -0.0760  1.2690
 4702TIP3   OH235520   1.537   6.458   4.002  0.3945 -0.1144 -0.7337
 4702TIP3    H135521   1.513   6.458   4.095 -0.3385  1.6907 -0.8810
 4702TIP3    H235522   1.470   6.512   3.960 -0.0065 -1.9055 -2.5384
 4703TIP3   OH235523   2.055   3.526   5.292  0.0142 -0.1522  0.3923
 4703TIP3    H135524   2.026   3.529   5.201 -1.4731 -2.7236  0.6908
 4703TIP3    H235525   2.097   3.611   5.307 -1.3702  1.0706 -2.1110
 4704TIP3   OH235526   5.295   2.994  13.590 -0.0119 -1.0858 -0.0834
 4704TIP3    H135527   5.344   2.983  13.671 -0.6957  2.5884  1.0364
 4704TIP3    H235528   5.264   3.085  13.593 -3.6861 -2.0206 -2.4580
 4705TIP3   OH235529   1.406   6.566  16.621  0.1636 -0.0321 -0.1623
 4705TIP3    H135530   1.314   6.590  16.632  0.2537  0.6076 -0.7378
 4705TIP3    H235531   1.419   6.494  16.682 -0.7621 -0.2365 -0.1835
 4706TIP3   OH235532   0.425   0.646  11.618 -0.0831  0.2235  0.3229
 4706TIP3    H135533   0.419   0.688  11.704 -0.2359  0.4215  0.2160
 4706TIP3    H235534   0.338   0.660  11.578  0.1872  0.6888 -0.1185
 4707TIP3   OH235535   3.992   0.064   3.350  0.1669  0.3475 -0.4576
 4707TIP3    H135536   3.919   0.010   3.320 -2.1406  2.3369  1.1538
 4707TIP3    H235537   3.994   0.138   3.290 -1.7418  2.2036  1.5632
 4708TIP3   OH235538   1.263   0.913  12.067  0.5499 -0.6525 -0.0278
 4708TIP3    H135539   1.251   0.993  12.015  0.5272 -0.7441 -0.1626
 4708TIP3    H235540   1.233   0.937  12.155  1.2898 -0.2708  0.1314
 4709TIP3   OH235541   5.974   3.841   1.814 -0.1232 -0.7892 -0.2972
 4709TIP3    H135542   5.914   3.767   1.825 -1.0426 -0.3900 -2.1734
 4709TIP3    H235543   6.054   3.802   1.781 -0.1112 -1.1079  0.1112
 4710TIP3   OH235544   5.346   3.215   1.290  0.4964 -0.3535  0.2062
 4710TIP3    H135545   5.307   3.290   1.336 -1.2524 -0.9249 -0.2416
 4710TIP3    H235546   5.341   3.144   1.354 -0.2143 -0.6860 -0.1994
 4711TIP3   OH235547   1.044   3.780   0.525 -0.8669  0.3518 -0.0171
 4711TIP3    H135548   1.088   3.841   0.584 -1.6661 -0.0564  1.0311
 4711TIP3    H235549   1.035   3.829   0.443  2.8370 -0.0432 -0.8405
 4712TIP3   OH235550   2.478   6.624  10.667  0.1006 -0.0234 -0.1357
 4712TIP3    H135551   2.567   6.599  10.641  0.4766  2.2124 -1.2544
 4712TIP3    H235552   2.421   6.570  10.611  0.7443 -1.2346  0.3585
 4713TIP3   OH235553   2.233   4.512  12.267  0.0831  0.4996 -0.3904
 4713TIP3    H135554   2.160   4.507  12.205  0.1794 -0.8618 -0.4089
 4713TIP3    H235555   2.309   4.481  12.217 -0.0495 -1.7424  0.7163
 4714TIP3   OH235556   2.247   3.469  15.133 -0.0473  0.8211  0.1179
 4714TIP3    H135557   2.285   3.553  15.157  0.2821  0.9160 -0.7306
 4714TIP3    H235558   2.297   3.439  15.057 -2.1981  1.3723 -1.6313
 4715TIP3   OH235559   4.955   1.127  13.093 -0.1017  0.2304 -0.3858
 4715TIP3    H135560   4.979   1.213  13.128  0.0455 -0.0836  0.3181
 4715TIP3    H235561   4.996   1.065  13.154 -1.8588 -0.3374  0.2805
 4716TIP3   OH235562   5.591   0.643   4.246  0.3108  0.0332 -0.0100
 4716TIP3    H135563   5.516   0.611   4.297 -0.0727  0.7951 -0.0872
 4716TIP3    H235564   5.578   0.738   4.242  0.3312 -0.0097 -1.5310
 4717TIP3   OH235565   5.758   6.742  13.872 -0.0256 -0.2822 -0.2900
 4717TIP3    H135566   5.779   6.827  13.911 -0.3948 -1.5227  2.8738
 4717TIP3    H235567   5.671   6.755  13.834 -0.7144  0.4501  1.4068
 4718TIP3   OH235568   6.786   6.643  15.075 -0.7576 -0.0079 -0.1137
 4718TIP3    H135569   6.862   6.682  15.034 -0.6469 -1.1347 -1.0308
 4718TIP3    H235570   6.711   6.685  15.033 -0.6408 -0.6854 -1.0236
 4719TIP3   OH235571   4.345   6.566  14.133  0.1579  0.0040 -0.2331
 4719TIP3    H135572   4.277   6.534  14.193  0.4919  0.9067  0.6644
 4719TIP3    H235573   4.300   6.630  14.078  0.6219  2.0048  1.5986
 4720TIP3   OH235574   5.679   2.902   2.421 -0.0163 -0.3227 -0.7009
 4720TIP3    H135575   5.690   2.807   2.414  0.3597 -0.1896 -2.0219
 4720TIP3    H235576   5.594   2.919   2.381 -0.9733 -0.2883  1.2246
 4721TIP3   OH235577   1.120   1.906   4.989  0.0909  0.4760  0.2767
 4721TIP3    H135578   1.182   1.899   5.062  1.3037  0.7119 -0.7045
 4721TIP3    H235579   1.046   1.852   5.016  0.8124  0.0035  1.3939
 4722TIP3   OH235580   1.810   1.464   2.028  0.0525  0.2730 -0.1708
 4722TIP3    H135581   1.728   1.433   2.066  0.2027 -1.9752 -1.4968
 4722TIP3    H235582   1.784   1.538   1.973 -0.9162  0.2624  0.2494
 4723TIP3   OH235583   0.995   5.489   1.992 -0.1764  0.8133  0.4052
 4723TIP3    H135584   0.963   5.573   2.023 -0.6650  0.1164  1.8957
 4723TIP3    H235585   1.038   5.450   2.069 -1.5832 -1.0732  0.3027
 4724TIP3   OH235586   0.776   5.595   1.755 -0.0839 -0.3133  0.2624
 4724TIP3    H135587   0.807   5.648   1.682 -2.0154 -0.8745 -1.0566
 4724TIP3    H235588   0.752   5.658   1.822 -1.2711  0.4611 -0.8473
 4725TIP3   OH235589   0.873   1.189  12.911  0.5969  0.2337 -0.2101
 4725TIP3    H135590   0.848   1.280  12.929  0.3151 -0.1078  1.2547
 4725TIP3    H235591   0.931   1.195  12.834 -2.8255  1.1920 -2.9659
 4726TIP3   OH235592   4.715   5.440  12.266  0.0109  0.7264  0.8887
 4726TIP3    H135593   4.639   5.459  12.212 -0.4193  0.3357  1.3542
 4726TIP3    H235594   4.680   5.404  12.347  0.7666 -2.0173  0.0918
 4727TIP3   OH235595   1.942   0.633   2.025 -0.1252  0.6201  0.0422
 4727TIP3    H135596   1.913   0.571   2.092  0.6563  1.1739  0.9298
 4727TIP3    H235597   1.907   0.599   1.943 -0.9174 -0.2021  0.7025
 4728TIP3   OH235598   6.667   0.781  12.759 -0.3177 -0.4768 -0.1947
 4728TIP3    H135599   6.631   0.695  12.781 -0.1197 -1.3678 -2.9075
 4728TIP3    H235600   6.612   0.812  12.687 -1.0414  2.2064  1.4011
 4729TIP3   OH235601   6.088   3.073  12.968  0.0097 -0.7491 -0.6593
 4729TIP3    H135602   6.109   3.087  13.061  0.1347 -0.5957 -0.7094
 4729TIP3    H235603   6.166   3.028  12.933 -0.0906 -0.9238 -0.6621
 4730TIP3   OH235604   0.347   1.610  16.036 -0.5233 -0.2856 -1.1200
 4730TIP3    H135605   0.338   1.698  16.071  1.3050  0.3303 -2.0517
 4730TIP3    H235606   0.290   1.608  15.960 -0.4010  0.1696 -1.2263
 4731TIP3   OH235607   4.032   3.332   4.066 -0.7325  0.3350 -0.7927
 4731TIP3    H135608   4.022   3.378   3.982  0.1575 -1.0653 -1.7007
 4731TIP3    H235609   4.019   3.240   4.045  1.5575 -0.2874  0.1773
 4732TIP3   OH235610   3.224   3.057  10.960  0.6579 -0.0178  0.5330
 4732TIP3    H135611   3.157   3.093  10.902  1.8473  0.2201 -0.7856
 4732TIP3    H235612   3.260   3.133  11.005  0.7790  0.0015  0.4054
 4733TIP3   OH235613   3.319   1.587   2.192 -0.3607  0.3456  0.6264
 4733TIP3    H135614   3.292   1.637   2.269  0.2802  2.1778 -0.2897
 4733TIP3    H235615   3.272   1.504   2.200 -1.9557  1.3118  1.8845
 4734TIP3   OH235616   3.049   0.398  14.015 -0.0320 -0.0503 -0.1861
 4734TIP3    H135617   3.049   0.451  13.936  0.9673 -0.5814 -0.5541
 4734TIP3    H235618   3.056   0.461  14.087 -1.2641  0.4517 -0.4862
 4735TIP3   OH235619   2.248   0.613   2.561 -0.7132  0.3073 -0.6643
 4735TIP3    H135620   2.247   0.555   2.484  1.5241 -1.3182  0.4066
 4735TIP3    H235621   2.341   0.626   2.580 -1.1940  1.0906  1.4392
 4736TIP3   OH235622   3.839   4.100  11.250  0.0732  0.0444  0.1387
 4736TIP3    H135623   3.927   4.134  11.233  0.8072 -1.6015  0.4812
 4736TIP3    H235624   3.854   4.019  11.299 -1.5781 -0.9794 -0.9555
 4737TIP3   OH235625   6.592   2.220   0.184  0.0629 -0.1601 -0.1108
 4737TIP3    H135626   6.545   2.139   0.206  0.5093 -1.1956 -2.6111
 4737TIP3    H235627   6.681   2.204   0.214 -0.0114 -0.3246  0.0278
 4738TIP3   OH235628   5.722   2.361   4.315 -0.1643 -0.2079 -0.1530
 4738TIP3    H135629   5.728   2.427   4.385 -2.1821  1.4197 -1.4116
 4738TIP3    H235630   5.631   2.333   4.316 -0.0872 -0.5913 -1.7659
 4739TIP3   OH235631   1.693   0.348  12.873  0.3488  0.3844  0.4493
 4739TIP3    H135632   1.622   0.329  12.811 -0.9544  0.9163  1.7115
 4739TIP3    H235633   1.657   0.323  12.958  2.1113 -0.3437  1.0103
 4740TIP3   OH235634   3.545   4.239   0.366  0.2541 -0.0345 -0.3733
 4740TIP3    H135635   3.591   4.237   0.450  1.2081  1.7589 -0.7987
 4740TIP3    H235636   3.482   4.167   0.371  1.3811 -0.9701  1.2339
 4741TIP3   OH235637   2.342   1.057  16.356  0.5620  0.1055 -0.3267
 4741TIP3    H135638   2.346   1.011  16.272  1.2263 -0.0290 -0.2228
 4741TIP3    H235639   2.314   1.146  16.334 -1.3216 -0.4770 -0.4680
 4742TIP3   OH235640   6.715   0.641  17.006 -0.7341 -0.1998  0.2220
 4742TIP3    H135641   6.672   0.598  16.932  1.3680  0.0203 -1.2284
 4742TIP3    H235642   6.779   0.699  16.966  1.2729 -0.8937  2.1900
 4743TIP3   OH235643   2.494   3.403  11.863 -0.0794 -0.0519  0.3687
 4743TIP3    H135644   2.515   3.471  11.799  2.7140  0.5764  1.7985
 4743TIP3    H235645   2.422   3.354  11.823 -0.6333  2.2710 -1.7555
 4744TIP3   OH235646   0.165   6.160   0.692  0.1140  0.2151 -0.3603
 4744TIP3    H135647   0.093   6.098   0.693  0.0751  0.2337 -1.5359
 4744TIP3    H235648   0.238   6.112   0.653  0.3235  0.6562 -0.5122
 4745TIP3   OH235649   4.952   5.610  16.584  0.3804  0.5907  0.4562
 4745TIP3    H135650   4.893   5.682  16.563 -0.0928  0.5377  1.5447
 4745TIP3    H235651   5.010   5.645  16.651  2.3911  1.0144 -1.3856
 4746TIP3   OH235652   6.433   5.000   4.132  0.0779 -0.4984 -0.4709
 4746TIP3    H135653   6.407   5.092   4.132 -2.6050 -1.1482  0.5483
 4746TIP3    H235654   6.500   4.993   4.199  1.5918  0.9699 -1.7636
 4747TIP3   OH235655   5.508   5.182   3.225 -0.2134 -0.1830  0.2150
 4747TIP3    H135656   5.459   5.130   3.288 -0.3590  0.0265  0.2764
 4747TIP3    H235657   5.557   5.245   3.278  2.5619 -2.3187  0.4289
 4748TIP3   OH235658   4.104   6.367  12.441  0.4825 -0.0657  0.0200
 4748TIP3    H135659   4.160   6.328  12.374  0.5614 -1.6869  0.9757
 4748TIP3    H235660   4.153   6.443  12.471  0.5495  0.5622 -1.5739
 4749TIP3   OH235661   1.503   2.536  11.885 -0.5924 -0.2508 -0.1273
 4749TIP3    H135662   1.509   2.440  11.882 -2.6182 -0.3874 -2.1435
 4749TIP3    H235663   1.417   2.554  11.923 -0.6582  0.7249 -0.7027
 4750TIP3   OH235664   0.836   6.201  16.770  0.2424 -0.6888  0.5676
 4750TIP3    H135665   0.811   6.179  16.859 -0.5780 -0.6326  0.3595
 4750TIP3    H235666   0.853   6.116  16.729 -2.0145 -0.9545  0.0308
 4751TIP3   OH235667   6.185   0.872  13.758  0.0150 -0.2704 -0.1850
 4751TIP3    H135668   6.099   0.882  13.718  0.2998  0.5402 -0.6343
 4751TIP3    H235669   6.168   0.873  13.852 -0.3441  1.6076 -0.2195
 4752TIP3   OH235670   0.478   2.852  14.606  0.1586  0.2386  0.5124
 4752TIP3    H135671   0.551   2.909  14.627  0.5626 -0.7640  1.9143
 4752TIP3    H235672   0.466   2.797  14.684 -0.1576 -1.6450 -0.7881
 4753TIP3   OH235673   3.988   3.956   2.227 -0.2661  0.0079  0.2607
 4753TIP3    H135674   3.990   4.015   2.302 -0.7099  1.3308 -0.7300
 4753TIP3    H235675   3.929   3.998   2.165  1.1195 -0.3440 -1.3769
 4754TIP3   OH235676   4.594   3.189  11.374 -0.9677 -0.7528  0.1148
 4754TIP3    H135677   4.560   3.268  11.333 -2.0084 -1.2218  0.0447
 4754TIP3    H235678   4.632   3.138  11.303 -0.0232 -0.2077  0.2004
 4755TIP3   OH235679   3.208   2.375  12.610 -0.4526 -0.1816  0.2366
 4755TIP3    H135680   3.284   2.383  12.668 -0.2404 -0.7866  0.0500
 4755TIP3    H235681   3.244   2.340  12.528 -1.0960 -1.7454  0.5732
 4756TIP3   OH235682   4.057   1.583  15.860  0.3327 -0.3686  0.5604
 4756TIP3    H135683   4.139   1.587  15.812 -1.1640  1.6420 -2.0661
 4756TIP3    H235684   4.046   1.671  15.897 -0.6203 -0.6250  0.9224
 4757TIP3   OH235685   1.271   4.373  11.943 -0.3655 -0.2062  0.0744
 4757TIP3    H135686   1.272   4.285  11.980 -0.5779 -0.0287  0.5006
 4757TIP3    H235687   1.325   4.365  11.864  0.8442 -0.3740  0.8789
 4758TIP3   OH235688   4.401   1.563  15.311  0.2516  0.4479  0.1091
 4758TIP3    H135689   4.379   1.594  15.399  1.1682  2.5213 -0.3223
 4758TIP3    H235690   4.318   1.563  15.264 -0.6055 -2.4956  1.3842
 4759TIP3   OH235691   5.163   0.495  14.545  0.2361  0.4501  0.1832
 4759TIP3    H135692   5.141   0.552  14.619 -0.0433  0.4713  0.0869
 4759TIP3    H235693   5.102   0.523  14.476 -0.9406 -0.9667  0.5996
 4760TIP3   OH235694   4.135   0.330  16.713  0.2391  0.0191 -0.9348
 4760TIP3    H135695   4.221   0.289  16.724 -0.4303 -0.9834  1.1993
 4760TIP3    H235696   4.072   0.257  16.722 -0.8918  1.0992  0.5910
 4761TIP3   OH235697   0.811   4.003  16.525  0.0300  0.2028  0.4445
 4761TIP3    H135698   0.723   4.037  16.538 -0.0885  0.6577 -1.2921
 4761TIP3    H235699   0.799   3.910  16.507  0.0077  0.0458  1.2494
 4762TIP3   OH235700   0.737   4.664   3.024  0.1606  0.0447  0.4699
 4762TIP3    H135701   0.786   4.744   3.004 -2.1786  1.9456  1.8092
 4762TIP3    H235702   0.695   4.640   2.941  0.7771  0.2487  0.0895
 4763TIP3   OH235703   0.083   1.809  12.925  0.3025 -0.5010 -0.5755
 4763TIP3    H135704  -0.001   1.818  12.971 -0.0044 -2.3840 -0.6842
 4763TIP3    H235705   0.142   1.867  12.972 -1.4454  2.3029 -1.6040
 4764TIP3   OH235706   1.764   2.050  14.415 -0.1900 -0.5168 -0.3860
 4764TIP3    H135707   1.812   2.042  14.332 -0.1121  1.8336 -0.6447
 4764TIP3    H235708   1.672   2.048  14.390 -0.2131  2.6822 -0.9689
 4765TIP3   OH235709   3.974   6.206   4.523 -0.0710 -0.4354  0.1899
 4765TIP3    H135710   4.022   6.145   4.467 -0.2338 -1.9027  1.5693
 4765TIP3    H235711   4.041   6.263   4.560  0.0458  0.4919 -1.3725
 4766TIP3   OH235712   5.339   6.145  11.688  0.5916 -0.1542  0.0565
 4766TIP3    H135713   5.355   6.066  11.740 -1.0678  0.1324  1.0864
 4766TIP3    H235714   5.245   6.162  11.698  0.7268  1.4020 -0.9416
 4767TIP3   OH235715   0.148   5.070   3.832 -0.3118 -0.3060  0.3292
 4767TIP3    H135716   0.164   5.124   3.755 -3.1922  1.3034  0.7128
 4767TIP3    H235717   0.172   4.981   3.805  1.8683  0.6684 -1.2648
 4768TIP3   OH235718   1.371   1.002   4.132 -0.1946  0.7218 -0.9270
 4768TIP3    H135719   1.421   0.949   4.070  0.3065  1.8226 -1.4771
 4768TIP3    H235720   1.433   1.069   4.161 -0.6389  0.6521  0.2308
 4769TIP3   OH235721   2.709   3.592   5.760  0.7065 -0.2304  0.1678
 4769TIP3    H135722   2.735   3.685   5.761  1.2495 -0.3789  0.2248
 4769TIP3    H235723   2.676   3.576   5.848  0.5388 -0.0674  0.1341
 4770TIP3   OH235724   2.006   2.826  12.393  0.2680 -0.0452 -0.1539
 4770TIP3    H135725   1.992   2.740  12.433 -0.3894 -0.0640 -0.4062
 4770TIP3    H235726   2.098   2.845  12.409  0.5306 -0.9850 -0.4570
 4771TIP3   OH235727   6.436   0.605  12.962 -0.6462 -0.0538 -0.6774
 4771TIP3    H135728   6.431   0.686  13.013  0.0836  0.6834 -1.7243
 4771TIP3    H235729   6.390   0.626  12.880  1.2717 -0.0026 -1.7952
 4772TIP3   OH235730   1.498   0.247  16.939  0.0792 -0.4773 -0.3365
 4772TIP3    H135731   1.483   0.199  16.858 -3.7107 -1.1505  0.5971
 4772TIP3    H235732   1.499   0.339  16.912  1.7862 -0.7647 -1.4178
 4773TIP3   OH235733   5.159   5.240   5.494 -0.0859 -0.0790 -0.4643
 4773TIP3    H135734   5.197   5.326   5.515  1.6644 -0.4774 -1.8512
 4773TIP3    H235735   5.104   5.220   5.570  0.9343  1.4247  0.7394
 4774TIP3   OH235736   0.202   1.323  15.903  0.0386 -0.8865 -0.5067
 4774TIP3    H135737   0.231   1.332  15.813  2.8392 -1.8148  0.2074
 4774TIP3    H235738   0.211   1.229  15.922  1.1453 -0.4771  1.2082
 4775TIP3   OH235739   5.212   1.213   1.724 -0.8272 -0.4422  0.7013
 4775TIP3    H135740   5.296   1.256   1.736 -0.5935 -0.8162  0.4238
 4775TIP3    H235741   5.181   1.197   1.813  0.7670 -2.9417  0.9030
 4776TIP3   OH235742   1.753   1.258   3.995 -0.2416 -0.3513 -0.6583
 4776TIP3    H135743   1.838   1.218   3.981 -0.4951 -0.2967 -2.6410
 4776TIP3    H235744   1.765   1.350   3.974  0.0634  0.5312  2.7754
 4777TIP3   OH235745   2.657   2.896  16.748 -0.1789 -0.5473 -0.3338
 4777TIP3    H135746   2.696   2.966  16.695 -1.2249  0.8156  0.6078
 4777TIP3    H235747   2.566   2.892  16.719 -0.2835 -1.0783  0.0636
 4778TIP3   OH235748   5.198   6.762  15.001  0.6369 -0.0046 -0.1198
 4778TIP3    H135749   5.123   6.789  15.053  0.8467 -0.4282  0.4105
 4778TIP3    H235750   5.160   6.722  14.923  0.3239  0.8558 -0.4267
 4779TIP3   OH235751   3.776   1.062  13.561 -0.5859  0.1585 -0.4120
 4779TIP3    H135752   3.737   1.106  13.486  1.0040  2.0773 -0.2169
 4779TIP3    H235753   3.856   1.112  13.578 -1.5603  0.7194  3.4281
 4780TIP3   OH235754   0.602   4.523  12.514  0.0007 -0.1698  0.2960
 4780TIP3    H135755   0.685   4.549  12.554  1.1413 -1.5645 -1.0315
 4780TIP3    H235756   0.551   4.485  12.586  0.4838  0.7325  1.1325
 4781TIP3   OH235757   1.271   2.354  10.899  0.1445  0.1121  0.1013
 4781TIP3    H135758   1.184   2.366  10.859  0.0440 -0.7308  0.0400
 4781TIP3    H235759   1.332   2.392  10.835 -0.1720  0.6368  0.1067
 4782TIP3   OH235760   2.429   0.353   1.184 -0.2013 -0.2219  0.0415
 4782TIP3    H135761   2.451   0.436   1.228  0.6392  0.2741 -1.2696
 4782TIP3    H235762   2.501   0.339   1.122 -0.8442 -1.4306 -0.4557
 4783TIP3   OH235763   2.553   3.097   4.121 -0.5833  0.4120 -0.0980
 4783TIP3    H135764   2.637   3.143   4.114 -0.6466  0.7470  1.1069
 4783TIP3    H235765   2.558   3.028   4.054  0.2687  1.0035 -0.6676
 4784TIP3   OH235766   0.403   3.751   4.090  0.2672 -0.0872 -0.0273
 4784TIP3    H135767   0.368   3.770   4.003  1.1339 -2.1147 -0.8763
 4784TIP3    H235768   0.490   3.791   4.089  0.7838 -1.1794 -0.5993
 4785TIP3   OH235769   5.546   6.787  11.372  0.3917 -0.7788 -0.3038
 4785TIP3    H135770   5.604   6.775  11.296  0.0812 -2.5835 -0.2858
 4785TIP3    H235771   5.482   6.716  11.365  0.6047 -1.2290  1.8614
 4786TIP3   OH235772   5.874   5.890  13.769 -0.1688  0.6062 -0.3494
 4786TIP3    H135773   5.895   5.909  13.678  2.8879  1.0415  0.3369
 4786TIP3    H235774   5.958   5.868  13.809 -1.5714 -0.7877  2.1151
 4787TIP3   OH235775   0.769   6.577   1.881  0.0136 -0.1720 -0.0823
 4787TIP3    H135776   0.778   6.668   1.851  2.3662 -0.2317  0.2826
 4787TIP3    H235777   0.798   6.524   1.807 -0.8199 -0.6246 -0.0970
 4788TIP3   OH235778   6.612   2.430   5.817 -0.6654 -0.1483 -0.2659
 4788TIP3    H135779   6.549   2.483   5.866 -0.1694  0.0761  0.1406
 4788TIP3    H235780   6.695   2.478   5.825 -0.3158 -0.7353 -0.3026
 4789TIP3   OH235781   5.647   0.572   4.791  0.1539 -0.1432 -0.3522
 4789TIP3    H135782   5.624   0.637   4.725 -1.0477  2.7514  2.6649
 4789TIP3    H235783   5.742   0.582   4.803 -0.1998  2.2617  1.0736
 4790TIP3   OH235784   1.453   5.800   0.808  0.6400 -0.4569  0.0659
 4790TIP3    H135785   1.533   5.757   0.778  1.1478 -0.3085  1.1647
 4790TIP3    H235786   1.483   5.882   0.848 -0.0364 -0.4569  0.6039
 4791TIP3   OH235787   0.173   2.318   5.018 -0.2461  0.3538 -0.0524
 4791TIP3    H135788   0.082   2.287   5.009  0.0795 -0.7569  0.3301
 4791TIP3    H235789   0.171   2.408   4.985 -1.2738 -0.0013 -1.0286
 4792TIP3   OH235790   5.789   5.727   5.348 -0.2879 -0.1510 -0.1144
 4792TIP3    H135791   5.870   5.768   5.378 -0.6095 -0.1869  0.8479
 4792TIP3    H235792   5.766   5.775   5.269  0.7148 -0.1995 -0.4559
 4793TIP3   OH235793   0.752   0.705   2.767 -0.1473  0.4695  0.7115
 4793TIP3    H135794   0.764   0.611   2.749 -1.6428  0.2488  0.7076
 4793TIP3    H235795   0.806   0.721   2.845  0.1942 -0.3756  0.6682
 4794TIP3   OH235796   6.496   4.302  17.229  0.2233  0.4591  0.2000
 4794TIP3    H135797   6.570   4.244  17.247  1.0604  1.3851 -0.1142
 4794TIP3    H235798   6.532   4.368  17.169 -0.7924  1.0834  0.2576
 4795TIP3   OH235799   3.816   6.730   4.989 -0.1048  0.1802  0.8565
 4795TIP3    H135800   3.743   6.789   4.968  0.3684  0.9093  1.1945
 4795TIP3    H235801   3.850   6.702   4.904  0.6959  1.7153  0.6345
 4796TIP3   OH235802   2.991   4.650  16.019  0.3228  0.3087 -0.1487
 4796TIP3    H135803   3.071   4.597  16.025 -0.4199 -1.0114 -1.3072
 4796TIP3    H235804   3.003   4.704  15.941  0.4962  0.8604  0.2539
 4797TIP3   OH235805   5.321   6.201  15.248 -0.0998  0.2007 -0.2131
 4797TIP3    H135806   5.340   6.109  15.234  0.5615  0.1724  0.8189
 4797TIP3    H235807   5.312   6.210  15.343 -1.3248  0.9810 -0.3722
 4798TIP3   OH235808   4.289   1.699   3.315  0.4763 -0.7182  0.6854
 4798TIP3    H135809   4.276   1.791   3.295  0.6443 -1.1046 -1.4742
 4798TIP3    H235810   4.378   1.680   3.285 -0.6091 -2.2428 -1.9617
 4799TIP3   OH235811   2.960   5.745  14.786 -0.1500  0.2736 -0.1571
 4799TIP3    H135812   2.877   5.704  14.808  0.4500 -0.1115  1.5754
 4799TIP3    H235813   2.996   5.773  14.870  2.2609 -1.1473 -0.6035
 4800TIP3   OH235814   0.676   6.409   3.146  0.2008  0.4083 -0.1158
 4800TIP3    H135815   0.692   6.443   3.058 -2.3284  0.0721 -0.7863
 4800TIP3    H235816   0.614   6.470   3.185 -0.4931 -0.6901  0.5622
 4801TIP3   OH235817   2.415   5.032   4.833  0.1820  0.6097  0.2882
 4801TIP3    H135818   2.373   5.110   4.867 -1.8858 -0.9818  1.6496
 4801TIP3    H235819   2.365   4.959   4.871  1.7913 -1.3761 -1.1593
 4802TIP3   OH235820   6.616   1.465   4.007 -0.0028  0.1807  0.0265
 4802TIP3    H135821   6.697   1.484   4.055 -0.0896  1.1285 -0.1758
 4802TIP3    H235822   6.645   1.418   3.929  0.1450 -1.3326  0.9456
 4803TIP3   OH235823   2.010   2.591  13.092 -0.0093 -0.4506 -0.1070
 4803TIP3    H135824   2.027   2.505  13.053  2.7673 -0.7247  1.4374
 4803TIP3    H235825   1.991   2.573  13.184  2.6187  0.5550  0.7506
 4804TIP3   OH235826   6.518   5.821  16.513  0.1882 -0.2489 -0.4495
 4804TIP3    H135827   6.518   5.725  16.511  1.1834 -0.2940  0.5045
 4804TIP3    H235828   6.603   5.844  16.550 -0.9372  0.9218  1.6281
 4805TIP3   OH235829   5.282   5.574  16.920 -0.5823  0.1017  0.3232
 4805TIP3    H135830   5.352   5.637  16.936 -1.0312  0.6232  0.2813
 4805TIP3    H235831   5.319   5.489  16.946 -0.4351  0.5697  1.7185
 4806TIP3   OH235832   4.409   2.124  12.505  0.2733  0.7133 -0.3264
 4806TIP3    H135833   4.465   2.189  12.548 -0.9311  1.8458 -0.4007
 4806TIP3    H235834   4.337   2.175  12.468 -1.4982 -0.7704  0.8435
 4807TIP3   OH235835   4.587   0.928   2.277 -0.6264  0.8354 -0.2421
 4807TIP3    H135836   4.679   0.930   2.251 -0.9082  2.2229 -1.2743
 4807TIP3    H235837   4.584   0.872   2.355  0.9031 -0.1331 -0.8496
 4808TIP3   OH235838   2.915   1.052   3.696  0.4321  0.5754 -0.3265
 4808TIP3    H135839   2.851   1.112   3.736  0.8180  1.0332 -0.3954
 4808TIP3    H235840   2.910   1.071   3.602  0.7218  0.6580 -0.3240
 4809TIP3   OH235841   0.937   1.281  15.709  0.6498 -0.1898 -0.0632
 4809TIP3    H135842   0.847   1.257  15.686  1.3494 -1.4908 -1.6844
 4809TIP3    H235843   0.928   1.351  15.774 -1.5237 -1.1468  0.7635
 4810TIP3   OH235844   0.810   2.395  13.523  0.0088 -0.0198 -0.0526
 4810TIP3    H135845   0.758   2.456  13.576 -1.5646 -0.8073 -0.6410
 4810TIP3    H235846   0.763   2.313  13.528 -0.7827  0.0802 -3.4681
 4811TIP3   OH235847   2.088   2.921  11.476  0.0483  0.0313  0.3648
 4811TIP3    H135848   2.063   3.011  11.456  1.3321  0.2482 -0.3538
 4811TIP3    H235849   2.026   2.893  11.544 -0.4293  1.4072  0.5154
 4812TIP3   OH235850   2.100   4.085   0.697  0.1751  0.2358 -1.2294
 4812TIP3    H135851   2.051   4.020   0.646 -1.7478 -0.7237  1.5906
 4812TIP3    H235852   2.088   4.167   0.649 -5.7061  0.4442 -0.1914
 4813TIP3   OH235853   2.971   3.768   4.300 -0.1533 -0.0996  0.6404
 4813TIP3    H135854   3.011   3.821   4.369 -0.1108  1.0146 -0.2143
 4813TIP3    H235855   2.919   3.702   4.347  1.4301 -0.6030  1.7434
 4814TIP3   OH235856   0.684   3.062   3.459 -0.0270 -0.3947 -0.8984
 4814TIP3    H135857   0.633   3.129   3.413 -1.8760 -1.0059  0.1840
 4814TIP3    H235858   0.750   3.035   3.395 -1.4618 -0.0356 -2.6091
 4815TIP3   OH235859   5.088   2.634  15.553  0.2012 -0.6648  0.2173
 4815TIP3    H135860   5.138   2.591  15.623 -0.9880 -3.3334 -0.4750
 4815TIP3    H235861   5.025   2.689  15.599  0.7449 -0.8305  1.1901
 4816TIP3   OH235862   6.653   3.753   1.279 -0.4695  0.1112  0.5274
 4816TIP3    H135863   6.619   3.669   1.310 -0.9096  0.4156  0.8762
 4816TIP3    H235864   6.591   3.818   1.311 -0.2389  0.5571  0.0919
 4817TIP3   OH235865   4.209   4.110   5.774  1.1381 -0.0931 -0.1809
 4817TIP3    H135866   4.188   4.021   5.802 -2.7790 -0.1261 -2.4795
 4817TIP3    H235867   4.253   4.099   5.690  1.1943  0.1428 -0.1845
 4818TIP3   OH235868   2.209   0.767  16.743 -0.0417 -0.0687  0.4163
 4818TIP3    H135869   2.263   0.724  16.809 -1.6605  0.7592  2.4299
 4818TIP3    H235870   2.120   0.735  16.760 -0.6446  0.8903 -0.7622
 4819TIP3   OH235871   1.315   2.955   6.211  0.2306 -0.5437 -0.0351
 4819TIP3    H135872   1.410   2.949   6.218  0.2431  0.4289  0.7878
 4819TIP3    H235873   1.290   3.021   6.275 -0.6508  2.0982 -2.8838
 4820TIP3   OH235874   5.886   0.534  14.649  0.3299 -0.8864 -0.2953
 4820TIP3    H135875   5.833   0.487  14.585  1.5417 -2.7351 -0.0478
 4820TIP3    H235876   5.939   0.595  14.598 -0.8744 -0.1636 -0.6998
 4821TIP3   OH235877   2.264   0.968  11.450 -0.2520  0.0326  0.3266
 4821TIP3    H135878   2.317   0.908  11.398  0.6374  1.6599 -0.7560
 4821TIP3    H235879   2.327   1.012  11.507 -0.8852 -0.0472  1.1150
 4822TIP3   OH235880   3.912   6.391   1.267  0.7710 -0.4770 -0.0867
 4822TIP3    H135881   4.007   6.391   1.276  0.7874 -1.9677 -0.0123
 4822TIP3    H235882   3.879   6.366   1.353  0.2399  1.1842  0.2206
 4823TIP3   OH235883   5.628   2.042   5.288 -0.5578 -0.1172  0.4379
 4823TIP3    H135884   5.552   1.985   5.301 -0.7355  0.3084  1.2815
 4823TIP3    H235885   5.672   2.043   5.372 -1.0288  1.6719  0.6998
 4824TIP3   OH235886   5.080   6.045   3.607  0.2799  0.1654  0.0214
 4824TIP3    H135887   5.022   5.972   3.628  1.1255 -0.8354 -1.0148
 4824TIP3    H235888   5.036   6.093   3.537 -0.3772  0.8024  0.8498
 4825TIP3   OH235889   4.097   5.644  14.224  0.2866 -0.0722 -0.1421
 4825TIP3    H135890   4.096   5.735  14.255 -1.7474  0.1660 -0.7769
 4825TIP3    H235891   4.147   5.646  14.143 -1.7960  1.0242 -1.4899
 4826TIP3   OH235892   4.408   5.190   5.005 -0.0435  0.2806 -0.0605
 4826TIP3    H135893   4.453   5.106   5.001  0.4064  0.4077  1.5208
 4826TIP3    H235894   4.377   5.205   4.916  1.1957 -0.8200 -0.7162
 4827TIP3   OH235895   3.371   1.257   6.830 -0.2288  0.6836 -0.3558
 4827TIP3    H135896   3.378   1.352   6.844 -1.9793  0.6526  0.9706
 4827TIP3    H235897   3.337   1.249   6.740 -0.5798  1.3331 -0.2859
 4828TIP3   OH235898   5.629   2.861   3.371 -0.2583  0.3387  0.1409
 4828TIP3    H135899   5.620   2.918   3.447  1.1173  1.2729 -0.3596
 4828TIP3    H235900   5.672   2.915   3.305  0.0877 -0.9425 -0.7269
 4829TIP3   OH235901   4.849   4.488  12.895 -0.3287  0.6831 -0.2851
 4829TIP3    H135902   4.800   4.409  12.920 -1.1327  1.6919  1.5589
 4829TIP3    H235903   4.854   4.484  12.800  0.3215 -1.9621 -0.2079
 4830TIP3   OH235904   1.815   2.731   0.739 -0.0381  0.4959  0.0365
 4830TIP3    H135905   1.893   2.678   0.722  0.5422  0.9405  1.2136
 4830TIP3    H235906   1.796   2.774   0.655  0.4230 -0.3400 -0.5006
 4831TIP3   OH235907   5.467   4.882   6.136 -0.7147 -0.0389 -0.5054
 4831TIP3    H135908   5.430   4.832   6.208  0.0666  0.4499  0.2637
 4831TIP3    H235909   5.551   4.914   6.170 -0.5043  0.5128 -1.5010
 4832TIP3   OH235910   4.167   6.260  15.910 -0.3088 -0.2699  0.2224
 4832TIP3    H135911   4.151   6.267  16.005  1.1483 -0.1853  0.4803
 4832TIP3    H235912   4.238   6.321  15.893 -1.0053  0.2137 -1.0666
 4833TIP3   OH235913   1.362   1.429   4.907 -0.0324  0.4510 -0.2282
 4833TIP3    H135914   1.277   1.469   4.927 -0.0645  0.8030 -1.0559
 4833TIP3    H235915   1.425   1.485   4.953 -0.0986  1.3192 -1.1737
 4834TIP3   OH235916   6.106   4.432   5.779  0.1837  0.2465 -0.0221
 4834TIP3    H135917   6.156   4.427   5.860  1.3857  0.4681 -0.7170
 4834TIP3    H235918   6.125   4.519   5.745 -0.7289  0.3500 -0.2838
 4835TIP3   OH235919   2.488   1.487   1.252  1.0367  0.1791 -0.7826
 4835TIP3    H135920   2.440   1.406   1.237  2.2423 -0.3570 -1.9140
 4835TIP3    H235921   2.516   1.516   1.165  2.0454  0.9135 -0.2497
 4836TIP3   OH235922   1.721   3.290  16.356 -0.5088 -0.5972  0.5890
 4836TIP3    H135923   1.654   3.235  16.315 -2.2862  1.0657  1.1552
 4836TIP3    H235924   1.716   3.373  16.309  0.7211 -0.2090  1.0986
 4837TIP3   OH235925   6.232   1.126   1.140  0.3320  0.7118  0.4160
 4837TIP3    H135926   6.265   1.153   1.226 -2.4774  1.6503  1.2732
 4837TIP3    H235927   6.213   1.032   1.150  0.3186  0.7450  0.6863
 4838TIP3   OH235928   0.224   1.721  15.798  0.1739  0.3478  0.3015
 4838TIP3    H135929   0.242   1.790  15.734  0.3003 -0.0376 -0.0816
 4838TIP3    H235930   0.131   1.701  15.787  0.7010 -1.4236 -1.4918
 4839TIP3   OH235931   4.268   2.284  14.975 -0.5503  0.1764  0.7845
 4839TIP3    H135932   4.250   2.254  14.886 -0.3623 -0.2202  0.8773
 4839TIP3    H235933   4.331   2.355  14.965 -2.2859  1.7392  0.4337
 4840TIP3   OH235934   4.177   2.240   1.992  0.0769 -0.7013 -0.0838
 4840TIP3    H135935   4.099   2.196   2.027 -1.3068 -0.0772 -2.1824
 4840TIP3    H235936   4.222   2.275   2.069 -1.3521 -1.6426  1.2391
 4841TIP3   OH235937   1.004   3.722   6.240  0.6314 -0.3177 -0.7360
 4841TIP3    H135938   0.986   3.640   6.195  0.1347 -0.3904 -0.4182
 4841TIP3    H235939   0.925   3.739   6.292  2.1143 -1.6092  2.2071
 4842TIP3   OH235940   2.588   5.120   0.909 -0.5980 -0.1737  0.2711
 4842TIP3    H135941   2.494   5.103   0.918 -0.1825 -2.0507  1.7756
 4842TIP3    H235942   2.620   5.052   0.850 -0.1749  0.5493 -0.3619
 4843TIP3   OH235943   6.741   4.144   2.391 -0.5366 -0.0897 -0.2586
 4843TIP3    H135944   6.694   4.084   2.448 -0.4817  1.1550  1.1839
 4843TIP3    H235945   6.832   4.115   2.395 -0.7924 -1.0359 -1.1007
 4844TIP3   OH235946   4.561   5.895  12.637 -0.2104 -0.1269 -0.5899
 4844TIP3    H135947   4.618   5.856  12.571 -0.8545  1.3103 -2.0562
 4844TIP3    H235948   4.473   5.867  12.613 -0.5481  1.1920 -0.9531
 4845TIP3   OH235949   1.458   4.199   5.638 -0.0409 -0.4178  0.1518
 4845TIP3    H135950   1.521   4.140   5.680  1.3260  0.9976  0.2221
 4845TIP3    H235951   1.501   4.285   5.641 -1.1219  0.2428 -1.6360
 4846TIP3   OH235952   0.069   2.001  16.465  0.3804  0.9884  0.0545
 4846TIP3    H135953   0.035   1.945  16.535 -0.0838 -0.4845 -1.2960
 4846TIP3    H235954   0.144   2.045  16.504 -0.0409  0.4381  1.5616
 4847TIP3   OH235955   5.503   4.637  11.186 -0.2647 -0.0649 -0.2645
 4847TIP3    H135956   5.538   4.621  11.098 -1.7284 -0.3411 -0.8334
 4847TIP3    H235957   5.505   4.732  11.197  2.5010 -0.1283  0.5562
 4848TIP3   OH235958   6.398   2.964  13.471  0.4797  0.1358 -0.2666
 4848TIP3    H135959   6.340   3.027  13.513  0.2175 -0.2441 -0.0506
 4848TIP3    H235960   6.360   2.948  13.385 -0.9643 -1.7092  0.6353
 4849TIP3   OH235961   5.363   2.640  10.700 -0.4108  0.3538 -0.2970
 4849TIP3    H135962   5.370   2.615  10.792 -0.0856 -1.0230 -0.6788
 4849TIP3    H235963   5.282   2.598  10.670  0.8914 -1.5728 -1.3209
 4850TIP3   OH235964   5.818   0.307   6.185 -0.0042  0.5815  0.0746
 4850TIP3    H135965   5.857   0.384   6.225 -0.4424  1.0235 -0.3332
 4850TIP3    H235966   5.736   0.339   6.145 -1.4907 -0.5577  2.0320
 4851TIP3   OH235967   2.471   6.403  13.875 -0.1743  0.0795 -0.0978
 4851TIP3    H135968   2.415   6.350  13.932  1.1442 -0.7293  0.4991
 4851TIP3    H235969   2.523   6.457  13.935 -1.4798  2.1213 -0.6960
 4852TIP3   OH235970   0.453   5.419  15.225  0.5779  0.2654  0.1417
 4852TIP3    H135971   0.373   5.373  15.252  0.0665  0.8525 -0.3673
 4852TIP3    H235972   0.502   5.430  15.307  1.2322 -2.1368  0.1405
 4853TIP3   OH235973   0.346   1.020  15.602 -0.2814  0.2533  0.3970
 4853TIP3    H135974   0.402   0.945  15.625 -0.6056 -0.7731 -1.9141
 4853TIP3    H235975   0.286   1.028  15.677  1.2703 -0.2446  1.7626
 4854TIP3   OH235976   6.376   3.482   1.838 -0.1607 -0.0786  0.7896
 4854TIP3    H135977   6.430   3.519   1.768  1.0667 -1.6796  0.8139
 4854TIP3    H235978   6.355   3.556   1.894  0.4726  0.9068 -0.2295
 4855TIP3   OH235979   3.700   4.196   4.393 -0.4662  0.1046  0.2076
 4855TIP3    H135980   3.613   4.164   4.416 -1.1196  2.2043  0.8824
 4855TIP3    H235981   3.695   4.291   4.406  1.5368  0.4405 -1.0174
 4856TIP3   OH235982   5.247   6.596  16.441 -0.3514 -0.0003  0.1685
 4856TIP3    H135983   5.282   6.651  16.510  0.5647 -0.6523  0.2381
 4856TIP3    H235984   5.209   6.658  16.378  2.3538  0.8779 -0.7047
 4857TIP3   OH235985   0.887   6.389  14.169  0.3554 -0.2656  0.2177
 4857TIP3    H135986   0.805   6.428  14.199  1.9274  2.0299  1.8673
 4857TIP3    H235987   0.941   6.463  14.144  1.7232 -1.7605 -1.5707
 4858TIP3   OH235988   2.530   5.069   0.196  0.2323 -0.4535 -0.1147
 4858TIP3    H135989   2.475   4.991   0.205  0.9261 -0.8423  0.9343
 4858TIP3    H235990   2.609   5.039   0.151  0.8219 -0.5439  0.9392
 4859TIP3   OH235991   3.894   4.613   3.234  0.0451  0.8429 -0.2263
 4859TIP3    H135992   3.857   4.682   3.289 -0.0976 -0.3584  1.2270
 4859TIP3    H235993   3.818   4.560   3.209  0.4708 -0.3584  0.9510
 4860TIP3   OH235994   0.117   1.601  12.624 -0.0046 -0.2969  0.1531
 4860TIP3    H135995   0.041   1.547  12.606 -0.6265  1.1882 -2.0885
 4860TIP3    H235996   0.081   1.681  12.663  0.5784 -0.2351  0.5807
 4861TIP3   OH235997   6.264   3.224  16.825  0.3333  0.3411  0.2029
 4861TIP3    H135998   6.292   3.310  16.794  1.5419  0.2376  0.9574
 4861TIP3    H235999   6.221   3.184  16.749  1.3347  0.9146 -0.6933
 4862TIP3   OH236000   3.969   0.986   2.021 -0.3854 -0.3158 -0.6340
 4862TIP3    H136001   3.914   0.908   2.013 -0.5542 -0.2787  0.1416
 4862TIP3    H236002   3.906   1.058   2.028 -0.2436 -0.2811  0.3268
 4863TIP3   OH236003   4.026   0.121   1.736  0.0023  0.1031 -0.4588
 4863TIP3    H136004   3.978   0.067   1.799 -0.0986 -0.0353 -0.6540
 4863TIP3    H236005   3.962   0.141   1.668  0.2348 -0.1166 -0.7436
 4864TIP3   OH236006   3.587   2.136  17.033  0.2281 -0.3808  0.1922
 4864TIP3    H136007   3.610   2.082  17.109 -0.2273 -2.4330 -1.0381
 4864TIP3    H236008   3.519   2.086  16.988 -0.5270  1.4671 -0.8145
 4865TIP3   OH236009   5.607   4.061   2.041  0.3939  0.2261 -0.5337
 4865TIP3    H136010   5.573   4.149   2.028 -0.6655 -0.3562 -1.8658
 4865TIP3    H236011   5.696   4.075   2.076 -0.0638  1.7870  0.1031
 4866TIP3   OH236012   3.177   2.437   2.674 -0.3988  0.4604  0.1163
 4866TIP3    H136013   3.260   2.437   2.723  0.1831 -0.8372 -0.8092
 4866TIP3    H236014   3.112   2.468   2.737  0.4523 -0.4650  1.5047
 4867TIP3   OH236015   5.605   1.212  13.348  0.2988  0.9074 -0.2529
 4867TIP3    H136016   5.593   1.134  13.400 -0.9122  0.6562 -0.8800
 4867TIP3    H236017   5.544   1.276  13.385 -0.8752  0.5957 -1.5667
 4868TIP3   OH236018   3.900   2.816   3.022  0.2349 -0.1818 -0.0777
 4868TIP3    H136019   3.879   2.795   3.113 -0.5297 -1.6492 -0.5632
 4868TIP3    H236020   3.974   2.877   3.028  0.9187 -1.1034  1.5025
 4869TIP3   OH236021   3.782   3.400  14.313  0.3666  0.1328 -0.1943
 4869TIP3    H136022   3.835   3.428  14.388 -1.0239  0.9205  0.5186
 4869TIP3    H236023   3.764   3.480  14.265  1.5748 -0.4131 -1.6420
 4870TIP3   OH236024   2.066   2.523   1.297  0.0908  0.7516  0.6234
 4870TIP3    H136025   2.088   2.612   1.268 -1.8413  0.7155 -1.1097
 4870TIP3    H236026   2.137   2.469   1.263 -0.3804  1.2009 -1.1480
 4871TIP3   OH236027   1.783   6.067   1.711 -0.1691 -0.4514  0.3630
 4871TIP3    H136028   1.783   6.126   1.635 -0.7797  1.3388  1.6918
 4871TIP3    H236029   1.703   6.015   1.700 -0.7760  0.4673  0.2419
 4872TIP3   OH236030   5.217   5.334   0.055  0.0033 -0.1180 -0.3065
 4872TIP3    H136031   5.128   5.367   0.071  0.1149 -0.0970  0.2876
 4872TIP3    H236032   5.272   5.384   0.115  0.5875  0.7060 -1.4859
 4873TIP3   OH236033   5.570   1.956  12.779 -0.7117  0.0832 -0.2366
 4873TIP3    H136034   5.531   1.959  12.692 -1.8482 -1.1453  0.1938
 4873TIP3    H236035   5.603   2.044  12.794 -0.5528  0.3321 -1.8725
 4874TIP3   OH236036   3.022   0.881  14.770  0.5681  0.7887  0.4974
 4874TIP3    H136037   2.986   0.793  14.782 -0.0285  1.2407  2.1776
 4874TIP3    H236038   3.112   0.875  14.801  0.3298  0.9229  1.2187
 4875TIP3   OH236039   5.110   5.389  11.325 -0.3063  0.2670 -0.2520
 4875TIP3    H136040   5.150   5.410  11.240 -1.1275 -0.4250 -0.8250
 4875TIP3    H236041   5.180   5.349  11.376  0.3157  1.1021 -0.4362
 4876TIP3   OH236042   2.411   2.519   1.527 -0.0227  0.7145 -0.2410
 4876TIP3    H136043   2.426   2.548   1.437  0.7238  0.6143 -0.1482
 4876TIP3    H236044   2.478   2.453   1.543  0.5367  1.5070  0.7563
 4877TIP3   OH236045   0.915   4.980   5.343 -0.5852 -0.0059  0.7645
 4877TIP3    H136046   1.001   4.957   5.310  0.3696  1.3140  2.2103
 4877TIP3    H236047   0.874   5.029   5.272  0.5065  0.7719  0.6470
 4878TIP3   OH236048   5.494   5.029  11.513  0.4229  0.1813  0.2549
 4878TIP3    H136049   5.488   5.102  11.574 -0.9963  0.1992  0.1293
 4878TIP3    H236050   5.570   4.979  11.542  0.9302  1.2575  0.8251
 4879TIP3   OH236051   6.152   6.337  12.979 -0.2525 -0.9110 -0.0834
 4879TIP3    H136052   6.177   6.372  13.065 -0.3676 -1.2059  0.0722
 4879TIP3    H236053   6.069   6.292  12.995 -1.7763  1.4129 -0.9103
 4880TIP3   OH236054   2.533   0.875   1.886 -0.3805 -0.1642 -0.3772
 4880TIP3    H136055   2.509   0.799   1.938 -0.7941 -0.5181 -1.0775
 4880TIP3    H236056   2.452   0.924   1.876 -0.3784 -0.2736 -0.9691
 4881TIP3   OH236057   3.151   6.674  13.071 -0.1283 -0.4099 -0.0780
 4881TIP3    H136058   3.103   6.731  13.132 -0.2871 -0.4629 -0.1515
 4881TIP3    H236059   3.111   6.692  12.986 -0.8525 -1.3527  0.0446
 4882TIP3   OH236060   2.553   5.156   1.601 -0.0606 -0.3487  0.0891
 4882TIP3    H136061   2.528   5.231   1.546  0.6366 -0.1165  0.0869
 4882TIP3    H236062   2.647   5.166   1.614 -0.3132 -0.0352  1.8911
 4883TIP3   OH236063   4.114   4.165  11.242 -0.1427 -0.5957 -0.4258
 4883TIP3    H136064   4.122   4.243  11.186 -1.4111 -1.1498 -1.4202
 4883TIP3    H236065   4.201   4.124  11.237  0.1870  0.1250 -0.8307
 4884TIP3   OH236066   1.933   1.811   2.385 -0.3479 -0.1812  0.4510
 4884TIP3    H136067   1.853   1.830   2.434  0.6548  0.7874  1.7989
 4884TIP3    H236068   2.000   1.865   2.427  0.6214  0.5979 -1.9420
 4885TIP3   OH236069   5.270   4.116   2.662 -0.5329 -0.0629  0.0847
 4885TIP3    H136070   5.323   4.119   2.741  1.4073 -1.3458 -1.0888
 4885TIP3    H236071   5.303   4.040   2.614  0.5750  2.3922 -3.4481
 4886TIP3   OH236072   6.262   5.659   6.827 -0.1140  0.0298  0.0328
 4886TIP3    H136073   6.276   5.617   6.743  1.1594  0.6557 -0.0890
 4886TIP3    H236074   6.346   5.654   6.871 -0.3903  0.9354  0.7016
 4887TIP3   OH236075   2.448   4.962  15.846 -0.8625 -0.0461 -0.5742
 4887TIP3    H136076   2.362   4.988  15.878 -0.4241 -0.1662  0.7606
 4887TIP3    H236077   2.468   4.881  15.893  0.6176  0.7800  0.3189
 4888TIP3   OH236078   0.004   6.455   2.360  0.2310 -0.9899 -0.0742
 4888TIP3    H136079   0.088   6.416   2.382  1.4273 -0.3792 -3.0667
 4888TIP3    H236080  -0.010   6.521   2.428  1.4934 -1.9937  1.2263
 4889TIP3   OH236081   3.832   1.277  12.287  0.3505 -0.0898  0.0109
 4889TIP3    H136082   3.754   1.330  12.304  1.0150  0.3664  1.9822
 4889TIP3    H236083   3.798   1.195  12.251 -1.4033 -0.9751  3.2018
 4890TIP3   OH236084   2.107   1.605  15.274  0.0779 -0.0587  0.2711
 4890TIP3    H136085   2.184   1.594  15.217  1.4385 -1.2664  2.2023
 4890TIP3    H236086   2.036   1.560  15.227  0.1151  2.1939 -2.1794
 4891TIP3   OH236087   1.065   3.370  15.991 -0.4488  0.3933 -0.0286
 4891TIP3    H136088   1.124   3.301  16.020 -2.4939 -1.3901  0.1222
 4891TIP3    H236089   1.122   3.445  15.973  2.2708 -2.0379 -2.6817
 4892TIP3   OH236090   4.346   2.283  11.787  0.1527  0.1931 -0.2090
 4892TIP3    H136091   4.424   2.338  11.776  0.1282 -0.1972 -3.1942
 4892TIP3    H236092   4.357   2.244  11.873  2.2745  1.6589  0.2776
 4893TIP3   OH236093   3.820   4.914   2.655  0.0485 -0.8644 -0.1297
 4893TIP3    H136094   3.911   4.940   2.638 -0.1225  0.7686  1.2023
 4893TIP3    H236095   3.825   4.863   2.735 -0.2344 -0.5205  0.1090
 4894TIP3   OH236096   0.360   5.989   0.657 -0.3809 -0.1309 -0.1325
 4894TIP3    H136097   0.343   5.934   0.733  0.1258 -0.8392 -0.5159
 4894TIP3    H236098   0.361   5.928   0.583 -1.1216  0.5837 -0.7450
 4895TIP3   OH236099   2.819   2.838  16.218 -0.2966 -0.1128 -0.2749
 4895TIP3    H136100   2.903   2.878  16.239  0.1924 -0.5780 -1.2614
 4895TIP3    H236101   2.840   2.746  16.202 -0.7691  0.0146 -1.7736
 4896TIP3   OH236102   2.680   6.252  17.051  0.1755 -0.6992  0.4068
 4896TIP3    H136103   2.749   6.227  16.989 -0.3922 -1.3490  0.0219
 4896TIP3    H236104   2.678   6.180  17.114 -0.4214 -0.8759  0.1882
 4897TIP3   OH236105   5.420   6.430  16.137 -0.5509  0.0903 -0.1264
 4897TIP3    H136106   5.501   6.397  16.100  0.6600  1.8149  0.8458
 4897TIP3    H236107   5.368   6.352  16.157  1.6436 -1.1809  0.9433
 4898TIP3   OH236108   3.249   1.892   4.737 -0.5168  0.0584  0.2592
 4898TIP3    H136109   3.198   1.854   4.808  0.3724 -1.2400  0.2380
 4898TIP3    H236110   3.189   1.894   4.662 -1.9125  2.7278  1.3099
 4899TIP3   OH236111   4.803   2.279   5.782 -0.3796 -0.2692 -0.0624
 4899TIP3    H136112   4.768   2.351   5.730 -0.0094 -0.0649 -0.0355
 4899TIP3    H236113   4.837   2.217   5.718 -2.4313 -1.3691 -0.1817
 4900TIP3   OH236114   4.787   4.355  13.331  0.1799 -0.0171  0.0473
 4900TIP3    H136115   4.694   4.338  13.347  0.3453 -0.1662  0.8875
 4900TIP3    H236116   4.827   4.269  13.327  0.1202  0.0059 -1.3981
 4901TIP3   OH236117   6.387   3.507   4.894 -0.4391 -0.6770 -1.0928
 4901TIP3    H136118   6.471   3.519   4.938  0.1901 -1.7735 -1.9653
 4901TIP3    H236119   6.347   3.594   4.895  1.0725  0.0482 -1.4030
 4902TIP3   OH236120   1.271   0.218   1.066 -0.8312 -0.3163 -0.2008
 4902TIP3    H136121   1.293   0.126   1.079  1.2501  0.2370  0.5444
 4902TIP3    H236122   1.202   0.217   0.999 -1.9602 -2.4678  0.9106
 4903TIP3   OH236123   5.275   1.985   4.943 -0.1786  0.0272  0.2755
 4903TIP3    H136124   5.240   2.073   4.929  0.9001  0.2046 -1.8134
 4903TIP3    H236125   5.253   1.938   4.863 -0.8705 -1.6935  1.4211
 4904TIP3   OH236126   2.486   0.853   5.299  0.2049  0.6879 -0.3153
 4904TIP3    H136127   2.544   0.789   5.258 -1.3159  0.5099 -2.3238
 4904TIP3    H236128   2.546   0.914   5.344  1.7093 -2.1496  1.9025
 4905TIP3   OH236129   6.475   0.395  14.543 -0.1915  0.4581 -0.0985
 4905TIP3    H136130   6.414   0.465  14.565 -0.3536  0.0840  0.6806
 4905TIP3    H236131   6.481   0.342  14.623 -1.9419 -1.8207 -1.3400
 4906TIP3   OH236132   0.112   4.880   4.339 -0.2794 -0.0560 -0.4384
 4906TIP3    H136133   0.029   4.841   4.310 -1.0643  1.5994 -0.5719
 4906TIP3    H236134   0.101   4.890   4.434 -0.3851  0.4558 -0.4993
 4907TIP3   OH236135   0.262   1.469  13.736  0.1953  0.1463 -0.0420
 4907TIP3    H136136   0.326   1.400  13.716  1.0896  0.6332  1.0064
 4907TIP3    H236137   0.244   1.458  13.829 -1.2539  0.0519 -0.3050
 4908TIP3   OH236138   1.045   0.158   3.385  0.2350  0.1628 -0.8173
 4908TIP3    H136139   0.974   0.100   3.413  0.0179  0.8188  0.0385
 4908TIP3    H236140   1.017   0.245   3.412  1.0565  0.5243 -1.0917
 4909TIP3   OH236141   2.792   0.195   0.172  0.3912  0.1489  0.0388
 4909TIP3    H136142   2.846   0.135   0.120  1.3586 -0.5504  1.7831
 4909TIP3    H236143   2.709   0.148   0.184  0.5797 -0.1702  0.0940
 4910TIP3   OH236144   0.963   5.665   0.394 -0.6137  0.3346 -0.2526
 4910TIP3    H136145   0.908   5.610   0.449 -0.1588  1.0531  0.9578
 4910TIP3    H236146   0.943   5.754   0.422 -1.2655  0.8118 -2.1081
 4911TIP3   OH236147   4.597   0.936  10.892 -0.0900  0.3176 -0.2013
 4911TIP3    H136148   4.529   0.941  10.825 -0.5753  1.0145  0.3289
 4911TIP3    H236149   4.679   0.943  10.843 -0.3671 -0.7850 -0.8748
 4912TIP3   OH236150   3.473   1.940   0.001  0.1559 -0.4117 -0.3148
 4912TIP3    H136151   3.477   1.995   0.079 -0.6930  2.5998 -2.2343
 4912TIP3    H236152   3.450   1.853   0.034 -1.0228  0.9103  2.6828
 4913TIP3   OH236153   3.264   1.122  14.702  0.0010  0.5133  0.3478
 4913TIP3    H136154   3.321   1.193  14.731  2.1613 -0.2701 -1.6818
 4913TIP3    H236155   3.292   1.046  14.752 -0.2627  0.4339  0.3761
 4914TIP3   OH236156   5.606   6.800  13.244  0.0163  0.3793  0.0335
 4914TIP3    H136157   5.612   6.890  13.209 -0.1216  0.1320 -0.6477
 4914TIP3    H236158   5.692   6.762  13.224  0.8458  0.9969  2.1933
 4915TIP3   OH236159   2.811   5.298  14.728  0.0879  0.2224  0.8398
 4915TIP3    H136160   2.721   5.301  14.696  0.1540  1.2487  0.7149
 4915TIP3    H236161   2.813   5.222  14.785 -0.0329 -1.7293 -1.5609
 4916TIP3   OH236162   6.320   1.175   2.848 -0.4284  0.5381 -0.5960
 4916TIP3    H136163   6.239   1.153   2.802  0.1006  1.0415 -1.8312
 4916TIP3    H236164   6.388   1.128   2.800  0.0604  0.5055  0.1228
 4917TIP3   OH236165   2.828   4.293  11.002 -0.4096  0.2643 -0.4179
 4917TIP3    H136166   2.864   4.220  11.051 -1.4432  0.0938  0.1177
 4917TIP3    H236167   2.883   4.368  11.027 -0.8074  0.1455  0.8857
 4918TIP3   OH236168   5.756   2.595   5.486  0.3898  0.6930 -0.0261
 4918TIP3    H136169   5.689   2.651   5.447  0.1607 -0.4901 -1.4138
 4918TIP3    H236170   5.709   2.519   5.519  0.9975 -0.0971 -0.9082
 4919TIP3   OH236171   6.057   2.144   3.257 -0.5264  0.4985  0.6474
 4919TIP3    H136172   6.007   2.092   3.194  0.7557 -0.2178  0.1645
 4919TIP3    H236173   6.141   2.099   3.263  0.0804  1.6726  1.3931
 4920TIP3   OH236174   2.311   4.457  13.263  0.1796 -0.3512 -0.3899
 4920TIP3    H136175   2.305   4.364  13.243  0.4770 -0.7532  1.2517
 4920TIP3    H236176   2.405   4.475  13.269  0.1311 -0.5166  1.5927
 4921TIP3   OH236177   3.012   0.789   3.742 -0.1993 -0.0485 -0.2661
 4921TIP3    H136178   2.987   0.752   3.658 -1.5303 -1.2311  0.6106
 4921TIP3    H236179   2.984   0.881   3.737  0.6009  0.1489 -1.4399
 4922TIP3   OH236180   0.187   1.685   2.597 -0.5926 -0.1456 -0.2733
 4922TIP3    H136181   0.176   1.717   2.508 -1.8767 -1.4370 -0.6136
 4922TIP3    H236182   0.267   1.728   2.628 -1.2901  1.9992 -1.2547
 4923TIP3   OH236183   5.573   5.230   0.200  0.4089 -0.2610  0.1788
 4923TIP3    H136184   5.503   5.189   0.149  0.7047 -0.2768 -0.2217
 4923TIP3    H236185   5.562   5.324   0.184 -0.1940 -0.1875  0.9996
 4924TIP3   OH236186   0.607   2.170   1.089 -0.1044 -0.1714  0.6453
 4924TIP3    H136187   0.550   2.155   1.013 -0.3152 -1.7916  1.0692
 4924TIP3    H236188   0.678   2.224   1.056 -0.7767  0.0869 -0.4328
 4925TIP3   OH236189   6.569   4.779  15.208 -0.2463  0.6426  0.0984
 4925TIP3    H136190   6.538   4.705  15.157  0.0936 -0.1204  0.9682
 4925TIP3    H236191   6.499   4.794  15.273  0.1688  0.3684  0.6183
 4926TIP3   OH236192   4.106   4.495   2.689 -0.1422  0.5545  0.0100
 4926TIP3    H136193   4.052   4.424   2.653 -1.1879  1.8472 -1.0562
 4926TIP3    H236194   4.192   4.482   2.650 -0.1684 -0.4382  0.2574
 4927TIP3   OH236195   2.056   5.372  13.113 -0.2134 -0.2608  0.1137
 4927TIP3    H136196   2.027   5.294  13.160 -1.5120  0.4549  0.5590
 4927TIP3    H236197   2.063   5.440  13.181  0.2842  0.1785 -0.3616
 4928TIP3   OH236198   5.137   0.268  16.987 -0.0014 -0.4101  0.3556
 4928TIP3    H136199   5.207   0.218  17.029  0.1999 -0.9294 -0.5812
 4928TIP3    H236200   5.062   0.210  16.987 -1.4091  1.1457  4.0166
 4929TIP3   OH236201   5.240   5.937   4.426  0.2139  0.6231  0.1405
 4929TIP3    H136202   5.230   5.991   4.504  0.5057  0.1206  0.5368
 4929TIP3    H236203   5.332   5.910   4.427  0.0370 -0.0140  0.0488
 4930TIP3   OH236204   1.308   3.590  15.248  0.3195  0.1078 -0.1316
 4930TIP3    H136205   1.215   3.613  15.253  0.2784 -0.2149  0.6717
 4930TIP3    H236206   1.338   3.630  15.166 -0.3939  0.6913 -0.1189
 4931TIP3   OH236207   6.446   0.789  13.288  0.3038 -0.1697  0.3572
 4931TIP3    H136208   6.493   0.719  13.333  0.9869 -1.5643 -2.3413
 4931TIP3    H236209   6.490   0.798  13.204 -1.2542  1.9101 -0.3410
 4932TIP3   OH236210   6.611   3.580   1.678 -0.0258  0.1597 -0.4128
 4932TIP3    H136211   6.600   3.552   1.587  1.8845  0.2705 -0.7289
 4932TIP3    H236212   6.590   3.673   1.677 -0.7504 -0.0044 -0.5835
 4933TIP3   OH236213   6.328   6.356   2.832 -0.0545  0.0528  0.3367
 4933TIP3    H136214   6.354   6.324   2.919 -0.3103 -3.5132 -0.7685
 4933TIP3    H236215   6.233   6.369   2.839  0.1270  1.2355  0.9391
 4934TIP3   OH236216   1.720   2.302  13.144  0.3847  0.2324  0.2246
 4934TIP3    H136217   1.676   2.361  13.084 -0.9042 -1.2970 -0.4065
 4934TIP3    H236218   1.731   2.221  13.094 -0.1032 -0.8480  1.7912
 4935TIP3   OH236219   0.289   5.706  16.720  0.1917  0.1774 -0.5833
 4935TIP3    H136220   0.318   5.761  16.793  0.8000  0.7081 -1.2183
 4935TIP3    H236221   0.196   5.688  16.739  1.0935 -2.5742  2.1569
 4936TIP3   OH236222   4.079   1.876   3.176  0.5466 -0.0365 -0.4364
 4936TIP3    H136223   4.162   1.906   3.139  0.8664 -1.0113 -0.5345
 4936TIP3    H236224   4.047   1.811   3.113  0.6994 -1.1243  0.5743
 4937TIP3   OH236225   4.339   1.187  14.748 -0.0617 -0.0443 -0.0060
 4937TIP3    H136226   4.340   1.121  14.816 -0.1907 -1.1195 -1.0107
 4937TIP3    H236227   4.357   1.139  14.667  0.5630  1.2589 -0.6757
 4938TIP3   OH236228   0.770   0.280  15.788 -0.4384  0.1455 -0.1194
 4938TIP3    H136229   0.765   0.199  15.737 -1.6936 -1.1073  1.8222
 4938TIP3    H236230   0.713   0.342  15.742 -0.8058 -0.6404 -0.7409
 4939TIP3   OH236231   4.724   2.020  12.695  0.8732 -0.5847  0.5683
 4939TIP3    H136232   4.714   1.928  12.668  0.3183 -0.0297 -1.2775
 4939TIP3    H236233   4.729   2.016  12.790  1.3871 -2.5775  0.5180
 4940TIP3   OH236234   6.137   4.263   5.020  0.1328  0.2585  0.3660
 4940TIP3    H136235   6.178   4.201   4.960  1.9846  0.1721  1.6378
 4940TIP3    H236236   6.068   4.213   5.064  0.3048 -0.3366 -0.0365
 4941TIP3   OH236237   3.635   1.156  10.378  0.1235  0.0340  0.4488
 4941TIP3    H136238   3.638   1.169  10.473  1.7274 -2.5898  0.8846
 4941TIP3    H236239   3.682   1.231  10.342 -0.1386  0.8565  1.7466
 4942TIP3   OH236240   6.262   3.255  10.955  0.5841 -0.1941 -0.1782
 4942TIP3    H136241   6.290   3.336  10.912 -1.1474 -0.3175 -1.6471
 4942TIP3    H236242   6.208   3.211  10.890 -1.0575 -1.0581  1.6824
 4943TIP3   OH236243   4.534   1.632  15.651  0.4162  0.7435  0.0852
 4943TIP3    H136244   4.595   1.587  15.593  0.4797  1.9451 -0.8369
 4943TIP3    H236245   4.579   1.712  15.677 -0.1140  0.8347  0.7575
 4944TIP3   OH236246   1.193   6.552  13.354  0.5044  0.2394 -0.0861
 4944TIP3    H136247   1.171   6.466  13.318  1.2947  1.3393 -3.5850
 4944TIP3    H236248   1.254   6.532  13.425 -1.4660 -2.1372  1.1125
 4945TIP3   OH236249   1.850   0.490  15.355  0.3087 -0.8597  0.2861
 4945TIP3    H136250   1.903   0.565  15.380  0.0632  0.1517 -1.9904
 4945TIP3    H236251   1.774   0.493  15.413  0.9228 -0.1022  1.0590
 4946TIP3   OH236252   6.508   1.982  14.166  0.0755 -0.3687 -0.5780
 4946TIP3    H136253   6.486   1.979  14.074 -0.1404  0.4106 -0.5550
 4946TIP3    H236254   6.437   1.935  14.210  0.1117 -0.6253 -0.7941
 4947TIP3   OH236255   0.316   2.348  16.490 -0.4209 -0.6643  0.3078
 4947TIP3    H136256   0.229   2.386  16.479 -0.0596  0.4708  1.2341
 4947TIP3    H236257   0.343   2.327  16.400 -1.5951 -0.9563 -0.0023
 4948TIP3   OH236258   5.083   5.575  14.279 -0.1150 -0.0516  0.1948
 4948TIP3    H136259   5.097   5.600  14.370 -0.6959 -1.1192  0.5822
 4948TIP3    H236260   4.991   5.548  14.275  0.1143 -0.7373 -0.5399
 4949TIP3   OH236261   1.056   1.865  15.661  0.0930 -0.2474  0.5867
 4949TIP3    H136262   1.119   1.875  15.591 -1.5039 -0.8824 -1.0142
 4949TIP3    H236263   1.031   1.955  15.684  0.0260 -0.0448 -0.2515
 4950TIP3   OH236264   4.314   4.482  14.665  0.2195 -0.4007  0.1013
 4950TIP3    H136265   4.393   4.439  14.697  0.5420  0.5611  0.6543
 4950TIP3    H236266   4.266   4.414  14.618  1.9585 -0.6988 -1.3025
 4951TIP3   OH236267   3.098   6.734   0.259  0.2926 -0.1920 -0.5500
 4951TIP3    H136268   3.061   6.648   0.280 -0.5012  0.2619 -0.0275
 4951TIP3    H236269   3.062   6.755   0.172  1.5180 -0.9341 -1.2716
 4952TIP3   OH236270   0.674   6.560  12.467  0.0451 -0.2557 -0.1379
 4952TIP3    H136271   0.762   6.531  12.440 -0.2188  1.2705 -3.1174
 4952TIP3    H236272   0.670   6.651  12.437 -0.9838  1.3218  4.1065
 4953TIP3   OH236273   1.653   5.059  12.551 -0.7530  0.6186  1.0931
 4953TIP3    H136274   1.611   5.003  12.485  0.2187  0.4154  0.6309
 4953TIP3    H236275   1.607   5.037  12.632  0.7277 -2.2079  1.2875
 4954TIP3   OH236276   3.399   1.241  10.688 -0.4033 -0.5242 -0.0262
 4954TIP3    H136277   3.404   1.237  10.783  0.8355 -1.5667 -0.1047
 4954TIP3    H236278   3.387   1.150  10.661  0.4647 -0.3922 -0.9096
 4955TIP3   OH236279   0.060   4.044   3.580  0.3325 -0.1076 -0.1618
 4955TIP3    H136280   0.078   3.957   3.615  1.2582 -0.4588 -1.4640
 4955TIP3    H236281   0.104   4.046   3.495 -0.8437  1.1418 -0.7802
 4956TIP3   OH236282   4.552   1.815   2.644  0.1152  0.1748 -0.0269
 4956TIP3    H136283   4.605   1.871   2.587  0.0551  0.3013  0.0415
 4956TIP3    H236284   4.610   1.741   2.665  0.9906  1.2823  1.6618
 4957TIP3   OH236285   3.080   2.595  12.828 -0.3649 -0.2583 -0.3515
 4957TIP3    H136286   3.097   2.563  12.916  0.7746  0.0983 -0.4248
 4957TIP3    H236287   3.089   2.517  12.772 -1.9583 -0.6636 -0.0820
 4958TIP3   OH236288   4.552   0.221   4.851 -0.4719  0.6049 -0.6951
 4958TIP3    H136289   4.558   0.268   4.768  1.6704  3.1689  0.7531
 4958TIP3    H236290   4.564   0.288   4.917  0.0111 -1.6475  1.6454
 4959TIP3   OH236291   4.360   4.251   5.943  0.2173 -0.0960  0.0013
 4959TIP3    H136292   4.279   4.232   5.895 -0.1689  1.8826 -0.1982
 4959TIP3    H236293   4.429   4.216   5.887 -0.1246  3.1416 -2.7264
 4960TIP3   OH236294   1.645   3.575   2.735  0.2663 -0.2191  0.1344
 4960TIP3    H136295   1.672   3.659   2.772  2.1258 -0.8078  0.2369
 4960TIP3    H236296   1.570   3.596   2.679  0.2491  1.3819  0.7124
 4961TIP3   OH236297   6.305   3.224   1.869 -0.2399  0.0172 -0.2890
 4961TIP3    H136298   6.328   3.317   1.868 -2.9416  0.7738 -0.7124
 4961TIP3    H236299   6.221   3.221   1.915  1.4674 -2.7376  3.0595
 4962TIP3   OH236300   4.843   0.833   6.957  0.2940  0.4303  0.0141
 4962TIP3    H136301   4.873   0.790   6.877 -0.6730 -0.0575 -0.1043
 4962TIP3    H236302   4.858   0.769   7.026 -0.7588  0.0491 -0.0983
 4963TIP3   OH236303   6.480   0.443  11.543  0.7405  0.2111 -0.3272
 4963TIP3    H136304   6.400   0.492  11.524  0.4086  0.0118  0.5187
 4963TIP3    H236305   6.450   0.359  11.578  1.3142  0.1711  0.0956
 4964TIP3   OH236306   4.141   3.694  13.648 -0.2549 -0.2627  1.5077
 4964TIP3    H136307   4.231   3.720  13.664 -0.5210  1.7519  0.1631
 4964TIP3    H236308   4.145   3.600  13.631  1.6563 -0.1248  0.9761
 4965TIP3   OH236309   6.321   5.971   3.051 -0.1884  0.3152 -0.1008
 4965TIP3    H136310   6.370   5.963   3.133 -0.6241  1.0227  0.2379
 4965TIP3    H236311   6.258   5.898   3.053 -0.3910  0.5017  0.3284
 4966TIP3   OH236312   3.690   3.620  13.048  0.3320 -0.0831  0.1088
 4966TIP3    H136313   3.654   3.618  13.137  0.6254  2.7917  0.3814
 4966TIP3    H236314   3.785   3.627  13.060  0.4029 -0.0188 -0.4453
 4967TIP3   OH236315   6.344   2.462   5.345 -0.1996  0.1795  0.0486
 4967TIP3    H136316   6.360   2.499   5.431  0.0827 -1.6410  0.8235
 4967TIP3    H236317   6.412   2.395   5.334 -1.7241 -1.3825 -0.4783
 4968TIP3   OH236318   2.256   0.602   0.370 -0.4075  0.1464 -0.4254
 4968TIP3    H136319   2.206   0.526   0.399 -2.2003  1.2560 -0.4671
 4968TIP3    H236320   2.333   0.565   0.327  0.1744 -1.5924  1.9030
 4969TIP3   OH236321   1.105   1.729   0.545  0.2200 -0.1446  0.3039
 4969TIP3    H136322   1.056   1.783   0.482  0.8139 -0.1032 -0.1363
 4969TIP3    H236323   1.055   1.648   0.551  0.4800 -0.4039 -0.7262
 4970TIP3   OH236324   0.073   5.655  10.923  0.0248  0.4095 -0.2810
 4970TIP3    H136325   0.076   5.705  10.842  1.1797  1.1992  0.2239
 4970TIP3    H236326   0.153   5.603  10.923 -0.4013 -0.2700 -0.0554
 4971TIP3   OH236327   1.616   2.429   6.081  0.3652  0.3172  0.1149
 4971TIP3    H136328   1.577   2.457   6.164 -3.1080  1.5499 -1.7236
 4971TIP3    H236329   1.671   2.502   6.054 -0.0308  0.7440  0.4403
 4972TIP3   OH236330   1.338   6.708  15.657 -0.3177 -0.5714  0.4630
 4972TIP3    H136331   1.269   6.767  15.684 -1.5442 -1.8897  0.3111
 4972TIP3    H236332   1.350   6.725  15.563  1.1367  1.1781  0.9067
 4973TIP3   OH236333   0.637   2.920   2.729 -0.3372  0.7272  0.0259
 4973TIP3    H136334   0.616   3.011   2.708  1.2060  1.4383  1.3565
 4973TIP3    H236335   0.599   2.870   2.657 -0.1781  2.5304 -1.3957
 4974TIP3   OH236336   4.100   0.488   2.009 -0.3095  0.2450 -0.0921
 4974TIP3    H136337   4.181   0.479   1.959 -0.2117 -0.8492  0.2253
 4974TIP3    H236338   4.119   0.554   2.075 -0.6184  2.1351 -1.8084
 4975TIP3   OH236339   4.220   4.609  17.151  0.1272 -0.1931 -0.0808
 4975TIP3    H136340   4.156   4.679  17.163 -0.9578 -0.9479 -1.2239
 4975TIP3    H236341   4.272   4.637  17.076 -0.7935 -0.9133 -1.0213
 4976TIP3   OH236342   3.489   1.113  12.501 -0.3605 -0.4495 -0.7761
 4976TIP3    H136343   3.533   1.029  12.514 -0.3441 -0.5682 -1.5522
 4976TIP3    H236344   3.480   1.149  12.589 -0.3690 -1.2622 -0.4349
 4977TIP3   OH236345   3.513   0.071  11.602  0.1868  0.4276  0.0357
 4977TIP3    H136346   3.536   0.030  11.518  2.5863 -2.6345  1.9997
 4977TIP3    H236347   3.461   0.004  11.647 -0.2467  1.6497  1.4025
 4978TIP3   OH236348   2.646   1.258   5.538  0.1580  0.1124  0.1248
 4978TIP3    H136349   2.635   1.351   5.557 -2.0296  0.4753 -2.3938
 4978TIP3    H236350   2.560   1.229   5.509  0.8581 -2.6568  0.5403
 4979TIP3   OH236351   6.483   4.215   4.485  0.3698  0.1370 -0.7937
 4979TIP3    H136352   6.438   4.269   4.420 -0.0283  1.4112  0.5045
 4979TIP3    H236353   6.419   4.146   4.507  0.8298 -0.8364 -2.3457
 4980TIP3   OH236354   4.458   2.469  14.893 -0.8332  0.8125  0.4370
 4980TIP3    H136355   4.521   2.540  14.902 -1.5565  1.3146  1.8618
 4980TIP3    H236356   4.376   2.512  14.868 -1.0617  0.3881  0.4339
 4981TIP3   OH236357   6.321   1.879   1.809 -0.2560 -0.1137 -0.0775
 4981TIP3    H136358   6.388   1.939   1.842  0.6650 -0.6234 -0.9849
 4981TIP3    H236359   6.321   1.891   1.714 -1.6102  0.0247 -0.0909
 4982TIP3   OH236360   5.197   1.046  17.145  0.4890  0.1932  0.4497
 4982TIP3    H136361   5.150   1.081  17.069  1.6806  3.9540  1.2070
 4982TIP3    H236362   5.133   1.049  17.216 -0.2211 -2.0105 -0.0359
 4983TIP3   OH236363   0.762   3.591  15.798 -0.4478 -0.0254  0.5450
 4983TIP3    H136364   0.734   3.500  15.810 -2.5165  0.2487 -1.4085
 4983TIP3    H236365   0.824   3.588  15.725 -1.0888  0.1771 -0.0220
 4984TIP3   OH236366   3.388   3.624  15.528 -0.6784  0.2045  0.3894
 4984TIP3    H136367   3.423   3.551  15.578 -1.2913 -0.2178  0.2078
 4984TIP3    H236368   3.452   3.638  15.458 -0.7522 -0.4102  0.1960
 4985TIP3   OH236369   4.580   2.945  14.296  0.2500  0.6569  0.8957
 4985TIP3    H136370   4.623   2.989  14.223 -0.2743 -0.5199 -0.1714
 4985TIP3    H236371   4.634   2.868  14.313 -0.3989  0.1596  0.7751
 4986TIP3   OH236372   6.414   4.341   2.468  0.8698 -0.3450 -0.5314
 4986TIP3    H136373   6.352   4.412   2.481  0.1151 -1.0381 -0.2867
 4986TIP3    H236374   6.478   4.377   2.406  0.4863  0.5319 -0.4361
 4987TIP3   OH236375   6.503   2.098   1.903 -0.0979  0.5816 -0.2938
 4987TIP3    H136376   6.549   2.179   1.927  2.2153 -0.7962  0.1923
 4987TIP3    H236377   6.558   2.057   1.837  1.5943 -2.9785  2.9578
 4988TIP3   OH236378   4.241   5.994  10.532 -0.0442 -0.0974  0.6789
 4988TIP3    H136379   4.320   6.046  10.544 -0.0657  0.7776 -2.2939
 4988TIP3    H236380   4.185   6.047  10.477 -1.5857 -1.8283  0.4808
 4989TIP3   OH236381   5.708   0.819   6.035  0.8203 -0.2825  0.3334
 4989TIP3    H136382   5.726   0.882   6.105  2.1843  0.8212 -0.9539
 4989TIP3    H236383   5.782   0.827   5.975 -2.2738  2.1085 -3.6190
 4990TIP3   OH236384   3.793   5.083  11.435  0.0841  0.2192  0.2086
 4990TIP3    H136385   3.839   5.104  11.516  1.8733  0.1443 -0.7573
 4990TIP3    H236386   3.783   5.167  11.391 -0.3995  0.1771  0.2252
 4991TIP3   OH236387   3.466   2.244  16.064 -0.0361 -0.2265 -0.1877
 4991TIP3    H136388   3.487   2.315  16.004  0.6172  1.4305  1.8830
 4991TIP3    H236389   3.545   2.191  16.067 -0.1682 -0.4811 -0.9616
 4992TIP3   OH236390   4.868   3.635   0.882 -0.6149 -0.0925  0.1363
 4992TIP3    H136391   4.905   3.565   0.827 -1.3552 -0.3310 -0.0794
 4992TIP3    H236392   4.942   3.668   0.932 -0.3168 -1.3415  0.5764
 4993TIP3   OH236393   1.438   1.772  14.789 -0.6094 -0.8016 -0.4021
 4993TIP3    H136394   1.433   1.690  14.838 -1.7333  0.0483  1.0217
 4993TIP3    H236395   1.477   1.834  14.851  0.1262 -0.2328 -1.4100
 4994TIP3   OH236396   5.501   4.732  16.923 -0.7794 -0.0233  0.0840
 4994TIP3    H136397   5.520   4.693  16.837 -0.1127  1.4330 -0.4615
 4994TIP3    H236398   5.482   4.657  16.979 -2.7809 -0.9465 -1.6788
 4995TIP3   OH236399   2.706   4.081  13.689 -0.4355  0.2657 -0.0548
 4995TIP3    H136400   2.777   4.139  13.718 -1.3247  2.5170 -1.9806
 4995TIP3    H236401   2.743   4.033  13.615  0.3523 -1.8522  1.6461
 4996TIP3   OH236402   1.038   1.036   4.096 -0.1935 -0.3152  0.1667
 4996TIP3    H136403   1.036   1.129   4.072  1.4677 -0.0992  0.7089
 4996TIP3    H236404   1.110   1.000   4.045 -0.2690 -1.1142  0.6045
 4997TIP3   OH236405   3.457   2.133   6.112 -0.2155 -0.2552 -0.8120
 4997TIP3    H136406   3.422   2.050   6.145  1.4505 -0.1102  1.5160
 4997TIP3    H236407   3.391   2.198   6.137 -0.4418 -0.5652 -0.5867
 4998TIP3   OH236408   2.106   3.489  17.104 -0.2050 -0.2059  0.0119
 4998TIP3    H136409   2.112   3.507  17.011 -1.1347 -1.0016 -0.2155
 4998TIP3    H236410   2.192   3.514  17.139 -0.4745  1.9218 -0.7043
 4999TIP3   OH236411   0.950   3.056  17.189 -0.1147  0.5803  0.5482
 4999TIP3    H136412   0.860   3.051  17.159  0.0843 -0.1992  0.0796
 4999TIP3    H236413   0.970   3.150  17.187  0.2003  0.5548 -2.7070
 5000TIP3   OH236414   2.619   3.002   1.859  0.3105  0.2112  0.6836
 5000TIP3    H136415   2.633   3.034   1.948  1.2530  1.7013  0.0437
 5000TIP3    H236416   2.530   3.030   1.837  0.4959  0.8808  0.7616
 5001TIP3   OH236417   5.194   2.988   2.060  0.1098  0.2911  0.2365
 5001TIP3    H136418   5.288   2.984   2.078  0.4480  2.4952 -0.7603
 5001TIP3    H236419   5.156   3.031   2.136  0.1219  0.7428 -0.0128
 5002TIP3   OH236420   0.563   5.780  11.668  0.1878  0.0167  0.5299
 5002TIP3    H136421   0.644   5.830  11.673  0.0436  0.2809  0.2592
 5002TIP3    H236422   0.589   5.690  11.688  0.5481  0.0988  0.4382
 5003TIP3   OH236423   0.065   5.096  16.689  0.2346  0.4731 -0.1197
 5003TIP3    H136424   0.126   5.023  16.672  0.2487  0.3062  0.6130
 5003TIP3    H236425   0.002   5.091  16.617  0.1400 -0.3683  0.0078
 5004TIP3   OH236426   1.150   1.069  12.978 -0.3511 -0.1000 -0.7788
 5004TIP3    H136427   1.166   1.102  12.889  0.1079  0.0110 -0.6574
 5004TIP3    H236428   1.096   0.991  12.965  0.0625 -0.3240 -1.1830
 5005TIP3   OH236429   1.995   1.110   4.082 -0.8329  0.6516  0.0500
 5005TIP3    H136430   2.004   1.036   4.022 -0.7199 -0.8007  1.7764
 5005TIP3    H236431   2.065   1.098   4.146 -0.6095  2.4517  0.2028
 5006TIP3   OH236432   0.291   6.428  16.539 -0.3720 -0.4152  0.2258
 5006TIP3    H136433   0.309   6.455  16.449  0.3512 -0.7028  0.2730
 5006TIP3    H236434   0.252   6.341  16.531 -1.5432  0.1026  0.1324
 5007TIP3   OH236435   2.760   3.529  12.932  0.0292  0.5701  0.2830
 5007TIP3    H136436   2.711   3.472  12.873  2.6107  0.8185 -2.3256
 5007TIP3    H236437   2.729   3.617  12.911 -0.2739  0.5333  0.5670
 5008TIP3   OH236438   1.207   1.938  14.372  0.0095 -0.4275 -0.0105
 5008TIP3    H136439   1.254   1.893  14.442  0.7246 -0.3026 -0.4009
 5008TIP3    H236440   1.158   2.008  14.417 -2.2826 -2.4168  0.7978
 5009TIP3   OH236441   3.929   3.556   1.895 -0.7630  0.0681 -0.0573
 5009TIP3    H136442   3.974   3.625   1.943 -0.3413 -0.6678  0.6376
 5009TIP3    H236443   3.839   3.588   1.886 -0.2951  1.2324 -0.8195
 5010TIP3   OH236444   6.423   2.399   4.435  0.1847 -0.5128  0.6099
 5010TIP3    H136445   6.377   2.481   4.452  1.6620  0.8338 -1.4067
 5010TIP3    H236446   6.418   2.351   4.518 -0.8714  1.5236  1.8084
 5011TIP3   OH236447   3.000   3.422  13.549 -0.1604 -0.0632  0.6300
 5011TIP3    H136448   2.934   3.365  13.508  0.1030  0.7978 -1.0984
 5011TIP3    H236449   3.072   3.424  13.485 -0.1022  2.0423  0.7110
 5012TIP3   OH236450   4.853   3.568  14.880  0.2123  0.4140 -0.5489
 5012TIP3    H136451   4.909   3.582  14.956 -0.1269 -2.9024  0.4290
 5012TIP3    H236452   4.794   3.498  14.905 -1.8435  1.1385 -2.9207
 5013TIP3   OH236453   5.228   2.655   6.239 -0.3115 -0.1270  0.1291
 5013TIP3    H136454   5.166   2.727   6.233 -0.0193  0.2913  1.6353
 5013TIP3    H236455   5.314   2.697   6.238 -0.1464 -0.3285  1.8051
 5014TIP3   OH236456   1.997   5.126   2.332  0.1094  0.6396  0.2105
 5014TIP3    H136457   1.953   5.143   2.249 -2.7239 -1.8183  1.0535
 5014TIP3    H236458   1.927   5.112   2.395  2.1578  1.3333  2.8507
 5015TIP3   OH236459   0.019   4.173   2.121 -0.1418 -0.3046 -0.2902
 5015TIP3    H136460  -0.037   4.157   2.197  1.4427  0.0730  1.0063
 5015TIP3    H236461   0.033   4.268   2.121  2.1240 -0.5644  0.6885
 5016TIP3   OH236462   2.876   6.588  12.384  0.4831 -0.1164 -0.3539
 5016TIP3    H136463   2.928   6.664  12.358 -0.6353  0.9575  0.4873
 5016TIP3    H236464   2.830   6.562  12.304 -1.1037  1.6945 -0.0808
 5017TIP3   OH236465   3.024   0.467  13.307 -0.1527  0.1874  0.6053
 5017TIP3    H136466   3.066   0.553  13.296  0.7152 -0.1020  1.5053
 5017TIP3    H236467   3.097   0.405  13.302 -0.7780 -0.5077 -0.0563
 5018TIP3   OH236468   4.952   3.551   5.174 -0.4263 -0.8779  0.6731
 5018TIP3    H136469   4.929   3.625   5.232  1.4365  0.1947  0.1367
 5018TIP3    H236470   5.043   3.530   5.198  0.1158 -0.9294 -1.2782
 5019TIP3   OH236471   1.121   6.060  11.673  0.3204 -0.5423  0.0764
 5019TIP3    H136472   1.195   6.094  11.623 -0.5360 -0.9766 -1.5546
 5019TIP3    H236473   1.072   6.139  11.699  0.7947 -0.3111  0.2893
 5020TIP3   OH236474   6.392   2.087   2.895 -0.1031 -0.1571  0.3411
 5020TIP3    H136475   6.356   2.000   2.907 -1.1260  0.2239  0.1316
 5020TIP3    H236476   6.439   2.105   2.977  0.1093 -0.8883  0.3841
 5021TIP3   OH236477   2.423   5.057  12.219 -0.2136 -0.6649 -0.1871
 5021TIP3    H136478   2.460   4.975  12.185  0.9239 -0.7768  1.2199
 5021TIP3    H236479   2.376   5.030  12.298  2.0231  0.2310  1.5741
 5022TIP3   OH236480   5.203   2.917   0.836 -1.0408  0.0742  0.8581
 5022TIP3    H136481   5.198   2.834   0.883  0.4102  0.0642  1.0540
 5022TIP3    H236482   5.292   2.949   0.853 -1.6398  1.7916  0.9914
 5023TIP3   OH236483   2.415   4.044  12.770  0.7284 -0.9267 -1.0762
 5023TIP3    H136484   2.392   3.966  12.820 -0.0632  1.2250  2.2951
 5023TIP3    H236485   2.346   4.052  12.704 -0.7244 -1.6678  0.2969
 5024TIP3   OH236486   5.005   3.490   2.962 -0.1124  0.2044 -0.4441
 5024TIP3    H136487   4.999   3.428   2.889  1.7599  0.5112 -0.9036
 5024TIP3    H236488   5.090   3.472   3.002 -0.3878  1.1733  0.6268
 5025TIP3   OH236489   6.526   1.526  13.207 -0.3012  0.4004 -0.3043
 5025TIP3    H136490   6.585   1.482  13.268 -0.2782 -0.2556 -0.7899
 5025TIP3    H236491   6.574   1.605  13.180 -0.3209  0.7036  0.5298
 5026TIP3   OH236492   3.570   1.866  15.369  0.1435 -0.3472 -0.1601
 5026TIP3    H136493   3.602   1.845  15.457 -0.1929  0.3320  0.1288
 5026TIP3    H236494   3.480   1.833  15.367 -0.6157  1.5692  0.5171
 5027TIP3   OH236495   4.950   4.071  14.469  0.5696  0.9704 -0.1399
 5027TIP3    H136496   4.890   4.133  14.427  1.4289  1.4026 -0.7755
 5027TIP3    H236497   4.972   4.009  14.399  0.1707  0.2860  0.3360
 5028TIP3   OH236498   0.891   0.332  14.278 -0.0878 -0.7889 -0.3976
 5028TIP3    H136499   0.950   0.333  14.354 -0.4989  3.7145  0.1878
 5028TIP3    H236500   0.827   0.264  14.298  1.5361 -1.8072  1.8194
 5029TIP3   OH236501   2.318   1.340  14.031 -0.0154  0.0725 -0.2191
 5029TIP3    H136502   2.277   1.351  14.117 -0.3922  1.1406 -0.5158
 5029TIP3    H236503   2.361   1.424  14.015  0.1338 -0.1554 -1.0331
 5030TIP3   OH236504   5.205   3.009   2.526  0.3260  0.2059  0.0205
 5030TIP3    H136505   5.174   3.091   2.487 -0.0993 -0.2125 -0.5489
 5030TIP3    H236506   5.284   3.034   2.574 -0.8027  1.2827  1.4147
 5031TIP3   OH236507   1.079   2.922  15.002 -0.9516 -0.1845 -0.1358
 5031TIP3    H136508   1.096   2.929  14.908  0.4353 -1.8309 -0.0587
 5031TIP3    H236509   1.162   2.892  15.039 -1.8302 -0.7924  1.4454
 5032TIP3   OH236510   1.052   4.717   0.947  0.2650 -0.0880 -0.2927
 5032TIP3    H136511   1.048   4.631   0.905 -0.2004 -1.1509  1.7667
 5032TIP3    H236512   1.100   4.701   1.029 -0.6718  1.3914  0.5937
 5033TIP3   OH236513   3.885   1.961  14.070  0.3224  0.2857 -0.1506
 5033TIP3    H136514   3.918   1.929  14.154  0.7932  1.3561  0.0836
 5033TIP3    H236515   3.960   1.953  14.010  0.5717  1.3057  0.0104
 5034TIP3   OH236516   5.105   5.594   1.088  0.0092  0.0441  0.0821
 5034TIP3    H136517   5.154   5.555   1.016  1.1369 -2.3913  2.0298
 5034TIP3    H236518   5.014   5.595   1.058  0.3713 -1.4459 -1.1537
 5035TIP3   OH236519   5.633   0.146   0.445  0.3509  0.5778  0.3311
 5035TIP3    H136520   5.678   0.212   0.392 -1.1144  0.7875 -0.7110
 5035TIP3    H236521   5.638   0.066   0.392 -1.5833  0.9145 -0.4492
 5036TIP3   OH236522   4.070   1.518  13.436  0.6151 -0.2106 -0.1035
 5036TIP3    H136523   4.059   1.612  13.421 -0.8413 -0.4022 -0.3908
 5036TIP3    H236524   4.164   1.507  13.453  0.8531  1.2477 -0.3535
 5037TIP3   OH236525   5.452   3.124   3.854 -0.2096 -0.4463  0.5985
 5037TIP3    H136526   5.505   3.059   3.808  0.2882  0.4139 -0.0793
 5037TIP3    H236527   5.515   3.185   3.890 -0.7074  0.2187  0.3624
 5038TIP3   OH236528   4.623   5.246  15.936 -0.3207 -0.3558 -0.2463
 5038TIP3    H136529   4.687   5.181  15.908 -1.4430 -1.4753 -0.3081
 5038TIP3    H236530   4.543   5.196  15.952 -0.8550  0.8204  1.0029
 5039TIP3   OH236531   1.647   1.085   1.277 -0.2002 -0.3856 -0.3232
 5039TIP3    H136532   1.583   1.134   1.329 -1.2006 -3.0595  1.1957
 5039TIP3    H236533   1.627   0.993   1.296  1.1761 -1.4499 -3.4128
 5040TIP3   OH236534   1.098   2.470  11.251  0.0219  0.1437  0.7691
 5040TIP3    H136535   1.033   2.470  11.181  0.4124 -0.1184  0.4059
 5040TIP3    H236536   1.179   2.496  11.209 -0.0140  1.3287  1.3932
 5041TIP3   OH236537   3.353   5.269  16.769  0.4131 -0.2074 -0.4000
 5041TIP3    H136538   3.408   5.346  16.786  0.4006  0.0745 -1.5508
 5041TIP3    H236539   3.398   5.223  16.698  0.3467 -1.2033  0.1747
 5042TIP3   OH236540   0.745   3.924   2.223 -0.4340  0.0273 -0.2257
 5042TIP3    H136541   0.671   3.916   2.163  1.4286  0.1356 -2.7153
 5042TIP3    H236542   0.754   3.838   2.262 -1.3216 -0.2467 -0.6113
 5043TIP3   OH236543   4.450   6.455  14.485 -0.0668  0.2083 -0.0542
 5043TIP3    H136544   4.400   6.517  14.537  1.3608  2.1886 -0.8911
 5043TIP3    H236545   4.480   6.507  14.410  0.3346 -1.7909 -1.3395
 5044TIP3   OH236546   4.797   3.075  15.381  0.9398  0.5878  0.1949
 5044TIP3    H136547   4.727   3.037  15.434  2.3576  0.3752  2.0092
 5044TIP3    H236548   4.770   3.059  15.291 -0.8599 -0.3522  0.8500
 5045TIP3   OH236549   3.650   5.255  12.936  0.3728 -0.4500  0.0353
 5045TIP3    H136550   3.657   5.174  12.885  0.7613 -1.0804  1.0725
 5045TIP3    H236551   3.627   5.322  12.871  2.1966 -0.9702 -1.2136
 5046TIP3   OH236552   6.146   4.911   4.359  0.4328 -0.0974 -0.2782
 5046TIP3    H136553   6.157   4.827   4.313  0.3650  0.4015 -1.2235
 5046TIP3    H236554   6.133   4.886   4.451 -1.4129 -1.2520 -0.7890
 5047TIP3   OH236555   3.486   6.563   1.646  0.4624  0.2979  0.1109
 5047TIP3    H136556   3.530   6.485   1.678 -1.9566 -1.1414  0.1274
 5047TIP3    H236557   3.397   6.558   1.683 -0.1405  2.4083 -0.8846
 5048TIP3   OH236558   2.362   4.041   1.360 -0.2884  0.1633 -0.3000
 5048TIP3    H136559   2.409   4.005   1.285 -0.8816  0.3340 -0.7698
 5048TIP3    H236560   2.408   4.007   1.437  0.8104  0.6286 -0.7381
 5049TIP3   OH236561   1.110   5.749   4.414  0.0362 -0.4153 -0.3464
 5049TIP3    H136562   1.029   5.800   4.404  0.3581  0.2466  0.2858
 5049TIP3    H236563   1.164   5.774   4.339 -0.3738 -0.9135 -0.8084
 5050TIP3   OH236564   3.922   1.145  13.983 -0.2756  0.8149  0.6799
 5050TIP3    H136565   3.849   1.097  14.023 -0.6133  1.5759  0.9829
 5050TIP3    H236566   3.974   1.077  13.940 -1.7220  0.3485 -0.4508
 5051TIP3   OH236567   0.789   5.281   2.358  0.2423  0.0915  0.1477
 5051TIP3    H136568   0.773   5.363   2.312 -0.2343 -0.0528  0.0517
 5051TIP3    H236569   0.739   5.289   2.440  0.0677 -0.1620  0.0680
 5052TIP3   OH236570   3.403   1.453  16.978  0.3239 -0.2023  0.0533
 5052TIP3    H136571   3.462   1.394  16.932  0.8952 -0.3735  0.9685
 5052TIP3    H236572   3.322   1.403  16.987  0.2939 -0.2614 -0.5265
 5053TIP3   OH236573   0.618   0.675  14.763  0.3285 -0.1994 -0.2188
 5053TIP3    H136574   0.551   0.618  14.727 -1.1636  1.5968 -0.4490
 5053TIP3    H236575   0.688   0.616  14.790 -1.1894 -2.1290 -0.2714
 5054TIP3   OH236576   1.375   5.154   0.107 -0.1873  0.4079 -0.0922
 5054TIP3    H136577   1.280   5.157   0.098 -0.4115 -1.5111  1.0896
 5054TIP3    H236578   1.395   5.223   0.171 -0.5110  2.1519 -1.7919
 5055TIP3   OH236579   4.381   2.803   4.710 -0.0378 -0.1528 -0.0699
 5055TIP3    H136580   4.287   2.816   4.698 -0.4493  0.3469  2.7910
 5055TIP3    H236581   4.421   2.882   4.674 -0.6079 -0.6248 -1.8443
 5056TIP3   OH236582   5.576   0.194   3.690  0.4015 -0.3187  0.4456
 5056TIP3    H136583   5.510   0.160   3.750  0.0828 -1.6849 -0.6339
 5056TIP3    H236584   5.634   0.246   3.745 -0.3876 -0.7991  1.7655
 5057TIP3   OH236585   5.368   1.885  15.526  0.1629 -0.1515  0.0395
 5057TIP3    H136586   5.401   1.795  15.532  1.7717  0.4479  0.6626
 5057TIP3    H236587   5.346   1.896  15.433 -1.9632 -1.7957  0.2927
 5058TIP3   OH236588   3.999   2.067  16.756 -0.2150 -0.1777  0.2081
 5058TIP3    H136589   3.949   1.987  16.773 -1.2588  0.2044 -0.9131
 5058TIP3    H236590   3.966   2.099  16.672  1.7774  0.2326 -0.4837
 5059TIP3   OH236591   0.086   3.468   1.673  0.5398 -0.0666  0.2817
 5059TIP3    H136592   0.042   3.546   1.710  0.0128 -0.1418 -0.1740
 5059TIP3    H236593   0.163   3.457   1.728  0.4010  0.5356  0.6179
 5060TIP3   OH236594   1.196   2.685  16.677  0.1018  0.3036 -0.0562
 5060TIP3    H136595   1.186   2.777  16.654  1.6449  0.8006  1.1505
 5060TIP3    H236596   1.195   2.683  16.772  0.6387 -0.8602 -0.0526
 5061TIP3   OH236597   3.368   5.278   5.977 -0.3058 -0.1560 -0.3844
 5061TIP3    H136598   3.340   5.229   5.900  0.7599  1.2816 -1.7491
 5061TIP3    H236599   3.343   5.369   5.959  1.9359  0.5930 -0.1054
 5062TIP3   OH236600   3.404   1.531   6.814  0.1106  0.0287  0.2091
 5062TIP3    H136601   3.497   1.538   6.792  0.7242  0.8644  2.7048
 5062TIP3    H236602   3.380   1.618   6.847 -2.2146  0.5115 -2.3714
 5063TIP3   OH236603   4.583   0.049  13.450  0.0838 -0.0729  0.2827
 5063TIP3    H136604   4.505   0.002  13.421  0.5908 -0.5942 -0.2615
 5063TIP3    H236605   4.655   0.008  13.402  0.5845  1.0080  0.0858
 5064TIP3   OH236606   4.313   0.942   2.380 -0.3827 -0.4288 -0.5449
 5064TIP3    H136607   4.320   0.904   2.468 -2.4671  2.4667  1.0851
 5064TIP3    H236608   4.399   0.980   2.363  0.8078 -3.0879 -0.9521
 5065TIP3   OH236609   3.219   6.269   2.763 -0.3436 -0.5861  0.0707
 5065TIP3    H136610   3.258   6.354   2.745 -0.4286 -0.3422  0.9718
 5065TIP3    H236611   3.151   6.287   2.829 -0.5723 -1.3033  0.0426
 5066TIP3   OH236612   0.702   0.754   5.327 -0.0254 -0.0166 -0.0677
 5066TIP3    H136613   0.607   0.753   5.316 -0.2679 -1.3163  1.6140
 5066TIP3    H236614   0.726   0.846   5.323 -1.6137  0.4951  1.1626
 5067TIP3   OH236615   1.540   0.284   0.965  0.7767 -0.0748  0.5248
 5067TIP3    H136616   1.446   0.278   0.979  0.7155 -1.2095 -0.3287
 5067TIP3    H236617   1.556   0.378   0.954 -0.3896  0.0605 -0.2170
 5068TIP3   OH236618   0.924   3.721  11.776 -0.4559 -0.0967  0.2913
 5068TIP3    H136619   0.974   3.778  11.717 -1.1296 -1.0320 -1.2564
 5068TIP3    H236620   0.839   3.764  11.785 -1.2941 -1.1971 -1.6134
 5069TIP3   OH236621   2.779   1.443   1.107  0.4429  0.0618 -0.3927
 5069TIP3    H136622   2.758   1.411   1.019 -2.9570 -0.9193  0.6295
 5069TIP3    H236623   2.714   1.512   1.123  0.1831 -0.6211  1.7801
 5070TIP3   OH236624   3.656   2.874   5.178 -0.0412  0.5220  0.1224
 5070TIP3    H136625   3.610   2.892   5.260 -0.4622  0.1301 -0.0257
 5070TIP3    H236626   3.738   2.833   5.205  0.6809  2.0838  0.4413
 5071TIP3   OH236627   2.015   2.755   1.740 -0.0195  0.4751  0.1572
 5071TIP3    H136628   1.973   2.670   1.725  1.3100 -0.4830  1.6028
 5071TIP3    H236629   1.945   2.809   1.779 -1.4426  0.7640 -2.5259
 5072TIP3   OH236630   5.411   0.103   4.111 -0.0512  0.2474  0.4862
 5072TIP3    H136631   5.361   0.028   4.144  3.0695 -2.8571 -1.2202
 5072TIP3    H236632   5.499   0.068   4.094  2.1496  4.7315  1.0639
 5073TIP3   OH236633   3.779   4.277  12.826  0.6545 -0.1905 -0.3566
 5073TIP3    H136634   3.871   4.258  12.811  0.2933 -0.2909 -2.9880
 5073TIP3    H236635   3.764   4.359  12.779 -0.3332  0.5776  1.1992
 5074TIP3   OH236636   2.388   6.761  12.209  0.2761 -0.0143  0.5661
 5074TIP3    H136637   2.462   6.725  12.159  0.1676  1.5812 -0.8563
 5074TIP3    H236638   2.427   6.827  12.266  0.1242 -0.2941  1.0016
 5075TIP3   OH236639   1.823   1.885  11.250  0.2168 -0.3843 -0.1166
 5075TIP3    H136640   1.820   1.799  11.290 -0.2607 -0.7030 -0.8273
 5075TIP3    H236641   1.819   1.869  11.156  3.2417  0.2213 -0.4686
 5076TIP3   OH236642   0.160   4.707  16.650  0.4504  0.1385 -0.2455
 5076TIP3    H136643   0.071   4.711  16.616  0.1913  2.1994  0.4909
 5076TIP3    H236644   0.178   4.614  16.663 -1.3306 -0.3488 -1.0608
 5077TIP3   OH236645   5.997   1.587   3.049  0.4102 -0.2479  0.4244
 5077TIP3    H136646   5.934   1.624   2.986 -0.0746  1.7335  1.9653
 5077TIP3    H236647   5.982   1.492   3.044 -1.1736  0.0079 -0.8048
 5078TIP3   OH236648   6.525   4.335  13.654  0.5250 -0.2238 -0.1086
 5078TIP3    H136649   6.606   4.286  13.640  2.0594  2.1551 -0.2936
 5078TIP3    H236650   6.466   4.274  13.699  1.5630 -2.7591 -1.9483
 5079TIP3   OH236651   1.032   2.754  12.920 -0.0005  0.0750  0.5456
 5079TIP3    H136652   1.083   2.830  12.892 -0.3836  0.5289  1.0437
 5079TIP3    H236653   0.970   2.739  12.849  0.1469  0.1687  0.3972
 5080TIP3   OH236654   2.193   2.998   2.601  0.4069  0.2590  0.8173
 5080TIP3    H136655   2.150   2.913   2.591  0.3757  0.2254  1.2343
 5080TIP3    H236656   2.140   3.058   2.548  0.9217 -0.1423 -0.1754
 5081TIP3   OH236657   3.096   3.681   5.752 -0.5219  0.2611 -0.1974
 5081TIP3    H136658   3.066   3.643   5.834 -2.9338  0.7280 -0.7824
 5081TIP3    H236659   3.119   3.605   5.698  1.0968 -0.0487  0.8450
 5082TIP3   OH236660   5.879   6.792   0.145  0.1733  0.0604 -0.2201
 5082TIP3    H136661   5.871   6.718   0.204 -1.9323  0.0990 -0.3927
 5082TIP3    H236662   5.911   6.864   0.200  0.6957 -0.5590  0.2914
 5083TIP3   OH236663   6.680   3.750   4.463  0.3041 -0.3976 -0.5462
 5083TIP3    H136664   6.727   3.824   4.501 -0.6005  0.1992 -0.5655
 5083TIP3    H236665   6.733   3.673   4.486  1.3375  0.2657 -0.6686
 5084TIP3   OH236666   1.558   3.852  15.291 -0.8848 -0.8162 -0.2333
 5084TIP3    H136667   1.634   3.896  15.253  0.2564  0.0834  2.8749
 5084TIP3    H236668   1.485   3.912  15.275  0.0567  0.7815  1.1790
 5085TIP3   OH236669   2.810   6.646   5.017  0.6913 -0.4831  0.0666
 5085TIP3    H136670   2.726   6.604   5.036  0.0087  0.7025 -0.2257
 5085TIP3    H236671   2.820   6.712   5.087 -0.3374  1.7736 -1.7847
 5086TIP3   OH236672   3.377   3.896  15.576  1.1110  0.1115 -0.2659
 5086TIP3    H136673   3.425   3.895  15.659  0.7493  2.5376  0.0627
 5086TIP3    H236674   3.349   3.806  15.563 -1.3255  0.0533  3.7675
 5087TIP3   OH236675   3.969   4.754   5.653  0.1308  0.2492  0.0002
 5087TIP3    H136676   3.998   4.674   5.610  1.4675  0.5098  0.3737
 5087TIP3    H236677   4.017   4.824   5.610 -1.3437  0.9356 -0.6157
 5088TIP3   OH236678   1.544   0.473   3.531  0.0224  0.1145  0.1811
 5088TIP3    H136679   1.550   0.547   3.590 -1.0108 -0.0297  0.4909
 5088TIP3    H236680   1.624   0.477   3.479 -0.5600  2.1819 -0.6712
 5089TIP3   OH236681   0.842   5.656   1.198 -0.2438 -0.0233  0.5642
 5089TIP3    H136682   0.845   5.565   1.227 -0.2897 -0.7490 -1.5086
 5089TIP3    H236683   0.885   5.655   1.112  1.2658  2.2356  1.1889
 5090TIP3   OH236684   0.622   1.663  11.006  0.4733  0.2474  0.2500
 5090TIP3    H136685   0.633   1.712  10.925 -0.4772 -1.3084 -0.8868
 5090TIP3    H236686   0.697   1.602  11.008 -0.6244 -1.1853 -0.6092
 5091TIP3   OH236687   0.933   2.706  13.399 -0.5244 -0.4178 -0.1361
 5091TIP3    H136688   0.860   2.711  13.338 -0.6647  1.1329  0.1142
 5091TIP3    H236689   0.891   2.702  13.485 -0.3352  0.7965  0.0266
 5092TIP3   OH236690   4.477   3.490   4.854  0.1552 -0.3407 -0.0153
 5092TIP3    H136691   4.573   3.485   4.856  0.1165 -2.8380 -1.1982
 5092TIP3    H236692   4.457   3.518   4.764 -0.2232 -1.1085 -0.1793
 5093TIP3   OH236693   2.762   0.441   5.653  0.0788  0.1905  0.6886
 5093TIP3    H136694   2.796   0.503   5.588 -0.6707  0.3200  0.4070
 5093TIP3    H236695   2.827   0.371   5.656 -1.1079 -1.1975 -2.2341
 5094TIP3   OH236696   3.594   2.033   4.486 -0.3066 -0.2065 -0.0742
 5094TIP3    H136697   3.508   1.993   4.481 -0.3558 -0.0625 -0.3737
 5094TIP3    H236698   3.580   2.115   4.534 -0.3559 -0.1304 -0.2177
 5095TIP3   OH236699   5.912   5.605  14.185  0.2509  0.4297 -0.0349
 5095TIP3    H136700   5.954   5.689  14.198  1.7129 -0.4444  1.2460
 5095TIP3    H236701   5.871   5.611  14.099  0.5077  2.3516 -0.0556
 5096TIP3   OH236702   4.343   2.903  10.628  0.5137 -0.2701  0.2100
 5096TIP3    H136703   4.259   2.857  10.625  0.1218  0.4789 -1.0706
 5096TIP3    H236704   4.321   2.989  10.666  0.8051 -0.2661  0.3722
 5097TIP3   OH236705   0.985   6.046   6.109  0.8187  0.0771 -0.0412
 5097TIP3    H136706   0.971   6.100   6.186 -4.5465 -0.4214 -0.3268
 5097TIP3    H236707   1.011   6.108   6.040  1.0359  1.2149  1.0354
 5098TIP3   OH236708   0.663   5.981   0.555  0.1219 -0.0798  0.5223
 5098TIP3    H136709   0.684   6.021   0.639  0.3982 -0.6766  0.7463
 5098TIP3    H236710   0.662   5.887   0.573 -0.0329 -0.1999 -0.0946
 5099TIP3   OH236711   1.978   5.836  12.253 -0.2972 -0.0743  0.2497
 5099TIP3    H136712   1.976   5.778  12.177  1.3505 -0.1047  0.1851
 5099TIP3    H236713   1.940   5.783  12.324 -2.6794  0.2652 -0.6823
 5100TIP3   OH236714   2.706   2.926  11.421 -0.4923 -0.3183 -0.0401
 5100TIP3    H136715   2.716   3.010  11.467  0.1540 -0.9250  0.9425
 5100TIP3    H236716   2.704   2.860  11.490  1.1600 -1.3093 -0.8951
 5101TIP3   OH236717   2.540   2.545   6.056 -0.4222  0.1532 -0.3987
 5101TIP3    H136718   2.496   2.483   5.999 -1.5125  0.1307  0.4334
 5101TIP3    H236719   2.529   2.509   6.144  0.4384  0.6481 -0.0705
 5102TIP3   OH236720   6.451   4.022  13.963 -0.2712 -0.7135 -0.1266
 5102TIP3    H136721   6.482   4.057  14.046 -0.7158 -1.7078  0.4681
 5102TIP3    H236722   6.516   3.956  13.938 -0.6606 -1.1251 -0.0629
 5103TIP3   OH236723   3.192   1.517   3.691  0.0369 -0.2276 -0.0769
 5103TIP3    H136724   3.268   1.554   3.736 -1.3009  1.9999  0.5182
 5103TIP3    H236725   3.187   1.565   3.608 -0.8789 -0.0960  0.0405
 5104TIP3   OH236726   5.183   3.168   1.595  0.1224 -0.2488 -0.4508
 5104TIP3    H136727   5.238   3.242   1.570 -0.1705  0.0415 -0.2484
 5104TIP3    H236728   5.134   3.200   1.671  1.3228 -1.2671  0.7863
 5105TIP3   OH236729   0.357   5.400  14.355 -0.3717 -0.2102 -0.3172
 5105TIP3    H136730   0.429   5.389  14.417  0.6639 -0.5961 -1.5443
 5105TIP3    H236731   0.383   5.349  14.278 -2.3775 -1.1232 -0.4661
 5106TIP3   OH236732   4.088   5.326  17.085 -0.2667  0.6491  0.0369
 5106TIP3    H136733   4.180   5.332  17.110 -0.2824 -0.8496  0.5662
 5106TIP3    H236734   4.040   5.335  17.168 -0.5508  0.4477 -0.1041
 5107TIP3   OH236735   0.007   6.451  11.701  0.1939  0.3333 -0.8097
 5107TIP3    H136736  -0.068   6.484  11.651  0.0378 -1.2500 -1.6864
 5107TIP3    H236737   0.071   6.425  11.634  0.6181 -0.3761 -0.1394
 5108TIP3   OH236738   0.099   4.857  15.426 -0.0559 -0.1915 -0.3513
 5108TIP3    H136739   0.029   4.884  15.367  0.3683 -0.7127 -1.1161
 5108TIP3    H236740   0.164   4.816  15.369  0.7405  0.0164  0.3798
 5109TIP3   OH236741   4.321   3.498   4.404  0.2904 -0.2722  0.1760
 5109TIP3    H136742   4.320   3.507   4.309  1.5095 -0.5315  0.1303
 5109TIP3    H236743   4.244   3.444   4.424 -0.0215 -0.1417 -0.6434
 5110TIP3   OH236744   0.136   2.432   3.785 -0.4124 -0.2590  0.1100
 5110TIP3    H136745   0.198   2.483   3.838  0.6819  1.3512 -2.5516
 5110TIP3    H236746   0.061   2.490   3.774 -0.5962 -0.5508 -0.1991
 5111TIP3   OH236747   4.641   0.975   1.322 -0.1155  0.4684 -0.0874
 5111TIP3    H136748   4.680   1.048   1.370 -0.2199  0.2474  0.3298
 5111TIP3    H236749   4.709   0.948   1.260  0.0839  0.6292  0.0603
 5112TIP3   OH236750   2.059   3.137   0.209 -0.4489  0.3710 -0.5223
 5112TIP3    H136751   2.114   3.071   0.166  0.5956  1.8559 -1.5573
 5112TIP3    H236752   2.002   3.170   0.140  0.2959  1.8234 -0.4656
 5113TIP3   OH236753   2.317   0.601  14.312 -1.2556  0.8383 -0.8291
 5113TIP3    H136754   2.263   0.525  14.333 -0.2663  0.1648 -0.6603
 5113TIP3    H236755   2.332   0.645  14.396  0.3827 -0.2932 -0.4928
 5114TIP3   OH236756   1.078   6.281   1.492 -0.3422 -0.0458 -0.4707
 5114TIP3    H136757   1.065   6.187   1.484 -0.7704 -0.1956  1.3979
 5114TIP3    H236758   1.173   6.293   1.480 -0.2427 -0.7650 -0.4454
 5115TIP3   OH236759   2.582   4.205  14.797  0.8924  0.0301 -0.1574
 5115TIP3    H136760   2.525   4.261  14.851  1.7301  2.5034 -1.6776
 5115TIP3    H236761   2.523   4.140  14.760 -0.3690  0.6212  0.7346
 5116TIP3   OH236762   4.505   0.916  14.371 -0.6099  0.1245 -0.4811
 5116TIP3    H136763   4.529   0.975  14.442 -1.0448 -0.2770  0.0082
 5116TIP3    H236764   4.421   0.879  14.397  0.2882 -1.7708 -0.0847
 5117TIP3   OH236765   5.124   2.840   2.975  0.0682 -0.3748  0.2939
 5117TIP3    H136766   5.134   2.927   2.935  0.9001 -1.0764 -1.1014
 5117TIP3    H236767   5.213   2.816   3.002  0.0507 -1.2933 -0.4265
 5118TIP3   OH236768   1.807   4.423  16.160  0.6622 -1.0909  0.4370
 5118TIP3    H136769   1.809   4.405  16.066 -0.1309 -1.0865  0.4144
 5118TIP3    H236770   1.714   4.434  16.181  0.9226  0.5414  0.9052
 5119TIP3   OH236771   1.266   2.878   5.478  0.0511 -0.2274  0.0035
 5119TIP3    H136772   1.203   2.931   5.430  0.5162  0.1795 -0.1714
 5119TIP3    H236773   1.351   2.915   5.455  0.4143 -1.2455 -0.3595
 5120TIP3   OH236774   0.866   1.925  15.228 -0.3642 -0.2051  0.2960
 5120TIP3    H136775   0.857   1.944  15.321  0.7720 -1.0124  0.5925
 5120TIP3    H236776   0.778   1.900  15.200 -0.6329 -0.3993  1.2603
 5121TIP3   OH236777   4.783   2.414  16.632 -0.2434 -0.3096 -0.0369
 5121TIP3    H136778   4.855   2.473  16.655 -0.2549  0.4570 -1.8551
 5121TIP3    H236779   4.706   2.452  16.675  0.3404 -0.9455  1.6375
 5122TIP3   OH236780   1.040   6.043   2.503 -0.2006 -0.5592 -0.0107
 5122TIP3    H136781   1.035   6.138   2.491  0.2347 -0.5994 -0.5599
 5122TIP3    H236782   0.961   6.021   2.552 -0.0941  0.1430  0.5064
 5123TIP3   OH236783   6.204   5.642  13.037  0.2260 -0.4967 -0.5224
 5123TIP3    H136784   6.109   5.631  13.040  0.3218 -1.1687  0.7208
 5123TIP3    H236785   6.230   5.659  13.128  1.4685 -1.9487 -0.5642
 5124TIP3   OH236786   5.888   4.515   2.906  0.5016 -0.3361 -0.3246
 5124TIP3    H136787   5.853   4.521   2.816  1.1357 -0.0204 -0.5499
 5124TIP3    H236788   5.953   4.445   2.902 -0.1622 -0.9956  0.1237
 5125TIP3   OH236789   6.680   1.748  13.136  0.2684 -0.0823  0.7038
 5125TIP3    H136790   6.606   1.806  13.151  0.3031  0.1292  0.1112
 5125TIP3    H236791   6.715   1.730  13.223 -0.2983  0.0489  0.9669
 5126TIP3   OH236792   5.688   6.240  12.895 -0.7856 -0.1134  0.5840
 5126TIP3    H136793   5.670   6.221  12.803 -0.6777  0.0566  0.5281
 5126TIP3    H236794   5.635   6.318  12.915  0.8437  1.1634  0.0692
 5127TIP3   OH236795   1.590   2.366   4.893  0.0335 -0.0802 -0.2158
 5127TIP3    H136796   1.678   2.395   4.921  0.0054 -0.3661  0.1804
 5127TIP3    H236797   1.557   2.438   4.839  1.2686 -0.7675 -1.9812
 5128TIP3   OH236798   5.728   0.788   2.208 -0.3207 -0.2831  0.4563
 5128TIP3    H136799   5.665   0.718   2.189 -0.0840 -0.4560  0.3123
 5128TIP3    H236800   5.680   0.846   2.267 -0.2735 -0.9601  1.1895
 5129TIP3   OH236801   0.260   2.681  16.021 -0.0348 -0.1190  0.1035
 5129TIP3    H136802   0.177   2.725  16.041  0.2391  0.7231 -0.5485
 5129TIP3    H236803   0.313   2.748  15.978  0.2733 -1.1678 -1.2433
 5130TIP3   OH236804   4.828   4.063  11.473 -0.1905  0.2189 -0.3690
 5130TIP3    H136805   4.797   4.153  11.464  0.1452  0.4237  0.4526
 5130TIP3    H236806   4.834   4.031  11.383  0.0850  1.1505 -0.6963
 5131TIP3   OH236807   4.869   3.774   0.225 -0.0764  0.1800 -0.4342
 5131TIP3    H136808   4.868   3.708   0.155  0.1979  1.3825 -1.6343
 5131TIP3    H236809   4.805   3.839   0.196  0.3727  0.9260  0.2233
 5132TIP3   OH236810   5.804   2.200  15.026  0.5377 -0.3578  0.0488
 5132TIP3    H136811   5.882   2.246  14.994  0.4417  2.3136  3.0759
 5132TIP3    H236812   5.775   2.147  14.952  3.7105  0.5084 -2.0459
 5133TIP3   OH236813   5.922   6.055   1.698 -0.1684  0.7494 -0.6585
 5133TIP3    H136814   5.839   6.079   1.740 -0.2609  0.3412 -0.6124
 5133TIP3    H236815   5.899   6.036   1.608 -0.4338 -1.1540 -0.2335
 5134TIP3   OH236816   1.129   4.603   2.257  0.1394 -0.3592  0.0895
 5134TIP3    H136817   1.176   4.687   2.262  0.2327 -0.4619  1.2416
 5134TIP3    H236818   1.185   4.548   2.202 -0.0237  0.3812 -0.8524
 5135TIP3   OH236819   4.196   3.021  15.456 -0.1881 -0.1478  0.4158
 5135TIP3    H136820   4.190   2.926  15.470 -2.1248 -0.3038 -0.9629
 5135TIP3    H236821   4.196   3.031  15.361 -2.0218  1.2733  0.5094
 5136TIP3   OH236822   1.974   1.129  13.360  0.0212  0.5825 -0.1071
 5136TIP3    H136823   2.016   1.147  13.276 -0.4508 -1.8657 -0.9690
 5136TIP3    H236824   1.905   1.194  13.368 -1.2144 -0.2888 -2.6422
 5137TIP3   OH236825   6.597   4.113  11.534  0.0147  0.2889 -0.0815
 5137TIP3    H136826   6.576   4.089  11.625  0.0498  1.1025  0.1423
 5137TIP3    H236827   6.606   4.028  11.489 -0.5779 -0.1159  0.5381
 5138TIP3   OH236828   4.360   0.394  12.600 -0.0025  0.0881  0.0858
 5138TIP3    H136829   4.405   0.363  12.678 -2.0270 -0.2833  1.1863
 5138TIP3    H236830   4.311   0.471  12.630 -0.3219  0.3191 -0.9770
 5139TIP3   OH236831   5.389   4.793   1.886 -0.9209 -0.2178 -0.0645
 5139TIP3    H136832   5.416   4.702   1.892 -0.3184 -0.1131 -1.1101
 5139TIP3    H236833   5.388   4.813   1.793 -3.1347  0.2441 -0.0003
 5140TIP3   OH236834   4.785   5.315   6.093 -0.1041  0.5627  0.3552
 5140TIP3    H136835   4.722   5.314   6.165  0.3367 -0.9104  0.7487
 5140TIP3    H236836   4.771   5.233   6.047  0.5632  0.8614 -0.4105
 5141TIP3   OH236837   2.541   2.081   2.565  0.0366  0.4325  1.2158
 5141TIP3    H136838   2.464   2.124   2.604 -0.0898  1.4287 -0.0522
 5141TIP3    H236839   2.511   1.993   2.543 -1.0045  1.0293  0.0912
 5142TIP3   OH236840   2.213   3.568   2.732  0.1569 -0.4792  0.3742
 5142TIP3    H136841   2.138   3.532   2.779 -2.0520  2.2842 -0.7399
 5142TIP3    H236842   2.243   3.640   2.787  1.5839 -1.1011  0.4477
 5143TIP3   OH236843   5.807   5.597   3.155 -0.0657 -0.4167 -0.9003
 5143TIP3    H136844   5.798   5.689   3.129  2.0726 -0.2484 -1.2614
 5143TIP3    H236845   5.869   5.560   3.092 -0.5496 -2.0014 -0.5000
 5144TIP3   OH236846   5.871   3.772  14.541  0.2059  0.6286  0.2178
 5144TIP3    H136847   5.898   3.851  14.494 -1.6579 -0.1615 -2.4042
 5144TIP3    H236848   5.951   3.720  14.546  0.4568  0.5071 -2.7788
 5145TIP3   OH236849   0.107   5.092  12.819  0.3895  0.0089  0.2213
 5145TIP3    H136850   0.020   5.057  12.799 -0.2485  0.1280  2.5215
 5145TIP3    H236851   0.167   5.020  12.800 -0.2932 -0.3623 -0.5612
 5146TIP3   OH236852   0.934   0.062  16.235  0.0009  0.0316  0.1650
 5146TIP3    H136853   0.969  -0.023  16.264 -0.2081 -0.0667  0.1289
 5146TIP3    H236854   0.885   0.041  16.155  0.1376  0.2210  0.0297
 5147TIP3   OH236855   3.192   6.553   0.575 -0.5532 -0.6438  0.7933
 5147TIP3    H136856   3.221   6.635   0.615  0.0042 -0.6740  0.4560
 5147TIP3    H236857   3.267   6.494   0.583 -1.5294 -1.7238  2.6494
 5148TIP3   OH236858   3.171   0.538   0.800  0.4201  0.1777 -0.3094
 5148TIP3    H136859   3.093   0.559   0.749 -0.6298 -1.2320  0.6446
 5148TIP3    H236860   3.203   0.623   0.830 -2.4727  0.7094  1.7105
 5149TIP3   OH236861   2.100   3.842   5.379 -0.4377  0.1775 -0.4318
 5149TIP3    H136862   2.009   3.869   5.383 -0.6861 -0.8118  1.7701
 5149TIP3    H236863   2.145   3.898   5.442  0.3848  0.2476 -1.0506
 5150TIP3   OH236864   4.125   2.531   3.154  0.6351  0.6221 -0.0963
 5150TIP3    H136865   4.057   2.510   3.090 -0.1892 -0.4745  1.0907
 5150TIP3    H236866   4.102   2.618   3.187  2.5660  2.4575 -3.1235
 5151TIP3   OH236867   5.148   3.408  16.633  0.4290 -0.0958 -0.6330
 5151TIP3    H136868   5.233   3.404  16.588  0.3379 -0.5831 -0.7607
 5151TIP3    H236869   5.121   3.500  16.623  2.0763  0.7101  1.5296
 5152TIP3   OH236870   3.529   6.689   3.150  0.5843  0.4629  0.6448
 5152TIP3    H136871   3.556   6.650   3.233  1.8843 -0.5569 -0.2321
 5152TIP3    H236872   3.554   6.781   3.158  0.7089  0.3720  1.3825
 5153TIP3   OH236873   6.587   5.798  13.357 -0.3368  0.2962  0.1962
 5153TIP3    H136874   6.635   5.866  13.404 -0.4946 -0.4558  1.4901
 5153TIP3    H236875   6.509   5.781  13.411 -0.1089 -1.1614  0.1090
 5154TIP3   OH236876   3.926   0.621  13.526 -0.7125  0.2883 -0.3053
 5154TIP3    H136877   3.965   0.693  13.577  0.9707 -1.6334  1.2622
 5154TIP3    H236878   3.833   0.622  13.551 -0.2155  0.3515  1.6747
 5155TIP3   OH236879   4.179   4.623   1.385 -0.0228  0.5046  0.3616
 5155TIP3    H136880   4.269   4.598   1.366 -0.2161 -0.0752  0.1689
 5155TIP3    H236881   4.185   4.682   1.460  0.4882  0.1619  0.5914
 5156TIP3   OH236882   5.219   4.629  13.124 -0.1149 -0.2221 -0.0155
 5156TIP3    H136883   5.136   4.581  13.123  0.5058 -1.3423  0.2983
 5156TIP3    H236884   5.247   4.629  13.033  0.2346 -1.1110  0.0830
 5157TIP3   OH236885   2.709   4.021  15.471  0.5138 -0.3424 -0.1283
 5157TIP3    H136886   2.764   3.948  15.499 -0.8261 -0.3617  2.9709
 5157TIP3    H236887   2.623   4.000  15.507 -0.9254  0.9208 -2.5706
 5158TIP3   OH236888   6.074   1.344  10.876  0.3264  0.2267 -0.3398
 5158TIP3    H136889   6.000   1.311  10.926  0.7277 -0.1493  0.0169
 5158TIP3    H236890   6.076   1.290  10.797 -0.0581  0.5494 -0.5771
 5159TIP3   OH236891   4.107   2.372  12.716  0.4801  0.1556  0.0738
 5159TIP3    H136892   4.137   2.379  12.806  1.5765  2.4912 -0.3945
 5159TIP3    H236893   4.032   2.432  12.711  0.7061  0.3970 -0.6402
 5160TIP3   OH236894   1.214   5.916   2.914  0.0090  0.0763 -0.3141
 5160TIP3    H136895   1.123   5.894   2.895 -0.0198  0.5098 -0.6951
 5160TIP3    H236896   1.239   5.978   2.845  0.7158 -0.3421 -0.4535
 5161TIP3   OH236897   5.751   6.788   4.880 -0.4406 -0.0060  0.6253
 5161TIP3    H136898   5.833   6.757   4.844 -1.8446 -1.0186 -1.9772
 5161TIP3    H236899   5.699   6.708   4.894 -2.8110  0.7049 -2.7843
 5162TIP3   OH236900   2.838   3.558  16.182 -0.5744 -0.2641 -0.3638
 5162TIP3    H136901   2.843   3.555  16.087  0.9530 -2.2237 -0.2802
 5162TIP3    H236902   2.747   3.536  16.202 -0.8545 -0.0508 -1.3437
 5163TIP3   OH236903   1.502   6.749   5.044 -0.3543  0.4345  0.0748
 5163TIP3    H136904   1.547   6.804   4.981  1.0319 -0.8193 -0.0631
 5163TIP3    H236905   1.443   6.809   5.090  0.8276  1.9484 -0.3236
 5164TIP3   OH236906   0.624   3.746  11.803  0.4431 -0.0988  0.3610
 5164TIP3    H136907   0.578   3.785  11.729  1.1902  0.2103  0.0563
 5164TIP3    H236908   0.618   3.812  11.872  2.4525  0.9703 -0.4252
 5165TIP3   OH236909   1.892   2.580  11.062 -0.4738 -0.0030 -0.1720
 5165TIP3    H136910   1.882   2.520  10.988 -1.8204 -0.8010  0.6160
 5165TIP3    H236911   1.876   2.666  11.025 -3.2522 -0.5706 -0.4721
 5166TIP3   OH236912   2.012   3.400  11.648 -0.0055 -0.1002 -0.8187
 5166TIP3    H136913   2.024   3.467  11.580 -2.7773  1.3524 -0.0040
 5166TIP3    H236914   1.986   3.449  11.726 -0.4218 -2.0028  0.2937
 5167TIP3   OH236915   6.426   6.444   2.569 -0.0772  0.3496 -0.2932
 5167TIP3    H136916   6.384   6.512   2.622  1.4219  0.9742  0.1469
 5167TIP3    H236917   6.427   6.480   2.481 -1.0915  0.0221 -0.4460
 5168TIP3   OH236918   2.723   1.172   1.642  0.0007 -0.4682 -0.1448
 5168TIP3    H136919   2.808   1.193   1.680  0.7306 -0.2367 -1.8158
 5168TIP3    H236920   2.675   1.254   1.645 -1.4509 -1.2629  3.7062
 5169TIP3   OH236921   0.341   0.262   5.244  0.5888  0.4227  0.5078
 5169TIP3    H136922   0.286   0.318   5.299 -1.7112 -0.1853 -1.0008
 5169TIP3    H236923   0.426   0.307   5.241  0.1202  1.5856  2.7013
 5170TIP3   OH236924   6.750   6.048   4.230  0.1277 -0.4063  0.1373
 5170TIP3    H136925   6.688   5.998   4.178  1.4293 -0.6135 -1.2857
 5170TIP3    H236926   6.815   6.079   4.167  1.3821 -0.0640  1.5318
 5171TIP3   OH236927   4.753   1.998  14.997  0.5063 -0.4470  0.0267
 5171TIP3    H136928   4.677   1.940  14.992  0.3649 -0.2088 -0.7614
 5171TIP3    H236929   4.715   2.084  15.018  0.3584  0.0193 -1.9818
 5172TIP3   OH236930   4.673   0.326   1.718 -0.1774  0.2184 -0.3193
 5172TIP3    H136931   4.708   0.259   1.660  2.9954 -0.5239  2.1590
 5172TIP3    H236932   4.631   0.277   1.789  0.7570  0.8379  0.6955
 5173TIP3   OH236933   5.744   0.986   0.779  0.1511 -0.5082  0.2029
 5173TIP3    H136934   5.672   1.038   0.816  0.2408  0.1231 -0.4907
 5173TIP3    H236935   5.784   0.944   0.855 -0.2288  0.0559  0.7312
 5174TIP3   OH236936   1.076   4.480  13.615 -0.5167  0.8117  1.0452
 5174TIP3    H136937   1.062   4.502  13.708  0.4611  1.8166  0.9792
 5174TIP3    H236938   1.058   4.561  13.568 -0.4795  0.4524  0.3942
 5175TIP3   OH236939   5.982   4.131  16.186 -0.2369 -0.3622  0.5542
 5175TIP3    H136940   6.063   4.122  16.236 -0.5863 -1.1697  0.9944
 5175TIP3    H236941   5.950   4.219  16.208 -1.7114 -1.5577  3.8399
 5176TIP3   OH236942   3.531   2.307   5.834 -0.3719  0.0215  0.2457
 5176TIP3    H136943   3.466   2.257   5.785 -0.4319  1.7598 -1.5862
 5176TIP3    H236944   3.480   2.357   5.898 -0.6290 -0.0307  0.0832
 5177TIP3   OH236945   3.832   1.411   2.486  0.1800 -0.0141  0.3635
 5177TIP3    H136946   3.867   1.492   2.450  4.5719 -2.1284 -0.6936
 5177TIP3    H236947   3.885   1.394   2.564 -0.9371 -1.7106  0.8219
 5178TIP3   OH236948   5.847   1.551  15.812 -0.6582  0.7683 -0.3807
 5178TIP3    H136949   5.776   1.613  15.792 -1.8887 -0.4116  0.2059
 5178TIP3    H236950   5.837   1.531  15.905  1.2962  1.5719  0.0635
 5179TIP3   OH236951   5.440   3.415   0.592  0.0504 -0.1785 -0.3058
 5179TIP3    H136952   5.427   3.320   0.589  0.2220 -0.2140 -0.0116
 5179TIP3    H236953   5.362   3.449   0.636  1.2845 -0.4801  2.3126
 5180TIP3   OH236954   3.810   6.784  14.902 -0.5263  0.1868  0.3078
 5180TIP3    H136955   3.862   6.795  14.982 -0.8940  0.7586  0.4743
 5180TIP3    H236956   3.851   6.710  14.857 -0.6149 -0.4464  1.2530
 5181TIP3   OH236957   1.412   0.629   2.089  0.1094 -0.0013  0.3180
 5181TIP3    H136958   1.428   0.705   2.033 -0.1582 -1.3703 -1.7380
 5181TIP3    H236959   1.327   0.595   2.059  0.9221 -1.9624  0.0762
 5182TIP3   OH236960   2.847   3.797   5.431 -0.0496  0.2260  0.3112
 5182TIP3    H136961   2.883   3.795   5.342  0.2224 -0.0493  0.4265
 5182TIP3    H236962   2.794   3.718   5.437 -0.6572  0.6165  0.1527
 5183TIP3   OH236963   6.736   5.784   4.601 -0.1983 -0.5512 -0.6530
 5183TIP3    H136964   6.783   5.867   4.588  0.3265 -0.8762 -0.8971
 5183TIP3    H236965   6.778   5.744   4.677  1.0656 -1.6004 -1.8427
 5184TIP3   OH236966   4.172   1.813  15.587 -0.1889  0.5045 -0.0051
 5184TIP3    H136967   4.197   1.883  15.526 -0.0803 -0.2661 -0.8694
 5184TIP3    H236968   4.237   1.745  15.574  0.5527  0.7944  1.8752
 5185TIP3   OH236969   6.647   2.962  16.948  0.2984  0.5331 -0.2892
 5185TIP3    H136970   6.568   2.910  16.955  0.6110  0.1163  0.2548
 5185TIP3    H236971   6.648   3.017  17.026  1.7571 -1.2136  1.0082
 5186TIP3   OH236972   5.968   0.831  13.601  0.7418  0.0124  0.1679
 5186TIP3    H136973   5.960   0.753  13.655  0.2488  0.3170  0.5415
 5186TIP3    H236974   5.972   0.798  13.511  1.4074 -0.4852  0.3728
 5187TIP3   OH236975   5.748   3.773  11.959  0.0553  0.0181 -0.3009
 5187TIP3    H136976   5.656   3.793  11.941  0.3861  0.6820 -1.4026
 5187TIP3    H236977   5.747   3.686  11.999 -1.0594  0.0708 -0.1942
 5188TIP3   OH236978   3.494   3.336  11.573  0.2063 -0.4856  0.1109
 5188TIP3    H136979   3.430   3.378  11.517  0.3219  1.7438  1.5349
 5188TIP3    H236980   3.442   3.296  11.643  0.2729  0.5063  0.7479
 5189TIP3   OH236981   3.939   3.121  10.375  0.4598  0.1754 -0.0986
 5189TIP3    H136982   4.008   3.167  10.327  0.7714  0.3201  0.4812
 5189TIP3    H236983   3.870   3.186  10.386  0.0454 -0.0848 -1.0352
 5190TIP3   OH236984   6.777   2.638   2.317 -0.1285 -0.4226 -0.5841
 5190TIP3    H136985   6.718   2.583   2.265 -1.1621 -1.2093  1.3444
 5190TIP3    H236986   6.730   2.721   2.327 -0.5017 -0.7156  0.1446
 5191TIP3   OH236987   0.370   0.144   4.704  0.4458  0.0407 -0.3347
 5191TIP3    H136988   0.402   0.127   4.793 -1.1493  1.1753  0.5280
 5191TIP3    H236989   0.286   0.189   4.718  0.9681  1.8100 -2.4044
 5192TIP3   OH236990   3.048   5.393   5.803  0.2678  0.4509  0.6045
 5192TIP3    H136991   3.029   5.417   5.894 -1.6535  2.3457 -0.1864
 5192TIP3    H236992   2.991   5.451   5.751  0.7186 -1.0971 -1.7842
 5193TIP3   OH236993   1.907   0.488   6.450 -0.0531 -0.0305 -0.1799
 5193TIP3    H136994   1.922   0.580   6.429  0.1390 -0.5366 -2.4943
 5193TIP3    H236995   1.838   0.460   6.390  0.6385 -1.6638 -0.2754
 5194TIP3   OH236996   0.758   6.449  16.631 -0.2450 -0.2873  0.2378
 5194TIP3    H136997   0.663   6.448  16.626 -0.2434  0.6729 -0.2217
 5194TIP3    H236998   0.782   6.358  16.647 -1.2113 -0.6131 -0.0856
 5195TIP3   OH236999   3.232   0.338   4.940  0.6697 -0.7601  0.0529
 5195TIP3    H137000   3.248   0.383   5.023  0.0892 -1.5036  0.5846
 5195TIP3    H237001   3.150   0.374   4.909  0.6592 -0.8040  0.0302
 5196TIP3   OH237002   5.354   2.035   1.364 -0.6827 -0.3962 -0.1278
 5196TIP3    H137003   5.374   2.013   1.455  2.2836  1.1769 -0.2577
 5196TIP3    H237004   5.357   1.951   1.317 -2.0451 -1.1892  1.1364
 5197TIP3   OH237005   1.641   4.664  16.950  0.4245  0.4221  0.1363
 5197TIP3    H137006   1.613   4.739  17.001 -0.1403  0.2975  0.0176
 5197TIP3    H237007   1.667   4.700  16.865  2.3398  0.7613  0.8173
 5198TIP3   OH237008   1.686   3.762   4.228 -0.8543 -0.0239  0.3524
 5198TIP3    H137009   1.633   3.712   4.166 -3.0560 -1.6657  3.2644
 5198TIP3    H237010   1.730   3.696   4.281  0.2342  1.2577  1.1073
 5199TIP3   OH237011   0.702   4.885  15.916 -0.0635  0.1381  0.2298
 5199TIP3    H137012   0.692   4.852  16.005  2.4474 -0.3579  0.3866
 5199TIP3    H237013   0.670   4.814  15.860 -2.0282  0.6080  0.6832
 5200TIP3   OH237014   5.627   5.443   6.029 -0.0429 -0.0524 -0.0386
 5200TIP3    H137015   5.615   5.508   5.960  0.9015  0.1134 -0.0613
 5200TIP3    H237016   5.632   5.494   6.110  1.7522  0.0488 -0.1554
 5201TIP3   OH237017   6.057   3.927   3.621  0.3695  0.1303  0.3501
 5201TIP3    H137018   6.062   3.859   3.688 -1.0430 -0.3734 -0.0369
 5201TIP3    H237019   6.059   4.009   3.671  3.3799 -0.0611  0.7573
 5202TIP3   OH237020   4.780   1.802   3.135  0.0333 -0.4594  0.2756
 5202TIP3    H137021   4.705   1.770   3.184 -0.1477 -1.5322 -0.6590
 5202TIP3    H237022   4.856   1.767   3.182 -0.1681 -3.3109 -1.2902
 5203TIP3   OH237023   5.653   3.325  16.064 -0.3629  0.6270 -0.1082
 5203TIP3    H137024   5.735   3.284  16.035  0.1015  0.9429  0.7519
 5203TIP3    H237025   5.681   3.399  16.117 -1.1992  0.0111  1.2263
 5204TIP3   OH237026   5.027   6.219   2.813  0.1996  0.2502  0.0211
 5204TIP3    H137027   5.043   6.178   2.898  0.1887  0.4590  0.1236
 5204TIP3    H237028   5.090   6.176   2.754  0.1281  0.0244  0.1086
 5205TIP3   OH237029   3.746   1.256  15.935  0.4707  0.0184 -0.0190
 5205TIP3    H137030   3.836   1.272  15.965 -0.1570 -1.3630  2.9256
 5205TIP3    H237031   3.755   1.243  15.840  3.1403  1.3512 -0.0534
 5206TIP3   OH237032   5.736   4.679  12.924  0.2074 -0.2750  1.0773
 5206TIP3    H137033   5.803   4.697  12.990  0.9922  3.6038 -0.5089
 5206TIP3    H237034   5.782   4.636  12.852  0.7623  1.1846  0.5367
 5207TIP3   OH237035   4.966   5.544  16.327  0.0178  0.0044 -0.2620
 5207TIP3    H137036   4.963   5.551  16.423 -1.0766 -1.2010 -0.1821
 5207TIP3    H237037   4.955   5.451  16.310 -3.6893  0.5147 -1.6347
 5208TIP3   OH237038   1.734   1.361  16.733  0.2445 -0.0269 -0.3811
 5208TIP3    H137039   1.737   1.435  16.672  1.2743 -0.8411 -1.3511
 5208TIP3    H237040   1.809   1.307  16.710  0.1706 -0.8029  1.0711
 5209TIP3   OH237041   4.601   1.452   2.641  0.3173  0.1453 -0.1205
 5209TIP3    H137042   4.544   1.488   2.573  0.1508 -0.0741 -0.0967
 5209TIP3    H237043   4.664   1.522   2.659 -0.4780  0.7098  0.4799
 5210TIP3   OH237044   3.635   4.133  11.648 -0.7986  0.4764  0.9693
 5210TIP3    H137045   3.610   4.189  11.721 -0.1606  2.0570  0.0133
 5210TIP3    H237046   3.710   4.176  11.608 -0.4715 -0.9038  0.0011
 5211TIP3   OH237047   1.639   2.821  16.270  0.1285  0.0005 -0.3340
 5211TIP3    H137048   1.713   2.867  16.231  0.5613  0.1794  0.6528
 5211TIP3    H237049   1.667   2.729  16.273  1.0595  0.2889  1.5800
 5212TIP3   OH237050   2.259   4.956   1.451  0.0814  0.4793 -0.0199
 5212TIP3    H137051   2.270   4.946   1.357 -0.6669  0.6000 -0.1242
 5212TIP3    H237052   2.345   4.935   1.487  0.1678 -0.3683 -0.6663
 5213TIP3   OH237053   2.865   3.409  14.675 -0.0641  0.4388 -0.3478
 5213TIP3    H137054   2.958   3.415  14.696 -0.1671  1.8889 -0.1831
 5213TIP3    H237055   2.863   3.399  14.579  0.2668 -0.6701 -0.2561
 5214TIP3   OH237056   5.696   5.174   1.092 -0.7301  0.2166 -0.7198
 5214TIP3    H137057   5.698   5.081   1.115 -0.1747  0.2020 -0.8171
 5214TIP3    H237058   5.625   5.182   1.028 -1.4725  0.0434  0.0650
 5215TIP3   OH237059   5.322   6.472  14.680 -0.4264 -0.2690  0.2173
 5215TIP3    H137060   5.301   6.494  14.590 -1.0401 -0.1865  0.3763
 5215TIP3    H237061   5.411   6.437  14.676 -0.1183  0.5576 -0.2884
 5216TIP3   OH237062   4.571   2.930   1.746 -0.5229 -0.1025  0.1059
 5216TIP3    H137063   4.655   2.942   1.703 -0.1357  0.5735  1.0391
 5216TIP3    H237064   4.551   3.015   1.785 -1.9542 -0.0560 -0.6537
 5217TIP3   OH237065   2.781   2.683  12.028 -0.2638  0.0045  0.1385
 5217TIP3    H137066   2.718   2.739  12.074 -0.8325 -0.1653 -0.4131
 5217TIP3    H237067   2.776   2.599  12.075 -1.6419 -0.5114 -0.8440
 5218TIP3   OH237068   0.124   2.546   0.179 -0.1445  0.1636 -0.0734
 5218TIP3    H137069   0.176   2.612   0.134  0.7377 -1.3139 -1.3353
 5218TIP3    H237070   0.185   2.502   0.238 -0.3633 -0.4037 -0.2534
 5219TIP3   OH237071   3.415   0.605  12.669 -0.3832  0.4275 -0.1752
 5219TIP3    H137072   3.475   0.535  12.644  1.0863  2.3681 -2.5642
 5219TIP3    H237073   3.450   0.639  12.751 -0.7636 -1.1259  0.6887
 5220TIP3   OH237074   6.054   0.212   3.742 -0.2647 -0.6535  0.4773
 5220TIP3    H137075   6.061   0.138   3.682  0.7021  0.2057 -0.5133
 5220TIP3    H237076   6.100   0.283   3.698 -1.6334  0.7189  1.1461
 5221TIP3   OH237077   2.833   2.115   0.108  0.3172  0.2194 -0.0989
 5221TIP3    H137078   2.740   2.094   0.104  0.4157 -0.4098  0.6305
 5221TIP3    H237079   2.866   2.096   0.021 -0.1756  0.1236 -0.2651
 5222TIP3   OH237080   6.761   0.461  14.775 -0.3648 -0.6338  0.2158
 5222TIP3    H137081   6.719   0.380  14.803  0.7082 -0.7798  1.5540
 5222TIP3    H237082   6.764   0.515  14.854 -1.1802  0.7957 -0.6828
 5223TIP3   OH237083   5.474   1.406   0.327 -0.1919  0.3655 -0.9473
 5223TIP3    H137084   5.399   1.427   0.271 -0.5041 -2.8773 -1.9468
 5223TIP3    H237085   5.462   1.314   0.349  1.7107  0.6603  1.8020
 5224TIP3   OH237086   5.023   6.419   4.446  0.1278 -0.1105  0.1824
 5224TIP3    H137087   5.032   6.328   4.475 -0.8260 -0.7625 -1.4077
 5224TIP3    H237088   5.103   6.436   4.396  1.1890  0.6008  2.0182
 5225TIP3   OH237089   3.313   4.977   3.772 -0.3480  0.7593  0.0536
 5225TIP3    H137090   3.391   4.930   3.741  0.3758  2.2468 -0.4408
 5225TIP3    H237091   3.240   4.925   3.738  0.4130 -0.2659 -0.0879
 5226TIP3   OH237092   3.808   6.411   4.679 -0.2264 -0.2347  0.1996
 5226TIP3    H137093   3.856   6.417   4.762  0.2761  1.6238 -0.1744
 5226TIP3    H237094   3.873   6.380   4.616 -0.3700 -0.7766  0.3143
 5227TIP3   OH237095   3.154   0.461   5.432 -0.0055  0.1963  0.1428
 5227TIP3    H137096   3.134   0.554   5.429 -0.0870  0.1531 -0.7312
 5227TIP3    H237097   3.209   0.451   5.510  0.9287  1.1627 -0.3645
 5228TIP3   OH237098   0.961   3.742   4.674 -0.3305  0.0383 -0.3808
 5228TIP3    H137099   0.958   3.651   4.702 -1.1166 -0.3698 -1.7091
 5228TIP3    H237100   1.032   3.745   4.610  0.8008  0.7465  0.8499
 5229TIP3   OH237101   6.734   4.905   4.560  0.8822  0.1646  0.1607
 5229TIP3    H137102   6.800   4.911   4.629  0.9270  0.2116  0.1139
 5229TIP3    H237103   6.700   4.816   4.567  1.1203  0.0607  0.0294
 5230TIP3   OH237104   1.802   1.442  13.940  0.7908 -0.1487  0.4504
 5230TIP3    H137105   1.753   1.436  13.857 -1.4149  0.4128  1.6408
 5230TIP3    H237106   1.755   1.383  14.000  2.3437 -0.5323  1.3437
 5231TIP3   OH237107   1.930   5.039   5.273 -0.1146 -0.2121 -0.2685
 5231TIP3    H137108   1.996   4.987   5.319  0.6121 -0.3889 -1.4440
 5231TIP3    H237109   1.977   5.074   5.197 -0.8908  1.2365 -0.1021
 5232TIP3   OH237110   5.912   3.270   5.869 -0.2817 -0.2712  0.1367
 5232TIP3    H137111   6.003   3.239   5.872  0.0200  0.6416  1.6902
 5232TIP3    H237112   5.861   3.195   5.900  0.1009 -0.3124  0.6933
 5233TIP3   OH237113   5.400   6.470  14.934  0.4266 -0.4813  0.3535
 5233TIP3    H137114   5.346   6.492  14.858  1.2344 -0.2236 -0.1560
 5233TIP3    H237115   5.401   6.374  14.936 -0.6845 -0.4940  0.8332
 5234TIP3   OH237116   4.453   0.339   1.268  0.4157 -0.7762  0.3897
 5234TIP3    H137117   4.540   0.375   1.285  0.1490 -0.6371  1.5671
 5234TIP3    H237118   4.469   0.265   1.209  0.9996  1.0293 -1.8572
 5235TIP3   OH237119   4.165   5.417   0.784 -0.1932  0.2748 -0.3178
 5235TIP3    H137120   4.241   5.475   0.781  0.2979 -0.3988 -1.4558
 5235TIP3    H237121   4.114   5.440   0.707 -0.3422 -0.3198 -0.4034
 5236TIP3   OH237122   4.036   2.950   0.783  0.1248  0.2850 -0.4949
 5236TIP3    H137123   3.982   2.892   0.729 -0.7645 -0.1442  0.7931
 5236TIP3    H237124   4.077   2.892   0.847 -1.4340  1.1012  1.3448
 5237TIP3   OH237125   4.580   1.808  16.144 -0.5208  0.4229  0.3154
 5237TIP3    H137126   4.647   1.841  16.204  1.2223 -4.2156  1.2915
 5237TIP3    H237127   4.613   1.829  16.057  1.0433  0.2678  0.8435
 5238TIP3   OH237128   3.193   3.660  15.822 -0.1971  0.0630 -0.5449
 5238TIP3    H137129   3.193   3.723  15.894 -0.5808  0.4505 -0.8819
 5238TIP3    H237130   3.269   3.604  15.840 -0.0233  0.4376 -0.0844
 5239TIP3   OH237131   3.864   2.045  13.578 -0.4952  0.2658 -0.0755
 5239TIP3    H137132   3.798   1.995  13.529  0.0590  0.5801 -1.1606
 5239TIP3    H237133   3.812   2.100  13.637 -1.1318 -1.0915  0.6947
 5240TIP3   OH237134   6.780   4.625  15.616 -0.3978 -0.0689  0.3841
 5240TIP3    H137135   6.820   4.709  15.596 -0.1916  0.1899  1.7976
 5240TIP3    H237136   6.846   4.560  15.592 -0.9025  0.0684 -1.6030
 5241TIP3   OH237137   5.559   2.787   2.692 -0.0550 -0.2942 -0.1812
 5241TIP3    H137138   5.645   2.745   2.681  0.2676 -0.2201  1.7316
 5241TIP3    H237139   5.553   2.847   2.618  2.7229  1.6085  0.9759
 5242TIP3   OH237140   3.732   6.042   4.847 -0.2389  0.4415  0.0297
 5242TIP3    H137141   3.675   6.093   4.789  1.0102  1.7063 -0.1394
 5242TIP3    H237142   3.728   6.089   4.931 -0.2951 -0.1080  0.3422
 5243TIP3   OH237143   1.500   4.286  11.154  0.0788 -0.1657 -0.3111
 5243TIP3    H137144   1.410   4.318  11.156  0.1647  0.0248  1.5153
 5243TIP3    H237145   1.546   4.349  11.098 -0.9292 -0.3610 -1.3972
 5244TIP3   OH237146   2.093   6.204   5.415 -0.3091  0.2663  0.2436
 5244TIP3    H137147   2.091   6.234   5.325  0.3940 -1.3276 -0.3494
 5244TIP3    H237148   2.185   6.212   5.441 -0.6525  1.5606  1.1436
 5245TIP3   OH237149   5.599   3.262   1.541 -0.0105 -0.1153 -0.0120
 5245TIP3    H137150   5.676   3.205   1.547 -1.4920 -2.3029 -0.3391
 5245TIP3    H237151   5.585   3.274   1.447  0.4891  1.1225  0.0581
 5246TIP3   OH237152   0.949   3.069   2.085 -0.0175 -0.0008  0.1861
 5246TIP3    H137153   1.043   3.060   2.070  0.0415  0.6557  0.1009
 5246TIP3    H237154   0.909   3.004   2.027  0.3806 -0.2099  0.1406
 5247TIP3   OH237155   5.241   3.584  11.444  0.1329  0.4925 -0.3840
 5247TIP3    H137156   5.280   3.533  11.373  0.0851 -0.4203  0.2177
 5247TIP3    H237157   5.251   3.528  11.521  1.0256  1.8466  0.5278
 5248TIP3   OH237158   0.750   5.887  15.690  0.5300  0.4797 -0.1538
 5248TIP3    H137159   0.669   5.866  15.642 -0.1713  0.5761  0.9570
 5248TIP3    H237160   0.811   5.916  15.622 -1.4941  3.9900 -0.7106
 5249TIP3   OH237161   3.153   1.065  12.978 -0.3643  0.0304  0.0699
 5249TIP3    H137162   3.175   1.000  12.911 -0.5742 -0.8805  0.8627
 5249TIP3    H237163   3.177   1.023  13.060  0.5277  1.3975  0.5475
 5250TIP3   OH237164   6.651   1.369  13.413  0.3348  0.1481 -0.0976
 5250TIP3    H137165   6.698   1.411  13.485  1.6518 -1.3816 -0.0073
 5250TIP3    H237166   6.638   1.279  13.442 -1.7230  0.2331 -0.5995
 5251TIP3   OH237167   5.894   6.763   2.591  0.1722 -0.4336 -0.2634
 5251TIP3    H137168   5.888   6.712   2.511  1.1377  1.5012 -1.6644
 5251TIP3    H237169   5.815   6.816   2.592  0.4646  0.0129 -0.3040
 5252TIP3   OH237170   6.229   4.536   2.595 -0.5546  0.7362 -0.0105
 5252TIP3    H137171   6.154   4.504   2.646  0.2826  0.5033  1.1069
 5252TIP3    H237172   6.204   4.624   2.567 -1.4137  0.4968 -0.0287
 5253TIP3   OH237173   1.122   3.119  12.667  0.4219 -0.1074 -0.2531
 5253TIP3    H137174   1.117   3.214  12.655  3.0929 -0.0957 -2.2441
 5253TIP3    H237175   1.098   3.083  12.582 -1.7970 -1.3588  0.8269
 5254TIP3   OH237176   1.285   1.532  15.705  0.2908  0.3689  0.5449
 5254TIP3    H137177   1.281   1.569  15.617 -1.0593 -0.0483  0.4014
 5254TIP3    H237178   1.309   1.605  15.761 -0.2218  0.9702  0.0005
 5255TIP3   OH237179   2.921   0.385   3.763  0.1464  0.0643  0.1435
 5255TIP3    H137180   2.847   0.446   3.762  0.2685  0.3132 -2.6394
 5255TIP3    H237181   2.996   0.438   3.735  0.0855 -1.3752 -3.2728
 5256TIP3   OH237182   2.822   6.107   5.873 -0.2316  0.5080 -0.4540
 5256TIP3    H137183   2.818   6.198   5.843  0.8177  0.0251 -2.1658
 5256TIP3    H237184   2.857   6.058   5.798 -0.4961 -1.2681  0.5297
 5257TIP3   OH237185   0.926   3.605   1.261 -0.6034 -0.2588 -0.0061
 5257TIP3    H137186   0.835   3.575   1.249 -0.9724  1.0382 -0.6034
 5257TIP3    H237187   0.979   3.531   1.231 -1.4596 -0.8792 -0.0585
 5258TIP3   OH237188   2.653   0.744  14.612 -0.5117  0.0269  0.6984
 5258TIP3    H137189   2.647   0.752  14.707  0.5715  1.8746  0.6630
 5258TIP3    H237190   2.702   0.663  14.598 -0.9470 -0.4293  1.6873
 5259TIP3   OH237191   3.723   6.654   4.573 -0.3240  0.5859 -0.4803
 5259TIP3    H137192   3.808   6.698   4.566 -0.3911  0.8438  0.2762
 5259TIP3    H237193   3.734   6.591   4.644 -0.4637 -0.0975 -1.0552
 5260TIP3   OH237194   5.524   2.394  15.940 -0.1880  0.6272 -0.4446
 5260TIP3    H137195   5.547   2.318  15.993 -0.3674  0.4424 -0.6294
 5260TIP3    H237196   5.595   2.456  15.955 -0.9904  1.1913  1.2112
 5261TIP3   OH237197   4.866   5.668   5.197 -0.0076 -0.3036  0.0233
 5261TIP3    H137198   4.933   5.737   5.197 -0.6236  0.3613  1.6186
 5261TIP3    H237199   4.855   5.645   5.105  1.5373  0.4218 -0.3835
 5262TIP3   OH237200   2.432   1.404   3.785 -0.1455 -0.0773  0.4524
 5262TIP3    H137201   2.363   1.470   3.774 -1.6448 -1.6948 -0.2270
 5262TIP3    H237202   2.438   1.391   3.879  1.1847  1.9881  0.7305
 5263TIP3   OH237203   1.310   4.900  12.528 -0.1550  0.2487 -0.9162
 5263TIP3    H137204   1.230   4.921  12.480  0.7014  4.9109 -0.7631
 5263TIP3    H237205   1.370   4.864  12.462 -1.2777 -0.1732 -1.7249
 5264TIP3   OH237206   1.579   1.095   3.731 -0.6480 -0.4487  0.0494
 5264TIP3    H137207   1.627   1.076   3.651 -1.4612 -2.5565 -0.0025
 5264TIP3    H237208   1.644   1.132   3.790  0.7530 -1.9825 -0.4736
 5265TIP3   OH237209   0.215   1.139   1.521 -0.1638  0.0743  0.2536
 5265TIP3    H137210   0.194   1.135   1.614  0.3044 -0.4968  0.3394
 5265TIP3    H237211   0.264   1.221   1.511  1.3494 -0.7173  0.8478
 5266TIP3   OH237212   6.681   4.030   4.548 -0.0536 -0.0490 -0.4617
 5266TIP3    H137213   6.740   4.080   4.492  0.0937  0.0477 -0.2199
 5266TIP3    H237214   6.600   4.081   4.549  1.0408  1.9062  2.2940
 5267TIP3   OH237215   3.899   4.637  15.617 -0.1760  0.4290  0.0050
 5267TIP3    H137216   3.838   4.643  15.543  0.9099 -1.1887 -1.1030
 5267TIP3    H237217   3.890   4.720  15.663 -2.3141  0.7005 -0.8212
 5268TIP3   OH237218   1.152   4.708   2.958 -0.1415 -0.5200  0.2609
 5268TIP3    H137219   1.080   4.770   2.974  0.5864  0.3188  0.3914
 5268TIP3    H237220   1.125   4.659   2.881  0.4957  1.9773 -1.7112
 5269TIP3   OH237221   4.842   5.403   2.809 -0.4285 -0.3661 -0.6961
 5269TIP3    H137222   4.928   5.431   2.776 -0.0864 -0.0350  0.4154
 5269TIP3    H237223   4.858   5.315   2.844 -0.1393  0.2688  0.8839
 5270TIP3   OH237224   6.665   0.425   5.458 -0.2118  0.3499  0.2942
 5270TIP3    H137225   6.598   0.361   5.481  2.2526 -2.4275  0.2378
 5270TIP3    H237226   6.688   0.467   5.541 -2.6801  2.2160  0.1576
 5271TIP3   OH237227   2.661   0.817  14.351 -0.0223 -0.5231  0.1751
 5271TIP3    H137228   2.616   0.901  14.345  1.0965  0.1441  0.6447
 5271TIP3    H237229   2.671   0.802  14.445  1.0136 -0.4609  0.0972
 5272TIP3   OH237230   4.485   3.273   3.101  0.3185 -0.0116  0.3417
 5272TIP3    H137231   4.508   3.234   3.186  1.7317  0.9117  0.4036
 5272TIP3    H237232   4.508   3.365   3.109 -0.4933  0.3122 -0.7180
 5273TIP3   OH237233   0.172   6.675  11.884  0.1001 -0.2493  0.2978
 5273TIP3    H137234   0.111   6.639  11.949 -0.4466  0.2564  0.0763
 5273TIP3    H237235   0.176   6.607  11.816  0.5762 -0.7244  0.7925
 5274TIP3   OH237236   4.750   6.625  12.410 -0.3222  0.7437 -0.2787
 5274TIP3    H137237   4.811   6.691  12.375  0.1420  0.5114  0.0747
 5274TIP3    H237238   4.742   6.647  12.503  0.3703 -0.1004 -0.0087
 5275TIP3   OH237239   1.206   3.930  10.491 -0.0598  0.2432 -0.0219
 5275TIP3    H137240   1.231   3.976  10.410 -0.0831  0.1730 -0.0689
 5275TIP3    H237241   1.142   3.989  10.532 -0.0923  0.2526 -0.0842
 5276TIP3   OH237242   2.103   6.315   0.294  0.0193  0.5013  0.7139
 5276TIP3    H137243   2.041   6.297   0.222  0.8618  1.6887 -0.3470
 5276TIP3    H237244   2.129   6.405   0.280  1.4856  0.2247  1.5494
 5277TIP3   OH237245   5.315   5.603  16.130 -0.3413  0.3952  0.3818
 5277TIP3    H137246   5.382   5.556  16.180  0.5641  0.8144 -0.3903
 5277TIP3    H237247   5.365   5.665  16.077 -1.3639  0.7920 -0.1404
 5278TIP3   OH237248   3.950   5.920   5.892 -0.1462 -0.3507 -0.1552
 5278TIP3    H137249   4.039   5.910   5.926 -0.5475 -1.1288  0.7089
 5278TIP3    H237250   3.959   5.980   5.818  0.9986  0.0871  0.3148
 5279TIP3   OH237251   1.968   2.139  15.033  0.1129 -0.4056 -0.2869
 5279TIP3    H137252   1.941   2.049  15.013  0.8524 -0.4429 -1.1783
 5279TIP3    H237253   2.034   2.130  15.101 -2.4741 -0.2750  2.4136
 5280TIP3   OH237254   5.164   5.603   1.681 -0.2397 -0.3726 -0.0026
 5280TIP3    H137255   5.197   5.605   1.591  0.3155 -0.0664  0.2032
 5280TIP3    H237256   5.152   5.695   1.704 -0.2259 -0.4438  0.2917
 5281TIP3   OH237257   2.368   4.823  12.632 -0.1534  0.1765  0.7721
 5281TIP3    H137258   2.439   4.803  12.694  0.7728  0.1112 -0.2713
 5281TIP3    H237259   2.410   4.819  12.546 -1.0165  1.9222  0.2276
 5282TIP3   OH237260   2.458   1.543   5.412 -0.6306 -0.0667  0.2359
 5282TIP3    H137261   2.487   1.504   5.330  1.1158 -0.8537  1.1676
 5282TIP3    H237262   2.424   1.469   5.463  1.6487 -0.2792  1.5765
 5283TIP3   OH237263   2.959   1.695   1.496 -0.2466  0.1173 -0.0538
 5283TIP3    H137264   2.964   1.716   1.403  1.2331  2.1697  0.4146
 5283TIP3    H237265   2.978   1.601   1.501 -1.0366 -0.1674 -1.8458
 5284TIP3   OH237266   3.539   0.368   3.435  0.1988  0.5368  0.2384
 5284TIP3    H137267   3.600   0.412   3.375 -1.2539  3.0790  0.4805
 5284TIP3    H237268   3.507   0.438   3.492 -1.8809 -0.9527  1.0226
 5285TIP3   OH237269   0.851   3.045  15.110 -0.5300 -0.0639  0.2704
 5285TIP3    H137270   0.835   3.016  15.200 -0.9590 -4.0030 -0.8740
 5285TIP3    H237271   0.933   3.002  15.085 -1.5505 -0.9612 -1.8375
 5286TIP3   OH237272   3.461   3.095   5.646  0.2065  0.3173  0.2971
 5286TIP3    H137273   3.542   3.084   5.696  1.4140  1.4708 -1.2981
 5286TIP3    H237274   3.473   3.039   5.569  0.3934  1.9820 -0.9386
 5287TIP3   OH237275   5.711   3.325  15.725  0.5471 -0.1072 -0.4141
 5287TIP3    H137276   5.744   3.276  15.800  1.0576 -0.3957 -0.8199
 5287TIP3    H237277   5.784   3.382  15.699  1.3131 -1.8041 -2.2289
 5288TIP3   OH237278   0.310   1.363  15.612  1.0591 -0.6579 -0.4522
 5288TIP3    H137279   0.383   1.347  15.553  0.9764  1.8943 -1.3868
 5288TIP3    H237280   0.343   1.429  15.674 -0.7147  1.4746 -1.6438
 5289TIP3   OH237281   1.590   3.706  16.981 -1.1018 -0.7527 -0.3007
 5289TIP3    H137282   1.619   3.740  17.066 -1.4451 -0.8607 -0.1409
 5289TIP3    H237283   1.632   3.620  16.974  3.4612  1.2999 -2.6065
 5290TIP3   OH237284   6.660   6.293  17.006  0.2504  0.0929  0.9665
 5290TIP3    H137285   6.673   6.344  16.926  0.8584  1.0949  1.6904
 5290TIP3    H237286   6.572   6.257  16.997 -0.0242  0.9112  0.2328
 5291TIP3   OH237287   3.526   0.374   2.890 -0.0627 -0.0255 -0.4014
 5291TIP3    H137288   3.607   0.367   2.840 -0.0131  1.3092 -0.5365
 5291TIP3    H237289   3.491   0.285   2.890  0.8021 -0.3935 -1.3440
 5292TIP3   OH237290   5.274   2.540   3.833 -0.2658  0.7780  0.3927
 5292TIP3    H137291   5.228   2.456   3.825 -1.3212  1.2334  1.3832
 5292TIP3    H237292   5.366   2.516   3.845 -0.6297 -0.2614  1.2550
 5293TIP3   OH237293   3.428   4.631   3.152  0.6881 -0.5023  0.7470
 5293TIP3    H137294   3.383   4.558   3.196 -3.3159  1.4776  0.3728
 5293TIP3    H237295   3.394   4.629   3.062  0.0816  2.0483  0.8639
 5294TIP3   OH237296   1.065   5.806   2.349  0.0057  0.3774  0.0334
 5294TIP3    H137297   1.005   5.780   2.419  0.4448  0.6350  0.5193
 5294TIP3    H237298   1.084   5.898   2.366  0.2061  0.4129 -0.3609
 5295TIP3   OH237299   1.878   3.484   1.195 -0.1101 -0.2011 -0.2056
 5295TIP3    H137300   1.886   3.399   1.152  0.4307 -0.0084 -0.4968
 5295TIP3    H237301   1.947   3.484   1.261 -1.2983 -0.7226  1.0819
 5296TIP3   OH237302   6.781   4.162   2.844 -0.1953 -0.7169  0.5003
 5296TIP3    H137303   6.709   4.226   2.851  0.9880  0.6876  0.2914
 5296TIP3    H237304   6.739   4.084   2.808 -1.1349  1.0754 -2.7705
 5297TIP3   OH237305   0.030   2.965  16.268 -0.5961  0.3923  0.3271
 5297TIP3    H137306  -0.020   3.047  16.261 -0.0453  0.7161  0.1968
 5297TIP3    H237307   0.025   2.926  16.181  2.1308  2.0396 -0.6884
 5298TIP3   OH237308   1.992   0.534   4.946  0.1675 -0.1675  0.3540
 5298TIP3    H137309   1.993   0.448   4.904 -2.3793  0.2103 -0.6065
 5298TIP3    H237310   1.977   0.596   4.875  1.1345  1.0218  1.1435
 5299TIP3   OH237311   4.797   5.939  14.204  0.2387 -0.2480 -0.0897
 5299TIP3    H137312   4.802   5.988  14.286 -0.5783 -0.7648  0.2826
 5299TIP3    H237313   4.732   5.988  14.152 -0.7584 -1.0308  0.3748
 5300TIP3   OH237314   0.218   0.731  15.231 -0.4817  1.1884  0.4800
 5300TIP3    H137315   0.137   0.729  15.283 -1.3924  2.3338 -0.8015
 5300TIP3    H237316   0.259   0.814  15.254 -0.6065  1.4423 -0.1700
 5301TIP3   OH237317   4.580   1.928   4.180  0.0540 -0.4593  0.3722
 5301TIP3    H137318   4.516   1.972   4.235 -0.4829  1.8329 -1.8608
 5301TIP3    H237319   4.530   1.896   4.105  1.0302 -1.7512  0.2281
 5302TIP3   OH237320   2.968   3.008   2.750 -0.1693  0.1612  0.3070
 5302TIP3    H137321   2.979   3.074   2.819  0.4730  0.9198 -0.5054
 5302TIP3    H237322   2.959   2.925   2.798 -0.3452  0.7453  1.3236
 5303TIP3   OH237323   6.314   5.156   5.789  0.6807  0.5124 -0.2680
 5303TIP3    H137324   6.234   5.197   5.757 -0.0678  0.3167  1.2720
 5303TIP3    H237325   6.305   5.155   5.885  1.7272 -1.1001 -0.1296
 5304TIP3   OH237326   3.451   2.815   3.723  0.2977  0.1212  0.6732
 5304TIP3    H137327   3.369   2.782   3.761 -0.4203  0.4076 -0.5806
 5304TIP3    H237328   3.508   2.739   3.720 -0.5011 -0.4729  0.0579
 5305TIP3   OH237329   3.181   6.460   0.885  0.4301 -0.0849  0.2374
 5305TIP3    H137330   3.252   6.524   0.885 -0.5127  0.9936  0.0222
 5305TIP3    H237331   3.150   6.459   0.976  1.1303 -1.0528  0.4843
 5306TIP3   OH237332   5.377   3.194   6.676 -0.5301 -0.1335 -0.2424
 5306TIP3    H137333   5.329   3.176   6.595 -0.9178 -2.0601  0.3719
 5306TIP3    H237334   5.467   3.172   6.656 -0.3968  0.6010 -0.4976
 5307TIP3   OH237335   6.214   6.204   5.970  0.2217 -0.4161 -0.2944
 5307TIP3    H137336   6.170   6.189   6.054 -0.4311 -0.3464 -0.6116
 5307TIP3    H237337   6.167   6.148   5.908  1.8404 -1.8329 -0.2880
 5308TIP3   OH237338   1.667   4.070   5.758  0.4200  0.0858  0.0086
 5308TIP3    H137339   1.654   4.053   5.851 -1.9203  1.1843 -0.0548
 5308TIP3    H237340   1.650   3.986   5.716  0.7264 -0.2358  0.5123
 5309TIP3   OH237341   1.488   0.971  13.722 -0.0222 -0.2767 -0.3604
 5309TIP3    H137342   1.482   1.050  13.668 -1.4169  0.5850  0.9803
 5309TIP3    H237343   1.566   0.983  13.775 -0.7684  0.6848  0.5433
 5310TIP3   OH237344   3.943   2.768  12.200  0.8500 -0.1765 -0.2466
 5310TIP3    H137345   4.004   2.828  12.243  1.2543 -1.1875  0.6454
 5310TIP3    H237346   3.865   2.770  12.255  0.5572  0.1311 -0.6664
 5311TIP3   OH237347   1.071   4.419  15.870 -0.0046 -0.0694  0.1518
 5311TIP3    H137348   1.028   4.378  15.945  1.4521 -1.4603  0.2871
 5311TIP3    H237349   1.136   4.477  15.909  1.2208 -1.3042  0.0136
 5312TIP3   OH237350   1.071   1.397  14.116  0.0805 -0.5179 -0.5918
 5312TIP3    H137351   1.137   1.373  14.051 -0.4714 -0.6547 -1.1115
 5312TIP3    H237352   1.042   1.484  14.091 -1.1570 -1.1391 -1.3922
 5313TIP3   OH237353   0.441   4.767  13.496 -0.1700  0.0276 -0.6804
 5313TIP3    H137354   0.442   4.717  13.415 -1.4964  1.4267 -1.6342
 5313TIP3    H237355   0.348   4.782  13.514  0.1436  2.5898 -0.7928
 5314TIP3   OH237356   2.401   0.830   5.860  0.4226 -0.5153  0.2200
 5314TIP3    H137357   2.353   0.796   5.935 -0.6210 -1.4684 -0.8360
 5314TIP3    H237358   2.478   0.773   5.852  0.6331 -0.2951  0.6645
 5315TIP3   OH237359   6.078   5.328   3.088  0.1145 -0.0514 -0.3268
 5315TIP3    H137360   6.039   5.258   3.037  0.0952 -0.9221  0.8332
 5315TIP3    H237361   6.126   5.283   3.158  0.0034  1.0909  0.5194
 5316TIP3   OH237362   6.121   5.766   3.075 -0.0802 -0.0714  0.0585
 5316TIP3    H137363   6.076   5.757   2.991  0.0346 -5.7958  0.2102
 5316TIP3    H237364   6.051   5.766   3.140 -0.0698  2.2537  0.1576
 5317TIP3   OH237365   2.606   3.152  10.801 -0.7637 -0.0602 -0.1837
 5317TIP3    H137366   2.573   3.124  10.716  0.1112 -1.3148 -0.1429
 5317TIP3    H237367   2.699   3.131  10.799 -0.3661  1.4683  0.4672
 5318TIP3   OH237368   2.964   3.040  16.313  0.5378 -0.7210  0.4651
 5318TIP3    H137369   2.884   3.070  16.271  0.6856 -2.6183 -1.3024
 5318TIP3    H237370   3.025   3.113  16.304 -0.1263 -0.2872 -0.6744
 5319TIP3   OH237371   4.183   5.100   0.810 -0.1292 -0.5415  0.1384
 5319TIP3    H137372   4.211   5.190   0.822  0.4900 -0.6725 -0.2834
 5319TIP3    H237373   4.264   5.051   0.798 -0.5319 -0.8919 -1.3238
 5320TIP3   OH237374   0.871   5.657   2.491  0.4354 -0.0566  0.5851
 5320TIP3    H137375   0.870   5.638   2.397 -1.3029 -1.9387  0.9256
 5320TIP3    H237376   0.927   5.588   2.528 -2.6596 -2.3581  1.3735
 5321TIP3   OH237377   0.589   0.474  13.747  0.4052 -0.0807 -0.7443
 5321TIP3    H137378   0.600   0.411  13.819 -1.5944  0.7379  0.3590
 5321TIP3    H237379   0.678   0.496  13.721  1.2224 -0.2887  1.6164
 5322TIP3   OH237380   2.785   4.936   0.037 -0.4255 -0.0766 -0.1061
 5322TIP3    H137381   2.705   4.896   0.001 -1.1321 -1.1122  2.3649
 5322TIP3    H237382   2.769   5.030   0.032 -0.5883 -0.1735 -2.1301
 5323TIP3   OH237383   4.688   5.299   1.424  0.2595 -0.3765  0.2342
 5323TIP3    H137384   4.601   5.268   1.446 -0.9415  1.8927 -0.9489
 5323TIP3    H237385   4.673   5.376   1.368  3.0028  0.3462  0.3337
 5324TIP3   OH237386   6.802   5.347   0.184 -0.8125 -0.3491 -0.3391
 5324TIP3    H137387   6.808   5.286   0.258 -0.2292  0.0474 -0.0550
 5324TIP3    H237388   6.859   5.308   0.117 -0.8514 -0.3853 -0.3516
 5325TIP3   OH237389   3.321   6.378  13.509  0.4775  0.5403  0.2921
 5325TIP3    H137390   3.298   6.304  13.565 -0.2283  1.5751  1.4191
 5325TIP3    H237391   3.275   6.361  13.427 -0.1553  0.0055  0.7418
 5326TIP3   OH237392   0.475   3.077   0.741 -0.1195 -0.9355 -0.3395
 5326TIP3    H137393   0.387   3.052   0.714 -0.5813 -1.3986  1.4775
 5326TIP3    H237394   0.509   3.002   0.789  1.2659 -0.7431 -0.9528
 5327TIP3   OH237395   3.474   5.301  13.241 -0.4098 -0.3463  0.3897
 5327TIP3    H137396   3.563   5.334  13.247  0.1753 -1.4882 -1.4131
 5327TIP3    H237397   3.453   5.272  13.330  0.4446  1.2520  1.1543
 5328TIP3   OH237398   6.064   4.073  11.854  0.0620 -1.2700  0.6166
 5328TIP3    H137399   5.980   4.029  11.843 -0.7025  0.3321 -0.4171
 5328TIP3    H237400   6.043   4.154  11.899  0.4048  0.8074 -2.5928
 5329TIP3   OH237401   2.561   1.750  15.840  0.3528  0.4622  0.1702
 5329TIP3    H137402   2.591   1.798  15.763  2.0444  0.5965  0.8665
 5329TIP3    H237403   2.550   1.816  15.908  4.0732 -0.0872  1.5591
 5330TIP3   OH237404   2.178   4.496   1.497 -0.1552 -0.3506 -0.0563
 5330TIP3    H137405   2.247   4.433   1.477 -0.4764 -0.7544  0.0916
 5330TIP3    H237406   2.225   4.573   1.529  0.2135 -0.8358  0.6195
 5331TIP3   OH237407   6.276   2.599  16.745  0.0435 -0.2027  0.4382
 5331TIP3    H137408   6.185   2.614  16.772 -0.0228  0.5114 -0.1597
 5331TIP3    H237409   6.311   2.686  16.726  0.6645 -0.5211  0.0775
 5332TIP3   OH237410   6.129   5.861  16.693  0.2953 -0.3373 -0.5118
 5332TIP3    H137411   6.043   5.879  16.731 -1.4771 -2.1896 -3.2546
 5332TIP3    H237412   6.153   5.776  16.730  1.4020  0.5219  0.8424
 5333TIP3   OH237413   2.451   4.989  11.120 -0.0640  0.0537  0.0632
 5333TIP3    H137414   2.481   4.975  11.030  0.5150  0.4940  0.1867
 5333TIP3    H237415   2.383   5.056  11.112 -1.1682 -1.0621 -0.2369
 5334TIP3   OH237416   2.535   1.040   4.644  0.3143 -0.0549  0.4087
 5334TIP3    H137417   2.470   1.092   4.692 -0.3492  0.6904 -1.2055
 5334TIP3    H237418   2.510   0.949   4.660 -0.9953  0.2079  0.0585
 5335TIP3   OH237419   0.111   5.525   5.904  0.1661  0.2639 -0.3722
 5335TIP3    H137420   0.115   5.589   5.974  1.0830  1.1211 -1.1730
 5335TIP3    H237421   0.077   5.573   5.829 -0.5341 -0.5668 -0.6091
 5336TIP3   OH237422   6.262   3.588   0.150  0.2896 -0.5797 -0.5095
 5336TIP3    H137423   6.357   3.597   0.161  0.5593 -0.1098 -2.8075
 5336TIP3    H237424   6.247   3.598   0.056 -2.0925 -0.2821 -0.1646
 5337TIP3   OH237425   2.717   1.944   3.151  0.6082  0.1709  0.1175
 5337TIP3    H137426   2.650   1.924   3.086  1.0051  0.6064 -0.4233
 5337TIP3    H237427   2.758   2.024   3.121  0.8690  0.3223  0.8501
 5338TIP3   OH237428   0.704   0.558   3.090 -0.0857  0.0934  0.0389
 5338TIP3    H137429   0.683   0.611   3.167 -0.2136  0.3480 -0.1720
 5338TIP3    H237430   0.635   0.578   3.027  0.2910  0.2544 -0.3235
 5339TIP3   OH237431   6.034   3.938   4.150 -0.1506  0.1533  0.0566
 5339TIP3    H137432   5.988   3.989   4.084 -2.2438  0.0121  1.3048
 5339TIP3    H237433   6.109   3.992   4.175 -2.6532  3.0656  1.8484
 5340TIP3   OH237434   5.586   0.363  16.089  0.1872 -0.0321  0.2946
 5340TIP3    H137435   5.575   0.271  16.064  1.7263 -0.2430  0.3287
 5340TIP3    H237436   5.498   0.400  16.082 -0.6067 -1.6754  0.9805
 5341TIP3   OH237437   1.502   2.361  12.434  0.0022  0.6797 -0.6023
 5341TIP3    H137438   1.414   2.324  12.435 -0.7629  2.2185 -2.9816
 5341TIP3    H237439   1.501   2.427  12.503 -0.1965 -0.2661  0.3330
 5342TIP3   OH237440   3.789   5.732  14.241 -0.2457 -0.2326 -0.0918
 5342TIP3    H137441   3.711   5.744  14.187  1.3248  1.2284 -2.1899
 5342TIP3    H237442   3.805   5.818  14.280  2.2103  0.5641 -2.5390
 5343TIP3   OH237443   3.205   1.297   4.426  0.0174  0.0928 -0.4682
 5343TIP3    H137444   3.202   1.384   4.465 -3.7652  0.2489 -0.7122
 5343TIP3    H237445   3.221   1.238   4.499 -1.3581  0.7791  0.4304
 5344TIP3   OH237446   3.530   4.173  13.259  0.0731 -0.1391  0.2853
 5344TIP3    H137447   3.438   4.200  13.263 -0.0199 -0.4276  0.0899
 5344TIP3    H237448   3.575   4.234  13.317 -0.1510  0.3804 -0.0824
 5345TIP3   OH237449   1.047   0.712   4.746 -0.9094  0.1226  0.2157
 5345TIP3    H137450   1.118   0.651   4.764 -1.2922  0.0481  1.5427
 5345TIP3    H237451   0.980   0.658   4.703 -0.4280  0.0632 -0.4738
 5346TIP3   OH237452   5.560   6.580   4.855 -0.3884  0.0816 -0.3840
 5346TIP3    H137453   5.491   6.602   4.791 -0.9863 -0.1486  0.1737
 5346TIP3    H237454   5.590   6.493   4.829 -1.5048 -0.5582  0.3694
 5347TIP3   OH237455   6.157   0.111  14.722 -0.5085  0.1132 -0.1051
 5347TIP3    H137456   6.198   0.194  14.747 -1.1275 -0.0226  1.4699
 5347TIP3    H237457   6.070   0.115  14.762 -0.4547 -1.3830  0.2037
 5348TIP3   OH237458   0.262   5.593   2.745 -0.3768  0.1624 -0.0052
 5348TIP3    H137459   0.263   5.522   2.681 -0.4676 -0.2185  0.4151
 5348TIP3    H237460   0.243   5.671   2.693 -1.6672 -0.3117 -0.2942
 5349TIP3   OH237461   1.572   6.561  13.759  0.0591  0.1683  0.2952
 5349TIP3    H137462   1.527   6.527  13.836  0.5243 -2.4741 -0.4888
 5349TIP3    H237463   1.601   6.483  13.712 -0.8801  1.6116 -2.9868
 5350TIP3   OH237464   3.880   4.202   2.082  0.6430  0.2814 -0.0107
 5350TIP3    H137465   3.870   4.285   2.036 -4.3818 -1.0394 -1.9672
 5350TIP3    H237466   3.836   4.216   2.166 -1.9185 -0.7036 -1.0889
 5351TIP3   OH237467   3.258   5.592  16.339  0.0255 -0.1408 -0.2061
 5351TIP3    H137468   3.301   5.677  16.342  1.4328 -0.8660  1.2932
 5351TIP3    H237469   3.319   5.532  16.381 -1.7163 -1.5698  0.4133
 5352TIP3   OH237470   4.056   3.947   4.079 -0.5180 -0.2749 -0.6885
 5352TIP3    H137471   3.993   3.989   4.138  0.3188  0.4896 -0.3139
 5352TIP3    H237472   4.132   3.928   4.135  0.0798 -0.0227 -1.3983
 5353TIP3   OH237473   1.815   2.522   4.833  0.4183  0.2224  0.4142
 5353TIP3    H137474   1.901   2.563   4.837  1.5495 -2.0504  1.2583
 5353TIP3    H237475   1.797   2.512   4.739  0.3732  1.9952  0.2079
 5354TIP3   OH237476   6.187   1.923   2.344  0.2349 -0.7559 -0.1845
 5354TIP3    H137477   6.165   1.996   2.286 -0.6788 -0.6423  0.2971
 5354TIP3    H237478   6.270   1.889   2.309 -0.8936 -1.4790 -2.3240
 5355TIP3   OH237479   1.494   5.982   3.598 -0.3210  0.1045 -1.0004
 5355TIP3    H137480   1.523   5.891   3.604  2.6281  1.0309  0.3805
 5355TIP3    H237481   1.552   6.021   3.532  1.6360  1.9572  1.6215
 5356TIP3   OH237482   5.473   4.213  12.472  0.3387 -1.0538 -0.2241
 5356TIP3    H137483   5.453   4.285  12.412 -1.7789 -0.8956  0.5631
 5356TIP3    H237484   5.552   4.173  12.437  0.2987  0.2699 -1.9491
 5357TIP3   OH237485   0.221   4.074   2.387  0.5240  0.0725 -0.1653
 5357TIP3    H137486   0.224   4.054   2.480 -0.2748  1.3389  0.1555
 5357TIP3    H237487   0.308   4.108   2.367  0.6125  0.0483  0.1799
 5358TIP3   OH237488   1.281   6.661   5.287 -0.1653 -0.0696 -0.1310
 5358TIP3    H137489   1.223   6.698   5.353  0.9348 -1.2630  1.6106
 5358TIP3    H237490   1.358   6.718   5.289 -0.4348  0.3271 -0.9436
 5359TIP3   OH237491   6.746   3.593   0.072  0.1088 -0.0056 -0.4207
 5359TIP3    H137492   6.811   3.587   0.003  0.8202 -3.7004  0.3311
 5359TIP3    H237493   6.671   3.544   0.039  0.8295 -2.7354  1.6224
 5360TIP3   OH237494   2.055   3.650  12.371  0.0828 -0.6867  0.2258
 5360TIP3    H137495   2.049   3.654  12.276  0.9370 -0.1839  0.1860
 5360TIP3    H237496   2.022   3.563  12.394 -1.3458 -0.3432 -0.4102
 5361TIP3   OH237497   6.096   0.790   4.717  0.3513  0.2025 -0.1850
 5361TIP3    H137498   6.068   0.783   4.626  1.9651  2.3003 -0.9085
 5361TIP3    H237499   6.188   0.765   4.716  0.2459 -0.3076  1.0102
 5362TIP3   OH237500   4.534   6.675   4.154  0.4122 -1.0231 -0.3536
 5362TIP3    H137501   4.440   6.695   4.147  1.0870  2.5546 -0.9328
 5362TIP3    H237502   4.546   6.652   4.246 -0.6171  1.5695  0.5187
 5363TIP3   OH237503   0.887   2.701  11.695 -0.2948 -1.1548 -0.0584
 5363TIP3    H137504   0.913   2.621  11.741  3.3398 -0.1720 -0.0805
 5363TIP3    H237505   0.933   2.697  11.612 -0.7394  0.5882 -0.4236
 5364TIP3   OH237506   5.954   4.097  16.552  0.2797  0.3226 -0.0241
 5364TIP3    H137507   5.984   4.139  16.471 -1.4569 -0.1311 -0.9479
 5364TIP3    H237508   5.927   4.009  16.525 -0.9203  0.3818  0.9216
 5365TIP3   OH237509   1.147   4.261   0.294  0.2801  0.1540 -0.0745
 5365TIP3    H137510   1.153   4.243   0.200  0.8470 -1.6436  0.2545
 5365TIP3    H237511   1.235   4.289   0.319  0.6102 -1.0811  0.2073
 5366TIP3   OH237512   0.177   1.984   1.762 -0.5147 -0.3413  0.8144
 5366TIP3    H137513   0.202   1.895   1.738  0.1990  0.4262 -1.6648
 5366TIP3    H237514   0.212   2.039   1.691 -1.9885  1.7746  1.5971
 5367TIP3   OH237515   4.175   2.533  12.940 -0.1731 -0.3256 -0.0563
 5367TIP3    H137516   4.144   2.603  12.998  1.0989  0.1309  0.1022
 5367TIP3    H237517   4.210   2.466  12.999  1.6945  0.4119 -0.2665
 5368TIP3   OH237518   3.373   3.710  11.440 -0.2023 -0.1348 -0.1849
 5368TIP3    H137519   3.346   3.802  11.438 -1.4788 -0.3572  2.1277
 5368TIP3    H237520   3.453   3.710  11.492 -0.8921 -0.4196  0.9129
 5369TIP3   OH237521   6.698   3.444   4.290 -0.2681  0.1614 -0.3019
 5369TIP3    H137522   6.608   3.459   4.319  0.2071  2.6950  0.0664
 5369TIP3    H237523   6.697   3.461   4.196 -0.4603 -1.4702 -0.6293
 5370TIP3   OH237524   1.093   4.969  14.834 -0.3212  0.2258 -0.5824
 5370TIP3    H137525   1.072   4.882  14.868  1.8567  0.2151  0.9361
 5370TIP3    H237526   1.114   5.021  14.912 -1.6290  2.1713 -1.4531
 5371TIP3   OH237527   3.961   4.552  13.131  0.6090 -0.2817  0.3236
 5371TIP3    H137528   3.902   4.485  13.166 -0.0205 -0.0805 -0.3248
 5371TIP3    H237529   3.909   4.632  13.130 -1.5267 -1.2219 -6.1777
 5372TIP3   OH237530   4.086   4.369  17.105  0.4108  0.0600 -0.1093
 5372TIP3    H137531   4.143   4.439  17.139  1.1489 -0.4559 -0.2624
 5372TIP3    H237532   4.039   4.337  17.182 -1.4899  2.0756 -0.3273
 5373TIP3   OH237533   4.846   3.470  11.660  0.1137 -0.0619 -0.1472
 5373TIP3    H137534   4.906   3.468  11.734  0.2157  1.4035 -0.1603
 5373TIP3    H237535   4.860   3.555  11.620 -0.3159 -0.6169 -1.5553
 5374TIP3   OH237536   1.779   1.712   1.848 -0.6906  0.3570  0.2585
 5374TIP3    H137537   1.702   1.767   1.864  0.7167  1.9067  2.2338
 5374TIP3    H237538   1.829   1.759   1.781 -0.7137  0.1510  0.0957
 5375TIP3   OH237539   0.433   1.221  11.637  0.3801  0.5259 -0.0890
 5375TIP3    H137540   0.433   1.225  11.542  0.7632 -2.3722 -0.3167
 5375TIP3    H237541   0.362   1.160  11.658  1.2738 -0.0657  1.3542
 5376TIP3   OH237542   2.024   1.867  15.796  0.3368 -0.8191 -0.1934
 5376TIP3    H137543   2.014   1.849  15.890 -2.3110 -4.2681 -0.9238
 5376TIP3    H237544   2.094   1.807  15.769  1.4653  0.5487 -0.4152
 5377TIP3   OH237545   2.210   5.232   1.500 -0.2312 -0.0423 -0.1842
 5377TIP3    H137546   2.209   5.275   1.586  0.6908 -0.0793 -0.1437
 5377TIP3    H237547   2.236   5.142   1.520  0.4141  0.0614 -0.5456
 5378TIP3   OH237548   3.332   2.080  14.745 -0.6397 -0.1546  0.2909
 5378TIP3    H137549   3.359   1.994  14.712  0.4734  0.0098  0.7248
 5378TIP3    H237550   3.414   2.124  14.765 -1.2337  0.4306  1.5391
 5379TIP3   OH237551   2.470   2.640   4.600  0.8037 -0.4841  0.0293
 5379TIP3    H137552   2.436   2.552   4.620 -1.0081  0.1516 -0.0354
 5379TIP3    H237553   2.467   2.687   4.683  0.1605  0.0010 -0.2597
 5380TIP3   OH237554   4.343   4.292  14.018  0.6030  0.5940  0.1351
 5380TIP3    H137555   4.356   4.385  13.999  1.9315 -0.0009 -2.2825
 5380TIP3    H237556   4.248   4.280  14.018  0.4303  1.5346 -2.1014
 5381TIP3   OH237557   0.655   5.259   0.209  0.4155  0.1635 -0.1828
 5381TIP3    H137558   0.725   5.319   0.187  1.3475 -0.6931  0.3832
 5381TIP3    H237559   0.643   5.206   0.130  1.4503 -0.6693  0.1890
 5382TIP3   OH237560   2.422   0.615  13.270  0.3290  0.1680  0.0083
 5382TIP3    H137561   2.506   0.650  13.240  0.2164 -0.1381 -0.6815
 5382TIP3    H237562   2.359   0.685  13.249  0.5694  0.9352  1.6712
 5383TIP3   OH237563   3.440   3.830   3.426  0.1436  0.2474 -0.1284
 5383TIP3    H137564   3.518   3.809   3.376  2.1758  0.2406  2.7859
 5383TIP3    H237565   3.408   3.746   3.458 -1.4360  0.1963 -1.6644
 5384TIP3   OH237566   1.586   5.578  11.796 -0.1868 -0.2397 -0.2230
 5384TIP3    H137567   1.600   5.535  11.880  1.8450  1.2979  0.2931
 5384TIP3    H237568   1.503   5.625  11.806  1.4607  2.4781  2.1562
 5385TIP3   OH237569   0.879   6.056  12.775  0.1181 -0.1853  0.6270
 5385TIP3    H137570   0.945   6.125  12.766  0.1149 -0.2242  0.2963
 5385TIP3    H237571   0.929   5.974  12.770 -0.2250 -0.3193 -2.5798
 5386TIP3   OH237572   4.009   4.410   6.919  0.0707 -0.4169 -0.0901
 5386TIP3    H137573   3.944   4.344   6.946 -1.0541  0.4964 -0.4660
 5386TIP3    H237574   4.022   4.392   6.825 -0.0546 -0.2499 -0.1387
 5387TIP3   OH237575   6.021   5.779   3.492 -0.6574 -0.1407 -0.7946
 5387TIP3    H137576   6.085   5.737   3.434 -0.6476  0.5515 -1.2989
 5387TIP3    H237577   6.072   5.845   3.540 -0.3920 -1.5416  0.9620
 5388TIP3   OH237578   1.234   2.341   5.705 -0.4127 -0.3856 -0.4002
 5388TIP3    H137579   1.211   2.260   5.749 -0.7782  1.2570  2.6831
 5388TIP3    H237580   1.326   2.355   5.727 -0.7835  0.8119  0.4489
 5389TIP3   OH237581   2.491   5.506  14.694  0.6777 -0.3279  0.0485
 5389TIP3    H137582   2.492   5.422  14.740 -0.8963  0.8205  2.3867
 5389TIP3    H237583   2.460   5.484  14.606 -2.5223 -1.9687  1.3877
 5390TIP3   OH237584   4.193   4.747   0.703 -0.3062 -0.3171  0.1156
 5390TIP3    H137585   4.120   4.753   0.765 -1.1026 -0.7565 -0.7643
 5390TIP3    H237586   4.169   4.676   0.644  2.2066 -2.5384  1.5539
 5391TIP3   OH237587   1.296   3.188  13.059 -0.2395  0.2451  0.2906
 5391TIP3    H137588   1.322   3.278  13.080  0.4146 -0.1382  1.1606
 5391TIP3    H237589   1.287   3.145  13.144  0.3752 -0.7632 -0.1409
 5392TIP3   OH237590   2.006   1.839  16.483  0.1930 -0.3201 -0.2964
 5392TIP3    H137591   1.973   1.774  16.422  0.1432  0.8788 -1.5882
 5392TIP3    H237592   1.937   1.848  16.549 -0.2210 -0.8396 -0.6548
 5393TIP3   OH237593   4.904   3.396   3.207  0.2077 -0.3938 -0.2917
 5393TIP3    H137594   4.954   3.396   3.125 -0.7036  0.1076 -0.8596
 5393TIP3    H237595   4.850   3.318   3.203  1.2961 -1.2199  0.5616
 5394TIP3   OH237596   1.170   6.705   2.782  0.0043  0.1209  0.5036
 5394TIP3    H137597   1.191   6.712   2.875  0.3793  0.1186  0.4184
 5394TIP3    H237598   1.221   6.774   2.740 -1.3849  1.1863  0.4854
 5395TIP3   OH237599   1.035   3.341   1.542 -0.8263  0.3039  0.1745
 5395TIP3    H137600   1.015   3.314   1.631 -1.2101  0.0848  0.0254
 5395TIP3    H237601   1.128   3.320   1.531 -1.2826 -1.7905 -0.2057
 5396TIP3   OH237602   1.918   2.036  12.395 -0.4339 -0.2129  0.0131
 5396TIP3    H137603   1.999   2.087  12.396 -0.7754  0.3437  1.5179
 5396TIP3    H237604   1.925   1.978  12.471 -1.1418 -0.6779 -0.2615
 5397TIP3   OH237605   0.156   1.461  10.539 -0.4000  0.2148  0.6972
 5397TIP3    H137606   0.081   1.514  10.567 -1.0449 -0.7936  0.9431
 5397TIP3    H237607   0.232   1.517  10.554 -0.9445  0.6089  2.1889
 5398TIP3   OH237608   0.350   6.014  12.356 -0.1269 -0.1445  0.8389
 5398TIP3    H137609   0.281   5.972  12.407 -0.7759 -0.0206  0.0717
 5398TIP3    H237610   0.314   6.022  12.268  0.1835  1.5295  0.8301
 5399TIP3   OH237611   3.732   4.087  12.411 -0.6255 -0.1361  0.5762
 5399TIP3    H137612   3.799   4.043  12.359 -1.4300 -1.3675  0.5217
 5399TIP3    H237613   3.773   4.168  12.440  0.5578 -0.4198 -0.2201
 5400TIP3   OH237614   3.266   5.177  12.986 -1.1275  0.1866  0.4623
 5400TIP3    H137615   3.295   5.210  13.071 -2.5590  0.8735  0.7160
 5400TIP3    H237616   3.218   5.097  13.007 -0.4377 -0.3259  0.1549
 5401TIP3   OH237617   0.845   0.579   4.641 -0.3059 -0.2403 -0.0828
 5401TIP3    H137618   0.773   0.575   4.578  0.8510 -0.1940 -1.4616
 5401TIP3    H237619   0.866   0.487   4.659 -1.4317 -0.2792  1.2457
 5402TIP3   OH237620   0.743   6.115  13.706  0.3985  0.5254  0.3122
 5402TIP3    H137621   0.827   6.156  13.687  1.3897 -1.9708 -1.0731
 5402TIP3    H237622   0.715   6.157  13.788  2.0312  2.7520 -0.1543
 5403TIP3   OH237623   4.895   0.706  17.222  0.3149  0.5412  0.1120
 5403TIP3    H137624   4.905   0.761  17.144 -0.8342  2.2147  1.0928
 5403TIP3    H237625   4.823   0.646  17.200 -0.0048  1.0064 -0.1172
 5404TIP3   OH237626   2.849   1.090   4.106  0.3535 -0.2058  0.2480
 5404TIP3    H137627   2.912   1.139   4.053  0.6199  0.0458  0.7852
 5404TIP3    H237628   2.778   1.069   4.045 -0.4164  1.9932  0.2809
 5405TIP3   OH237629   2.742   6.443   0.403 -0.0366 -0.0761 -0.2002
 5405TIP3    H137630   2.662   6.496   0.403 -0.7372 -1.1078 -0.9939
 5405TIP3    H237631   2.770   6.444   0.494 -1.7662 -0.8900  0.3844
 5406TIP3   OH237632   3.531   1.604   4.458  0.8131 -1.0330  0.2648
 5406TIP3    H137633   3.518   1.654   4.538  2.0544  1.1268 -0.7937
 5406TIP3    H237634   3.495   1.517   4.477 -1.4330  0.2211  2.2078
 5407TIP3   OH237635   6.425   1.376  14.715 -0.5280  0.2573 -0.8672
 5407TIP3    H137636   6.440   1.398  14.623  2.4821  0.2460 -0.4781
 5407TIP3    H237637   6.450   1.454  14.763  0.7355 -0.6833  0.0529
 5408TIP3   OH237638   2.511   5.997   1.802 -0.2830 -0.7505 -0.6887
 5408TIP3    H137639   2.537   5.954   1.721  0.8899 -0.8674 -0.2684
 5408TIP3    H237640   2.450   5.936   1.843 -0.7040 -0.7926 -1.3606
 5409TIP3   OH237641   0.457   0.616  15.061  0.0258 -0.0546  0.2887
 5409TIP3    H137642   0.387   0.617  14.996  0.6826  2.6737 -0.5009
 5409TIP3    H237643   0.417   0.655  15.139  0.0603 -0.5923  0.5796
 5410TIP3   OH237644   3.292   4.893  16.326  0.1175 -0.4788  0.0267
 5410TIP3    H137645   3.345   4.902  16.405 -0.2346 -0.2420  0.2373
 5410TIP3    H237646   3.296   4.800  16.305  0.5629 -0.4732  0.0770
 5411TIP3   OH237647   5.676   3.164   2.070  0.2240 -0.1357 -1.0658
 5411TIP3    H137648   5.743   3.188   2.006  0.3285  0.0878 -0.8741
 5411TIP3    H237649   5.710   3.196   2.154  0.0599 -0.3699 -0.9083
 5412TIP3   OH237650   2.749   2.429   2.417 -0.2883 -0.4386  0.4977
 5412TIP3    H137651   2.700   2.477   2.351  0.3871 -1.4195 -0.7704
 5412TIP3    H237652   2.795   2.496   2.467 -0.0991  0.2790 -0.6155
 5413TIP3   OH237653   3.307   5.305  12.755  0.5393  0.2935 -0.0517
 5413TIP3    H137654   3.269   5.263  12.678  1.5162  0.1057 -0.4434
 5413TIP3    H237655   3.304   5.238  12.823 -1.2072  0.7585  0.3873
 5414TIP3   OH237656   1.557   4.346   1.739  0.3553 -0.2233  0.8982
 5414TIP3    H137657   1.504   4.294   1.799  1.0618 -2.2322 -0.1132
 5414TIP3    H237658   1.644   4.306   1.743  0.4096 -0.4956 -1.4489
 5415TIP3   OH237659   0.321   4.067   4.622  0.5140 -0.7347  0.1577
 5415TIP3    H137660   0.417   4.067   4.625  0.6417  1.4217 -1.5419
 5415TIP3    H237661   0.298   3.980   4.587  1.8525 -1.1173  0.1741
 5416TIP3   OH237662   2.689   4.398  10.793  0.0068  0.0777 -0.0836
 5416TIP3    H137663   2.744   4.377  10.868 -0.0369  1.0037  0.2130
 5416TIP3    H237664   2.702   4.324  10.733  0.5991 -0.3174  0.5179
 5417TIP3   OH237665   4.721   5.108   0.432 -0.6615  0.2558 -0.5633
 5417TIP3    H137666   4.774   5.177   0.392  1.4852 -0.3138  1.0927
 5417TIP3    H237667   4.714   5.041   0.364  0.9680  0.2708 -0.7883
 5418TIP3   OH237668   3.594   3.213  16.002  0.2825 -0.4088  0.1862
 5418TIP3    H137669   3.562   3.183  16.087  1.9182 -0.6526  0.7592
 5418TIP3    H237670   3.687   3.191  16.002  0.4162 -0.0162 -1.5034
 5419TIP3   OH237671   0.369   4.514  12.392  0.3806 -0.7294 -0.2994
 5419TIP3    H137672   0.456   4.494  12.426  0.6597 -0.2503 -0.7121
 5419TIP3    H237673   0.381   4.596  12.343 -0.2124 -0.8862 -0.7136
 5420TIP3   OH237674   1.565   6.001  15.177  0.7334  0.1261 -0.4404
 5420TIP3    H137675   1.548   6.015  15.084  0.8857 -0.4858 -0.5635
 5420TIP3    H237676   1.619   5.922  15.180  1.7305  0.8124  0.0890
 5421TIP3   OH237677   6.620   5.885   1.138  0.1768  0.0011 -1.0182
 5421TIP3    H137678   6.563   5.909   1.211  0.7212 -0.5252 -0.4070
 5421TIP3    H237679   6.598   5.795   1.118  0.1347  0.0975 -1.4036
 5422TIP3   OH237680   3.078   1.555   5.042 -0.0421  0.4324  0.1460
 5422TIP3    H137681   3.003   1.507   5.006  0.6158  0.2580 -1.0451
 5422TIP3    H237682   3.142   1.487   5.062  1.7608  0.7714 -3.5391
 5423TIP3   OH237683   4.220   6.313  13.228  0.2439 -0.0490  0.4350
 5423TIP3    H137684   4.181   6.341  13.145 -0.2449 -0.0092  0.6757
 5423TIP3    H237685   4.172   6.234  13.253  1.3813 -0.9364 -0.0593
 5424TIP3   OH237686   5.365   6.469   5.539 -0.1938 -0.0933 -0.5884
 5424TIP3    H137687   5.346   6.481   5.446  1.6870 -2.4038 -1.3848
 5424TIP3    H237688   5.442   6.523   5.555 -0.3016  0.0271 -0.4855
 5425TIP3   OH237689   2.186   1.978   2.805 -0.0293  0.4389  0.7662
 5425TIP3    H137690   2.113   1.927   2.841  0.2439 -0.8683 -0.4524
 5425TIP3    H237691   2.239   2.001   2.881 -1.0076  0.2825  1.5244
 5426TIP3   OH237692   0.433   1.002  12.333 -0.4778  0.6086  0.1793
 5426TIP3    H137693   0.427   1.091  12.300 -0.0029  0.6069  0.0865
 5426TIP3    H237694   0.351   0.960  12.303  0.7779  0.0057 -2.8215
 5427TIP3   OH237695   6.340   1.842  12.994 -0.3385 -0.2868  0.3257
 5427TIP3    H137696   6.263   1.805  13.038 -0.2262 -0.3572  0.4642
 5427TIP3    H237697   6.394   1.876  13.066 -0.6077  0.4747  0.1761
 5428TIP3   OH237698   4.327   4.512  16.302 -0.3388 -0.5799  0.2725
 5428TIP3    H137699   4.358   4.440  16.248 -1.2026  0.3026 -1.4640
 5428TIP3    H237700   4.406   4.564  16.321 -0.4278  1.1121 -3.2780
 5429TIP3   OH237701   6.785   5.544  11.961 -0.1468 -0.5482 -0.2124
 5429TIP3    H137702   6.801   5.603  12.034  0.4140  2.0476 -2.2982
 5429TIP3    H237703   6.868   5.499  11.947  0.3194  0.3856 -0.4595
 5430TIP3   OH237704   0.811   5.082  15.014 -0.2178  0.1838 -0.2011
 5430TIP3    H137705   0.753   5.131  15.073 -0.6389 -1.3152  0.6907
 5430TIP3    H237706   0.887   5.138  15.003 -0.5631  0.9179  1.0056
 5431TIP3   OH237707   4.498   3.268   4.368  0.2720  0.0506 -0.6225
 5431TIP3    H137708   4.554   3.290   4.293 -1.2884  1.5555 -1.4182
 5431TIP3    H237709   4.466   3.353   4.398  0.8574 -0.5134  1.8007
 5432TIP3   OH237710   4.354   4.046   4.224 -0.5550 -0.1710 -0.1013
 5432TIP3    H137711   4.353   4.096   4.306  0.0973  0.1781 -0.3031
 5432TIP3    H237712   4.317   3.961   4.248  0.2091 -0.2887  0.6974
 5433TIP3   OH237713   4.687   2.674  11.423 -0.3234 -0.0313 -0.5965
 5433TIP3    H137714   4.595   2.699  11.439 -1.1982 -3.2169  0.0051
 5433TIP3    H237715   4.736   2.717  11.493 -1.5257  0.7440 -0.1977
 5434TIP3   OH237716   6.303   3.948  16.367  0.4966 -0.3159  0.4358
 5434TIP3    H137717   6.265   3.870  16.326 -0.6234  1.5613 -2.4364
 5434TIP3    H237718   6.396   3.944  16.346  0.4825 -0.9941  0.4921
 5435TIP3   OH237719   5.881   0.459  12.050 -0.4084 -0.0902 -0.4203
 5435TIP3    H137720   5.953   0.414  12.094 -1.4157 -0.5506  0.8335
 5435TIP3    H237721   5.919   0.540  12.017  1.0592 -1.0907 -1.2791
 5436TIP3   OH237722   0.389   5.448   5.374 -0.2935 -0.4574  0.2671
 5436TIP3    H137723   0.408   5.536   5.407  1.0535 -0.5115 -0.2974
 5436TIP3    H237724   0.307   5.458   5.326 -2.1625 -0.3178  3.2553
 5437TIP3   OH237725   6.447   2.797  11.420 -0.0514  0.1244  0.0305
 5437TIP3    H137726   6.415   2.826  11.335  0.5916  1.7942  0.3146
 5437TIP3    H237727   6.537   2.769  11.403  0.5372  1.7033  0.3357
 5438TIP3   OH237728   1.425   6.375   2.542 -0.4956 -0.1723 -0.1445
 5438TIP3    H137729   1.402   6.284   2.523  0.3472 -0.4504  0.1309
 5438TIP3    H237730   1.471   6.405   2.464 -0.8173  0.0397 -0.2553
 5439TIP3   OH237731   4.769   4.938  13.830  0.5141  0.2098  0.0564
 5439TIP3    H137732   4.686   4.956  13.786 -0.0563 -0.5340  0.7771
 5439TIP3    H237733   4.781   4.843  13.820  0.1826 -0.0414  1.7534
 5440TIP3   OH237734   0.852   3.069  13.339 -0.0566 -0.3280 -0.3189
 5440TIP3    H137735   0.878   3.057  13.248 -1.3408 -1.2536 -0.5866
 5440TIP3    H237736   0.823   2.982  13.368  0.2565 -0.0359  0.9605
 5441TIP3   OH237737   0.695   1.075   3.610  0.3078 -0.0842 -0.0282
 5441TIP3    H137738   0.716   0.996   3.661 -2.1554  0.1757  1.5324
 5441TIP3    H237739   0.603   1.065   3.587  0.5885  1.2460 -1.9060
 5442TIP3   OH237740   4.686   0.694   3.290  0.6257 -0.1199  0.0792
 5442TIP3    H137741   4.675   0.659   3.378 -0.1144  0.5644  0.2724
 5442TIP3    H237742   4.620   0.648   3.237 -0.4738  1.0609  0.3723
 5443TIP3   OH237743   5.169   3.805   2.828 -0.1452 -0.0697  0.0735
 5443TIP3    H137744   5.214   3.884   2.860  0.5391 -0.8982  1.2527
 5443TIP3    H237745   5.234   3.736   2.837 -1.3134 -1.1091  0.8222
 5444TIP3   OH237746   2.639   6.788  12.577 -0.2352  0.2351  0.1590
 5444TIP3    H137747   2.644   6.851  12.505 -1.3548  0.7472  0.5042
 5444TIP3    H237748   2.553   6.747  12.566  0.6277 -1.5236 -0.2833
 5445TIP3   OH237749   0.273   5.629  16.987 -0.1054  0.0127 -0.3726
 5445TIP3    H137750   0.307   5.548  16.951  0.9678  1.3578 -2.5682
 5445TIP3    H237751   0.347   5.667  17.034  0.2535  1.0021 -1.6961
 5446TIP3   OH237752   6.704   6.004  13.478 -0.1400 -0.1258  0.5025
 5446TIP3    H137753   6.670   6.070  13.539 -0.4480  0.1919 -0.0071
 5446TIP3    H237754   6.769   6.050  13.425 -1.7055  0.3059 -1.1478
 5447TIP3   OH237755   0.720   2.539   0.666 -0.1865 -0.4167  0.3489
 5447TIP3    H137756   0.647   2.578   0.713 -1.0079  0.6660 -1.7078
 5447TIP3    H237757   0.689   2.453   0.640 -0.8409  0.1170 -0.6900
 5448TIP3   OH237758   0.957   4.002  16.814  0.2676  0.2550  0.1599
 5448TIP3    H137759   1.019   4.074  16.808  1.2449 -0.4187  1.5594
 5448TIP3    H237760   0.936   3.980  16.723  0.5268  1.7876 -0.3002
 5449TIP3   OH237761   2.706   4.871  10.718  0.0000 -0.0967 -0.8278
 5449TIP3    H137762   2.791   4.900  10.752 -0.6108 -0.0499  0.7068
 5449TIP3    H237763   2.726   4.793  10.667  1.1742  0.8437 -1.8725
 5450TIP3   OH237764   5.394   0.151   2.537 -0.3390  0.1379 -0.1890
 5450TIP3    H137765   5.419   0.243   2.546 -1.5011  0.3187  2.0758
 5450TIP3    H237766   5.300   0.154   2.518 -0.4839 -0.5593  0.3803
 5451TIP3   OH237767   5.033   1.505   1.770  0.2977 -0.0687 -0.4698
 5451TIP3    H137768   5.116   1.550   1.755  0.1733  0.7144  1.0029
 5451TIP3    H237769   5.032   1.486   1.864 -1.5404  0.7028 -0.2924
 5452TIP3   OH237770   5.000   5.958  10.679 -0.6528  0.5057  0.5703
 5452TIP3    H137771   4.952   5.895  10.734  2.0091 -2.7605 -0.5125
 5452TIP3    H237772   4.955   5.954  10.595 -0.5438  0.0976  0.5286
 5453TIP3   OH237773   6.229   5.570   2.164 -0.1400 -0.4211  0.1435
 5453TIP3    H137774   6.166   5.639   2.148  0.0894 -0.5487 -1.3836
 5453TIP3    H237775   6.291   5.608   2.226 -0.6891  0.3197  0.2453
 5454TIP3   OH237776   0.382   4.717   5.714  0.2609  0.3335 -0.1528
 5454TIP3    H137777   0.413   4.726   5.804 -0.1032  0.9177 -0.0777
 5454TIP3    H237778   0.390   4.624   5.694  0.3245  0.2022  0.4914
 5455TIP3   OH237779   1.811   5.434  12.768 -0.2816 -0.2603 -0.4561
 5455TIP3    H137780   1.803   5.338  12.766 -0.6541 -0.4360  2.9191
 5455TIP3    H237781   1.890   5.450  12.821  0.7918  1.3749 -2.4049
 5456TIP3   OH237782   5.354   4.991   1.376  0.2275 -0.3649 -1.0981
 5456TIP3    H137783   5.341   5.085   1.365  0.1807 -0.5081 -2.3873
 5456TIP3    H237784   5.276   4.951   1.338 -0.0130 -0.9188 -0.0526
 5457TIP3   OH237785   5.528   0.833  15.298 -0.9439  0.4223 -0.3263
 5457TIP3    H137786   5.545   0.902  15.233 -1.2276  0.2130 -0.6264
 5457TIP3    H237787   5.615   0.798  15.319 -0.9548 -0.5590 -1.7617
 5458TIP3   OH237788   3.117   0.720  15.243  0.7439  1.1278  0.0333
 5458TIP3    H137789   3.068   0.705  15.323  1.0919  0.8883  0.2063
 5458TIP3    H237790   3.196   0.766  15.271  0.6622  1.4296 -0.2289
 5459TIP3   OH237791   6.515   4.708  14.437 -0.1072 -0.4527 -0.3641
 5459TIP3    H137792   6.601   4.669  14.418 -0.0541 -0.0149 -1.0728
 5459TIP3    H237793   6.530   4.759  14.516 -0.6363 -3.3182  1.7474
 5460TIP3   OH237794   0.260   3.826   4.528 -0.2445  0.0878  0.5505
 5460TIP3    H137795   0.212   3.743   4.535  1.0229 -0.8471 -1.0654
 5460TIP3    H237796   0.279   3.835   4.435  2.3462  0.6024  1.0429
 5461TIP3   OH237797   2.776   0.477  14.589 -0.3863  0.6587 -0.2064
 5461TIP3    H137798   2.743   0.389  14.571  0.2883  0.2563  0.4309
 5461TIP3    H237799   2.862   0.478  14.547  0.6841  0.1255  1.8210
 5462TIP3   OH237800   4.372   2.861  13.663 -0.2499  0.4795 -0.0471
 5462TIP3    H137801   4.316   2.890  13.591  1.3127  2.2314 -0.6344
 5462TIP3    H237802   4.364   2.930  13.729  0.2472  0.1193  0.4017
 5463TIP3   OH237803   1.348   0.835  13.966 -0.4811  0.1088  0.2617
 5463TIP3    H137804   1.371   0.759  13.911  0.6637 -0.4557  1.4649
 5463TIP3    H237805   1.253   0.840  13.961 -0.7129 -2.1472  1.0203
 5464TIP3   OH237806   6.689   0.504  13.848 -0.0877  0.0934  0.4920
 5464TIP3    H137807   6.652   0.475  13.765  1.9496  0.8975 -0.7865
 5464TIP3    H237808   6.614   0.510  13.908 -1.3615 -2.1607 -0.7715
 5465TIP3   OH237809   5.528   2.541   5.761  0.7042  0.1640  0.1869
 5465TIP3    H137810   5.516   2.446   5.773  1.7386  0.1764  1.4053
 5465TIP3    H237811   5.584   2.568   5.833  1.3756  1.5181 -0.8054
 5466TIP3   OH237812   2.255   4.662   2.419  0.2900 -0.0642  0.1520
 5466TIP3    H137813   2.303   4.631   2.342  1.7652  0.5630  0.7996
 5466TIP3    H237814   2.308   4.733   2.454 -1.7688  1.5671  0.1614
 5467TIP3   OH237815   5.386   6.134  16.223  0.3948 -0.7067  0.0620
 5467TIP3    H137816   5.482   6.137  16.224  0.3804  2.1690 -0.6848
 5467TIP3    H237817   5.360   6.167  16.308  0.1026  0.8597 -0.6049
 5468TIP3   OH237818   0.427   5.461  13.692 -0.2919  0.0085  0.2188
 5468TIP3    H137819   0.346   5.415  13.711 -0.5271  0.0116 -0.7057
 5468TIP3    H237820   0.407   5.514  13.615  1.2842 -2.0170 -1.7369
 5469TIP3   OH237821   5.282   6.231  12.705  0.6482  0.2639  0.2442
 5469TIP3    H137822   5.260   6.324  12.701  0.5793  0.1972 -1.1307
 5469TIP3    H237823   5.316   6.210  12.618  0.3346 -1.0768  0.4312
 5470TIP3   OH237824   3.382   5.896   0.194  0.4828 -0.2615  0.0696
 5470TIP3    H137825   3.456   5.957   0.195  0.7321 -0.5489 -0.4160
 5470TIP3    H237826   3.312   5.943   0.148  1.1802 -0.8920 -1.7367
 5471TIP3   OH237827   2.058   5.750  15.527  0.2427 -0.2795 -0.0428
 5471TIP3    H137828   2.119   5.790  15.465  0.3673 -0.9981 -0.3923
 5471TIP3    H237829   2.008   5.824  15.562  0.5887  0.2024 -0.5439
 5472TIP3   OH237830   3.877   2.547  12.673 -0.0341 -0.3000 -0.1758
 5472TIP3    H137831   3.800   2.541  12.729  0.4223  0.0885  0.5129
 5472TIP3    H237832   3.846   2.523  12.586 -1.3992  1.7885 -0.3461
 5473TIP3   OH237833   1.409   2.134   4.825 -0.2608  0.5152  0.2881
 5473TIP3    H137834   1.345   2.183   4.773  1.3777  0.3866 -1.9983
 5473TIP3    H237835   1.479   2.197   4.843  0.2449 -0.0506  0.3548
 5474TIP3   OH237836   0.973   2.910  15.553  0.6393 -0.2318 -0.2058
 5474TIP3    H137837   0.939   2.821  15.562 -0.7775  0.1959 -0.9347
 5474TIP3    H237838   0.974   2.945  15.643  0.4334 -0.7105 -0.0163
 5475TIP3   OH237839   3.492   0.869  12.210  0.9035  0.2422 -0.3034
 5475TIP3    H137840   3.416   0.920  12.185  0.8062  0.1231 -0.2485
 5475TIP3    H237841   3.501   0.803  12.141 -0.5755 -1.3958  0.9985
 5476TIP3   OH237842   4.969   5.531  15.000  0.6318  0.8886 -0.1227
 5476TIP3    H137843   4.958   5.587  15.076 -1.4409  0.3901  0.0144
 5476TIP3    H237844   5.035   5.467  15.026  0.6164  1.2821  0.9216
 5477TIP3   OH237845   2.421   1.791  15.171  0.2563 -0.1354 -0.2478
 5477TIP3    H137846   2.379   1.853  15.231 -0.0845  1.0613 -1.6648
 5477TIP3    H237847   2.451   1.720  15.228 -2.5972 -0.4874  1.0152
 5478TIP3   OH237848   1.332   3.535  13.481 -0.2915  0.3234 -0.0260
 5478TIP3    H137849   1.248   3.568  13.450  0.5128  0.6378 -2.0042
 5478TIP3    H237850   1.384   3.614  13.496 -0.6560  0.1886  2.3078
 5479TIP3   OH237851   2.698   5.799  10.705  0.0276 -0.0264 -0.0463
 5479TIP3    H137852   2.698   5.893  10.688  2.4424 -0.0525 -0.7060
 5479TIP3    H237853   2.734   5.761  10.624 -1.3254 -1.5816  0.0318
 5480TIP3   OH237854   1.669   5.928   4.130  0.4268 -0.4167  0.1427
 5480TIP3    H137855   1.649   5.982   4.054  1.1156 -0.9934 -0.4668
 5480TIP3    H237856   1.612   5.960   4.199 -0.8772 -0.4830 -0.8794
 5481TIP3   OH237857   1.114   2.413   3.818  0.1573 -0.2083  0.2384
 5481TIP3    H137858   1.196   2.365   3.808  0.3303  0.1507 -0.1361
 5481TIP3    H237859   1.086   2.397   3.908  0.0025 -1.3294  0.0080
 5482TIP3   OH237860   2.918   1.322   5.817 -0.3091 -0.4575  0.1440
 5482TIP3    H137861   2.923   1.408   5.859 -1.4974 -0.1408 -0.3033
 5482TIP3    H237862   2.911   1.261   5.890 -0.4843 -0.0748  0.4571
 5483TIP3   OH237863   4.361   1.531   5.616  0.5783 -0.2578  0.3869
 5483TIP3    H137864   4.335   1.484   5.696 -0.2601  0.7878  0.7581
 5483TIP3    H237865   4.317   1.616   5.623  1.1609  0.1636 -0.8002
 5484TIP3   OH237866   4.496   5.676  12.171  0.2462 -0.5051  0.1374
 5484TIP3    H137867   4.403   5.697  12.170  0.6811  1.7680  1.3921
 5484TIP3    H237868   4.513   5.647  12.261  0.6529 -1.4997 -0.2445
 5485TIP3   OH237869   2.731   6.634   3.559  0.2696 -0.3651  0.5200
 5485TIP3    H137870   2.817   6.593   3.567  0.7662 -0.3403 -2.9839
 5485TIP3    H237871   2.744   6.706   3.497 -1.9396  0.8658  1.3554
 5486TIP3   OH237872   3.145   2.303   3.532  0.2348  0.1639  0.2983
 5486TIP3    H137873   3.208   2.336   3.469  1.3303  0.8629  1.7093
 5486TIP3    H237874   3.195   2.243   3.588 -0.8724 -1.0143  0.0909
 5487TIP3   OH237875   5.161   1.702  15.045  0.3924  0.0152 -0.0775
 5487TIP3    H137876   5.079   1.714  15.094 -0.3792 -0.0752 -1.3127
 5487TIP3    H237877   5.219   1.656  15.106 -0.5188 -0.0307  0.7743
 5488TIP3   OH237878   5.357   2.858  12.229  0.3609  0.5209  0.3567
 5488TIP3    H137879   5.289   2.820  12.284 -0.7728  0.8451 -0.7614
 5488TIP3    H237880   5.322   2.852  12.140  0.9497  2.4313 -0.0500
 5489TIP3   OH237881   6.597   2.831   2.595  0.2931  0.0118  0.1742
 5489TIP3    H137882   6.585   2.875   2.680  2.9382 -1.5704  1.4978
 5489TIP3    H237883   6.650   2.892   2.544  0.6244  0.0212  0.5251
 5490TIP3   OH237884   4.147   4.772   2.736 -0.5251 -0.7076 -0.2676
 5490TIP3    H137885   4.196   4.763   2.654  0.2470 -1.2412  0.2315
 5490TIP3    H237886   4.115   4.684   2.755 -0.5111 -0.6317  0.1135
 5491TIP3   OH237887   5.317   2.164  16.096  0.3534  0.0297 -0.2853
 5491TIP3    H137888   5.364   2.124  16.023 -0.1804  0.5269 -0.9147
 5491TIP3    H237889   5.284   2.247  16.061  1.3468  1.0046  0.9413
 5492TIP3   OH237890   6.720   4.969  14.955 -0.3198 -0.3263 -0.0297
 5492TIP3    H137891   6.734   5.017  14.873 -1.4945 -0.4879 -0.3487
 5492TIP3    H237892   6.644   5.011  14.994  0.1322 -0.3671  0.9046
 5493TIP3   OH237893   0.478   1.954   5.812 -0.0432  0.4397  0.7468
 5493TIP3    H137894   0.398   2.004   5.827  0.6841  1.8564  0.1182
 5493TIP3    H237895   0.545   2.000   5.863  0.4348 -0.6094  1.1112
 5494TIP3   OH237896   5.303   3.853  15.129  0.1711 -0.0134  0.0231
 5494TIP3    H137897   5.307   3.770  15.176  0.1603  0.7044  1.3245
 5494TIP3    H237898   5.273   3.917  15.194  3.1614  1.6408 -0.0187
 5495TIP3   OH237899   4.159   3.813   5.761 -0.6580 -0.0780  0.5940
 5495TIP3    H137900   4.243   3.842   5.796 -0.6511  1.3268 -0.5193
 5495TIP3    H237901   4.182   3.744   5.699 -0.3186  0.3882  0.2009
 5496TIP3   OH237902   0.811   5.328   4.088  0.4143 -0.0897 -0.0524
 5496TIP3    H137903   0.844   5.367   4.007  1.0075 -0.8041 -0.1561
 5496TIP3    H237904   0.717   5.350   4.088  0.2622 -0.6466 -1.2585
 5497TIP3   OH237905   5.389   6.301  16.677 -0.3715  0.8388  0.0261
 5497TIP3    H137906   5.460   6.365  16.680  0.8870 -0.4596 -0.7388
 5497TIP3    H237907   5.375   6.286  16.583  0.1502 -0.8025  0.1786
 5498TIP3   OH237908   3.519   5.479   2.814  0.5395  0.5052 -0.4362
 5498TIP3    H137909   3.488   5.408   2.869  1.0170  0.1221 -0.6576
 5498TIP3    H237910   3.597   5.444   2.770  1.2610  1.4245  0.0730
 5499TIP3   OH237911   6.707   1.810   4.523 -0.2804 -0.1075 -0.0279
 5499TIP3    H137912   6.695   1.733   4.467  0.2593 -1.4157  1.5701
 5499TIP3    H237913   6.771   1.864   4.476 -0.3745 -0.8113 -0.9983
 5500TIP3   OH237914   4.126   5.198  12.200 -0.2444 -0.5129  0.2412
 5500TIP3    H137915   4.219   5.185  12.182  0.5343  2.4723  1.4978
 5500TIP3    H237916   4.118   5.187  12.295 -0.8317  0.6910  0.3603
 5501TIP3   OH237917   5.202   1.107  14.690  0.3136 -0.0773  0.6206
 5501TIP3    H137918   5.261   1.104  14.765  1.2325 -0.5871 -0.0979
 5501TIP3    H237919   5.185   1.015  14.669  0.3428  0.0538  0.0008
 5502TIP3   OH237920   1.843   4.144  15.684 -0.0336 -0.0764  0.8106
 5502TIP3    H137921   1.829   4.123  15.591 -0.2454 -1.0678  1.0557
 5502TIP3    H237922   1.825   4.062  15.730  1.0406  0.1341  1.6476
 5503TIP3   OH237923   2.428   0.588   4.470  0.2631  0.1002 -0.6403
 5503TIP3    H137924   2.451   0.593   4.377  2.9389 -0.3743 -0.0884
 5503TIP3    H237925   2.432   0.495   4.490  1.3242  0.3367  0.2909
 5504TIP3   OH237926   6.570   6.433  12.153 -0.1986 -0.0583 -0.0790
 5504TIP3    H137927   6.576   6.360  12.091 -1.6444 -0.7445  0.5277
 5504TIP3    H237928   6.476   6.447  12.164 -0.0267 -0.5042  2.5262
 5505TIP3   OH237929   4.888   4.649  16.472 -0.4123  0.1930 -0.5589
 5505TIP3    H137930   4.910   4.720  16.532  0.2783 -0.5500  0.1075
 5505TIP3    H237931   4.950   4.658  16.400  2.6039 -2.0868  1.4630
 5506TIP3   OH237932   1.462   0.645   4.160  0.5968  0.3547 -0.2253
 5506TIP3    H137933   1.540   0.656   4.214 -0.0039  0.0723  0.7152
 5506TIP3    H237934   1.413   0.727   4.170  0.2367  0.1081  0.0708
 5507TIP3   OH237935   4.890   0.308   0.996  0.1360 -0.1265  0.1312
 5507TIP3    H137936   4.921   0.335   0.910 -0.6811  0.1397 -0.0885
 5507TIP3    H237937   4.796   0.294   0.984  0.1361 -0.7595  0.8140
 5508TIP3   OH237938   5.554   0.057   2.895 -0.0966  0.3430 -0.1250
 5508TIP3    H137939   5.515   0.083   2.978  0.1052 -1.7685  0.7117
 5508TIP3    H237940   5.498  -0.015   2.864  0.1436  0.7480 -1.5463
 5509TIP3   OH237941   0.435   1.030   3.579  0.8099 -0.0702 -0.0998
 5509TIP3    H137942   0.385   1.042   3.499  0.9644  1.3701 -0.0034
 5509TIP3    H237943   0.392   1.085   3.644 -0.3066 -2.4225  1.3181
 5510TIP3   OH237944   0.293   1.662   3.331 -0.1478  0.1332  0.5917
 5510TIP3    H137945   0.343   1.626   3.258 -0.6421 -1.0780  0.8131
 5510TIP3    H237946   0.213   1.696   3.291  0.5254  1.4308  0.3232
 5511TIP3   OH237947   6.676   4.956   3.564 -0.6841 -0.3099 -0.5389
 5511TIP3    H137948   6.661   5.009   3.643  2.4656  1.1274 -0.7776
 5511TIP3    H237949   6.672   4.866   3.595  0.0961  0.2153  1.2109
 5512TIP3   OH237950   2.798   5.157  12.020 -0.0845 -0.3098 -0.0307
 5512TIP3    H137951   2.882   5.115  11.999 -0.9020 -1.8439 -0.4483
 5512TIP3    H237952   2.799   5.165  12.115  0.3291 -0.8055  0.0161
 5513TIP3   OH237953   3.233   5.720  13.600 -0.4060 -0.0409 -0.2078
 5513TIP3    H137954   3.251   5.726  13.506 -0.2393 -0.0218 -0.1754
 5513TIP3    H237955   3.250   5.629  13.623  1.1111  0.2888  0.1091
 5514TIP3   OH237956   3.582   5.896  16.586 -0.3854  0.8422 -0.5377
 5514TIP3    H137957   3.657   5.864  16.637 -0.8440 -0.9095 -0.9202
 5514TIP3    H237958   3.622   5.949  16.517  0.4973  0.0368 -0.6576
 5515TIP3   OH237959   0.323   4.067  16.864 -0.5879  0.5880  0.1797
 5515TIP3    H137960   0.231   4.093  16.871 -0.3012  1.5377  0.5724
 5515TIP3    H237961   0.357   4.075  16.953 -0.3475 -0.6835  0.2272
 5516TIP3   OH237962   2.595   0.376   1.906 -0.2318  0.2569 -0.1357
 5516TIP3    H137963   2.508   0.412   1.889  0.0559 -0.5172 -4.2127
 5516TIP3    H237964   2.654   0.428   1.851  1.0935 -2.2479 -1.2374
 5517TIP3   OH237965   1.359   1.161   4.864 -0.3506 -0.7704  0.0283
 5517TIP3    H137966   1.355   1.256   4.876  1.8872  0.0512 -4.1556
 5517TIP3    H237967   1.267   1.134   4.859 -1.0738  0.8281  2.6570
 5518TIP3   OH237968   3.791   5.954  14.401 -0.0894 -0.5521 -0.1119
 5518TIP3    H137969   3.808   6.044  14.426  0.9899 -0.0151 -2.4772
 5518TIP3    H237970   3.860   5.903  14.444  1.2125  0.2237 -1.1865
 5519TIP3   OH237971   2.880   2.303   3.521 -0.0378  0.5672 -0.1777
 5519TIP3    H137972   2.968   2.325   3.553  0.0849 -0.0558 -0.0731
 5519TIP3    H237973   2.889   2.213   3.488 -0.7120  0.3894  0.1145
 5520TIP3   OH237974   1.223   4.673   5.071  0.3244 -0.4488  0.2721
 5520TIP3    H137975   1.213   4.627   5.154  0.3541  0.0718  0.5691
 5520TIP3    H237976   1.244   4.604   5.008 -3.0955 -1.3843 -0.0257
 5521TIP3   OH237977   0.706   2.445   5.727 -0.6756  0.0889 -0.3769
 5521TIP3    H137978   0.765   2.377   5.695 -0.7392  0.4723 -1.3504
 5521TIP3    H237979   0.619   2.416   5.699 -0.8337  0.0220  0.1781
 5522TIP3   OH237980   6.629   3.659  11.016 -0.5367 -0.2454  0.5452
 5522TIP3    H137981   6.563   3.684  10.951 -1.5064  0.5021  1.7725
 5522TIP3    H237982   6.676   3.586  10.976  0.7431  1.8587 -2.1788
 5523TIP3   OH237983   0.240   3.638  11.762  0.2935 -0.5689  0.0973
 5523TIP3    H137984   0.265   3.707  11.824 -1.2563  0.4662 -0.3715
 5523TIP3    H237985   0.321   3.620  11.713  0.4659  1.9058 -0.6831
 5524TIP3   OH237986   1.585   3.433  11.812  0.5213  0.5663  0.2745
 5524TIP3    H137987   1.548   3.384  11.885 -4.0263  0.6224 -1.6931
 5524TIP3    H237988   1.615   3.366  11.751 -1.8888  0.2460 -0.6267
 5525TIP3   OH237989   5.482   0.876   0.867 -0.0448 -0.0145 -0.3090
 5525TIP3    H137990   5.556   0.818   0.882  1.3680  2.1588  1.9288
 5525TIP3    H237991   5.421   0.855   0.937 -1.1317 -1.0524 -1.5122
 5526TIP3   OH237992   4.673   6.420   2.826  0.2163  0.0470 -0.0132
 5526TIP3    H137993   4.694   6.332   2.796 -0.7647  0.2545 -1.3798
 5526TIP3    H237994   4.578   6.428   2.815  0.4111  1.6128 -0.8791
 5527TIP3   OH237995   2.583   2.388  16.697  0.7949  0.4648  0.1861
 5527TIP3    H137996   2.632   2.458  16.653  2.3483 -1.6737 -1.7891
 5527TIP3    H237997   2.646   2.348  16.757 -0.0851  0.7385  1.3301
 5528TIP3   OH237998   2.116   3.666  13.592  0.3707 -0.2452 -0.6280
 5528TIP3    H137999   2.184   3.600  13.605 -0.0206 -0.4634  0.3597
 5528TIP3    H238000   2.090   3.693  13.680  1.9964  2.7984 -0.9462
 5529TIP3   OH238001   1.961   1.913  12.638 -0.3781  0.6242  0.1011
 5529TIP3    H138002   2.029   1.951  12.694  0.2096  0.8009 -0.7078
 5529TIP3    H238003   1.958   1.821  12.662  0.3122  0.5680 -0.0086
 5530TIP3   OH238004   6.165   4.624   4.216 -0.0583  0.7550  0.9337
 5530TIP3    H138005   6.095   4.622   4.152  0.3776  0.9937  0.4426
 5530TIP3    H238006   6.150   4.548   4.272  0.3968 -0.3124 -0.3454
 5531TIP3   OH238007   3.109   1.551   4.615 -0.2101 -0.2319  0.6225
 5531TIP3    H138008   3.181   1.571   4.675 -0.2315 -1.1527  0.9654
 5531TIP3    H238009   3.080   1.463   4.640 -0.5631 -0.4184 -0.3976
 5532TIP3   OH238010   2.381   6.447   2.857 -0.1237 -0.4313 -0.2567
 5532TIP3    H138011   2.476   6.459   2.863 -0.2384  1.5339 -1.4836
 5532TIP3    H238012   2.357   6.486   2.773 -2.3116  1.4347  1.1176
 5533TIP3   OH238013   2.063   6.617  13.765  0.1245 -0.1337 -0.0608
 5533TIP3    H138014   2.064   6.529  13.804 -0.0554  0.0253  0.3111
 5533TIP3    H238015   2.040   6.675  13.838 -0.8214  0.1024 -0.5256
 5534TIP3   OH238016   0.361   4.077  13.968  0.7505  0.0146  0.1033
 5534TIP3    H138017   0.276   4.122  13.964  0.2438 -0.8901  0.2749
 5534TIP3    H238018   0.426   4.147  13.967 -0.0371  0.7824  1.1983
 5535TIP3   OH238019   0.488   0.978   3.905 -0.0764 -0.9509  0.5841
 5535TIP3    H138020   0.560   0.938   3.857  0.7279  0.0972  0.9106
 5535TIP3    H238021   0.455   1.046   3.847  1.5147  0.9765  1.8201
 5536TIP3   OH238022   4.780   1.281   3.372  0.2687 -0.8345 -0.0552
 5536TIP3    H138023   4.847   1.342   3.405  0.1035 -1.3398  1.3062
 5536TIP3    H238024   4.821   1.195   3.377  0.4294 -0.8875 -1.7871
 5537TIP3   OH238025   2.251   2.975   1.036 -0.4778 -0.4563  0.2947
 5537TIP3    H138026   2.334   2.948   0.998  0.2258  1.3688  0.4131
 5537TIP3    H238027   2.191   2.978   0.962 -0.1319 -0.6647  0.0006
 5538TIP3   OH238028   6.511   3.313   0.170 -0.4921 -0.2223 -0.6609
 5538TIP3    H138029   6.441   3.248   0.167 -0.2424 -0.4701 -1.2453
 5538TIP3    H238030   6.492   3.373   0.098 -1.1867  0.8539  0.3776
 5539TIP3   OH238031   0.912   6.412  12.354  0.3688  0.9578 -0.9758
 5539TIP3    H138032   0.866   6.328  12.351  0.2093  1.0238 -0.5221
 5539TIP3    H238033   0.943   6.426  12.265 -0.4571  0.8812 -1.2844
 5540TIP3   OH238034   0.444   0.487  14.650  0.2304 -0.3495  0.3788
 5540TIP3    H138035   0.406   0.505  14.565  2.2728 -0.8864 -0.7161
 5540TIP3    H238036   0.371   0.494  14.712 -1.3912 -0.4439 -1.4524
 5541TIP3   OH238037   2.938   3.147   1.961  0.1290  0.4541 -0.3114
 5541TIP3    H138038   3.005   3.121   1.897  0.0577 -1.6914  0.4052
 5541TIP3    H238039   2.856   3.139   1.913  0.2195  0.8778 -0.5413
 5542TIP3   OH238040   3.585   6.232   4.059  0.3052 -0.2558  0.1568
 5542TIP3    H138041   3.589   6.138   4.043 -0.1451 -0.2033 -0.2800
 5542TIP3    H238042   3.538   6.240   4.142 -2.5571 -0.3141 -1.3425
 5543TIP3   OH238043   3.807   1.464   4.406 -0.3153 -0.3193 -0.3093
 5543TIP3    H138044   3.850   1.549   4.408 -0.2313 -0.3685  0.0794
 5543TIP3    H238045   3.718   1.483   4.375  0.0823 -0.2655 -1.4397
 5544TIP3   OH238046   5.837   4.189   2.556 -0.2016  0.1701  0.5409
 5544TIP3    H138047   5.782   4.124   2.601  1.8051 -1.5893  0.5997
 5544TIP3    H238048   5.826   4.269   2.608 -0.8373 -0.7795  1.9495
 5545TIP3   OH238049   0.322   2.472   5.510  0.4205 -0.2434  0.7880
 5545TIP3    H138050   0.330   2.534   5.583  0.6795  1.1137 -0.3415
 5545TIP3    H238051   0.362   2.391   5.543 -0.1073  0.1003  2.3847
 5546TIP3   OH238052   1.219   4.317  12.259  0.2717  0.8983 -0.2695
 5546TIP3    H138053   1.256   4.245  12.208  0.7646  0.1286  1.1268
 5546TIP3    H238054   1.253   4.396  12.218  0.4963  0.3077 -1.2406
 5547TIP3   OH238055   3.673   5.681   0.274  0.3039 -0.2378  0.0903
 5547TIP3    H138056   3.756   5.654   0.313 -0.2495 -2.4628 -0.1550
 5547TIP3    H238057   3.611   5.682   0.348  0.0656 -0.8478 -0.0938
 5548TIP3   OH238058   0.877   0.184   1.387 -0.1045  0.4966  0.2795
 5548TIP3    H138059   0.800   0.177   1.331 -0.2357  2.2718  0.1855
 5548TIP3    H238060   0.946   0.215   1.328  0.4733 -0.2841  0.5362
 5549TIP3   OH238061   4.720   5.241   5.238  0.7342 -0.1096  0.0875
 5549TIP3    H138062   4.701   5.245   5.144  0.8950  0.5644  0.0743
 5549TIP3    H238063   4.813   5.220   5.243  0.3159 -2.1404  0.1365
 5550TIP3   OH238064   6.468   6.175   6.315 -0.2435  0.0143 -0.0675
 5550TIP3    H138065   6.509   6.168   6.402  1.7884  0.2375 -0.9453
 5550TIP3    H238066   6.450   6.084   6.291  0.5849 -0.1744 -0.0171
 5551TIP3   OH238067   6.062   3.586  15.021 -0.6026 -0.3729  0.1576
 5551TIP3    H138068   6.015   3.615  14.943  1.2050  0.1219 -0.7760
 5551TIP3    H238069   6.044   3.654  15.086  0.0704  0.6228 -0.6733
 5552TIP3   OH238070   5.241   3.353  11.630 -0.0722  0.3368  0.4624
 5552TIP3    H138071   5.266   3.265  11.659  1.0667  0.3838 -0.3293
 5552TIP3    H238072   5.149   3.344  11.603 -0.6719 -0.0742  2.4765
 5553TIP3   OH238073   4.735   3.663   3.914 -0.2810  0.0549  0.1100
 5553TIP3    H138074   4.671   3.708   3.970 -0.5163  1.0739 -0.9262
 5553TIP3    H238075   4.817   3.667   3.962 -0.7933 -0.4422  1.0488
 5554TIP3   OH238076   2.612   6.732  13.266 -0.6492 -0.2263  0.3017
 5554TIP3    H138077   2.693   6.682  13.270 -1.5185 -1.9323 -1.7125
 5554TIP3    H238078   2.636   6.818  13.301  2.7973  0.2949 -2.7057
 5555TIP3   OH238079   2.308   3.146  11.225  0.0848  0.4521 -0.1156
 5555TIP3    H138080   2.239   3.189  11.174 -2.0992 -0.5247  1.8087
 5555TIP3    H238081   2.260   3.097  11.292  2.5807 -2.2821 -0.1601
 5556TIP3   OH238082   6.410   1.380  13.702  0.7415 -0.8837 -0.1444
 5556TIP3    H138083   6.321   1.346  13.700  0.3484  0.0169  0.9502
 5556TIP3    H238084   6.464   1.305  13.725  0.2911 -1.4690 -0.9514
 5557TIP3   OH238085   1.880   0.568   1.604 -0.0499  0.0743  0.1818
 5557TIP3    H138086   1.810   0.518   1.646  1.2967 -0.9165  1.3398
 5557TIP3    H238087   1.870   0.657   1.639 -0.7476 -0.0393  0.2850
 5558TIP3   OH238088   2.131   2.272   0.950  0.0571 -0.5372 -0.5323
 5558TIP3    H138089   2.206   2.255   0.894 -0.1672  0.3764 -1.1201
 5558TIP3    H238090   2.075   2.331   0.900  0.0419  0.6333  0.7823
 5559TIP3   OH238091   0.798   6.099  16.361 -0.1070  0.3161 -0.2008
 5559TIP3    H138092   0.781   6.011  16.328 -1.3401  0.3627  0.2362
 5559TIP3    H238093   0.850   6.141  16.292  0.0579 -0.5877 -0.6360
 5560TIP3   OH238094   4.595   2.277  10.175 -0.2262 -0.0823 -0.0283
 5560TIP3    H138095   4.654   2.213  10.217  0.3275  0.8285  0.6229
 5560TIP3    H238096   4.653   2.328  10.118 -0.6275 -0.0090 -0.3718
 5561TIP3   OH238097   6.229   0.012  15.320 -0.4056 -0.2074  0.3653
 5561TIP3    H138098   6.149   0.005  15.269 -0.0985 -1.1865 -0.0105
 5561TIP3    H238099   6.232  -0.070  15.370 -1.1477  1.0654  2.6453
 5562TIP3   OH238100   3.301   3.146  12.847 -0.1913 -0.6363  0.2819
 5562TIP3    H138101   3.303   3.095  12.927  0.7023 -1.6025 -0.3331
 5562TIP3    H238102   3.392   3.173  12.833 -0.3701 -0.3015 -0.2860
 5563TIP3   OH238103   6.617   3.342  13.270 -0.1066  0.4223 -0.1550
 5563TIP3    H138104   6.559   3.323  13.196  1.7896 -1.2293 -1.3178
 5563TIP3    H238105   6.690   3.391  13.231 -0.5367  2.2896  1.2393
 5564TIP3   OH238106   3.025   5.860  11.199  0.0200 -0.3873 -0.4964
 5564TIP3    H138107   3.013   5.816  11.114 -0.6723 -0.5163 -0.3449
 5564TIP3    H238108   3.020   5.953  11.179  0.2214 -0.4080 -0.6469
 5565TIP3   OH238109   1.286   4.677  15.614  0.6743  0.2067  0.7363
 5565TIP3    H138110   1.319   4.626  15.540  1.8497  2.3415 -0.3362
 5565TIP3    H238111   1.253   4.758  15.574 -1.2133  0.2947  2.3307
 5566TIP3   OH238112   2.055   5.474  15.796 -0.6833  0.0113  0.6701
 5566TIP3    H138113   2.139   5.481  15.841  0.5076  1.2830 -1.6281
 5566TIP3    H238114   1.991   5.471  15.868  1.2044  0.2161  2.4711
 5567TIP3   OH238115   2.356   4.211  16.102  0.0428  0.0752 -0.4931
 5567TIP3    H138116   2.363   4.116  16.087  0.3864 -0.1026  0.7187
 5567TIP3    H238117   2.443   4.237  16.130 -0.1223  0.7128 -0.5661
 5568TIP3   OH238118   3.225   5.467  15.658  0.1169 -0.0107 -0.3602
 5568TIP3    H138119   3.198   5.393  15.713 -0.2499  0.6900  0.4248
 5568TIP3    H238120   3.211   5.544  15.713  1.1967  0.5936 -0.8978
 5569TIP3   OH238121   5.162   3.054  14.735 -0.1063 -0.9480 -0.3085
 5569TIP3    H138122   5.210   2.986  14.782  2.4919  0.8698 -0.1280
 5569TIP3    H238123   5.070   3.041  14.760  0.8190 -1.7185  3.1393
 5570TIP3   OH238124   5.584   3.712   4.832 -0.2143 -0.0313  0.3739
 5570TIP3    H138125   5.674   3.743   4.829 -0.5832  1.0115 -1.6568
 5570TIP3    H238126   5.537   3.778   4.881 -0.0793  0.0221  0.4306
 5571TIP3   OH238127   1.142   2.020  11.307  0.1547 -0.7731 -0.4484
 5571TIP3    H138128   1.234   1.996  11.297  0.2849  0.3608 -2.4239
 5571TIP3    H238129   1.129   2.094  11.247 -1.7803 -0.1613  0.6097
 5572TIP3   OH238130   5.234   3.573   1.691  0.3557 -0.2604 -0.0413
 5572TIP3    H138131   5.139   3.563   1.704  0.0716 -1.0189 -2.2914
 5572TIP3    H238132   5.273   3.510   1.752 -0.5383  0.3698  1.2262
 5573TIP3   OH238133   4.537   3.849  13.058  0.2127 -0.3573 -0.0222
 5573TIP3    H138134   4.511   3.889  12.975 -1.6291 -2.9263 -0.8224
 5573TIP3    H238135   4.498   3.905  13.125 -0.0614  0.6247 -0.9745
 5574TIP3   OH238136   0.448   5.185  12.097  0.2434 -0.0186  0.3588
 5574TIP3    H138137   0.410   5.190  12.184  0.7190  0.8563  0.5292
 5574TIP3    H238138   0.531   5.233  12.104  0.1003  0.4076 -0.6733
 5575TIP3   OH238139   2.929   2.653   1.379 -0.8631  0.4628 -0.1485
 5575TIP3    H138140   2.845   2.659   1.423 -1.5268  0.7612 -1.3983
 5575TIP3    H238141   2.908   2.666   1.286  0.4729 -0.1000 -0.5534
 5576TIP3   OH238142   3.276   0.408  13.184  0.2295 -0.3251  0.4744
 5576TIP3    H138143   3.360   0.447  13.161  0.6121 -1.1241  0.4578
 5576TIP3    H238144   3.254   0.352  13.109 -0.7677  0.5707  0.0856
 5577TIP3   OH238145   4.828   5.147  15.164  0.4331  0.2138 -0.6680
 5577TIP3    H138146   4.785   5.135  15.248 -0.3128  2.1819 -0.7071
 5577TIP3    H238147   4.766   5.199  15.112  1.8789  1.1722 -1.5337
 5578TIP3   OH238148   3.443   2.461   0.823 -1.0617 -0.2297  0.2788
 5578TIP3    H138149   3.457   2.448   0.916 -0.5593  0.9625  0.3913
 5578TIP3    H238150   3.436   2.372   0.787 -1.1434 -0.7033  1.4192
 5579TIP3   OH238151   1.933   4.731  17.091  0.3802 -0.4105 -0.0110
 5579TIP3    H138152   2.019   4.723  17.132 -0.5203 -0.4354  2.0084
 5579TIP3    H238153   1.941   4.806  17.033  1.7521 -0.3732  0.1954
 5580TIP3   OH238154   1.128   1.686  14.895 -0.0005  0.7289  0.2821
 5580TIP3    H138155   1.062   1.699  14.828 -1.1885  0.9682  1.4668
 5580TIP3    H238156   1.092   1.727  14.973  0.9334 -0.3356  1.3153
 5581TIP3   OH238157   3.284   6.278   3.675 -0.4860  0.3114 -0.2288
 5581TIP3    H138158   3.375   6.266   3.705 -0.9740 -1.2407  0.7682
 5581TIP3    H238159   3.234   6.291   3.756 -1.4871 -1.4156 -0.5186
 5582TIP3   OH238160   6.680   1.499  12.206 -0.4512  0.1786  0.3196
 5582TIP3    H138161   6.624   1.577  12.207 -2.0335 -0.9003  0.3545
 5582TIP3    H238162   6.648   1.446  12.280  0.0069 -0.8913 -0.2254
 5583TIP3   OH238163   6.302   1.400  12.438 -0.1048 -0.0515 -0.4648
 5583TIP3    H138164   6.294   1.495  12.444  0.9180 -0.0276  1.4091
 5583TIP3    H238165   6.335   1.383  12.350  0.7087  1.4189 -0.4708
 5584TIP3   OH238166   2.392   2.094  11.607 -0.0624  0.5204 -0.5321
 5584TIP3    H138167   2.355   2.053  11.529  0.4816  1.1981 -1.1664
 5584TIP3    H238168   2.446   2.026  11.647 -0.7343  0.0165 -0.4613
 5585TIP3   OH238169   3.231   4.785   6.014  0.1220  0.2106 -0.2626
 5585TIP3    H138170   3.312   4.751   6.054  0.8641  0.5874 -1.3836
 5585TIP3    H238171   3.197   4.847   6.078  1.0951  0.5351 -0.0313
 5586TIP3   OH238172   1.774   2.204  13.600 -0.1245 -0.2117 -0.6661
 5586TIP3    H138173   1.777   2.256  13.519 -0.6787  0.1286 -0.4703
 5586TIP3    H238174   1.700   2.240  13.649 -0.4632 -1.1330 -0.4852
 5587TIP3   OH238175   2.216   0.311   1.357  0.8022 -0.0571 -0.1018
 5587TIP3    H138176   2.161   0.389   1.362 -1.5755 -1.6103 -0.3480
 5587TIP3    H238177   2.272   0.326   1.281 -0.2196  1.0527 -0.6777
 5588TIP3   OH238178   4.491   0.771   2.016 -0.2849  0.5054 -0.2698
 5588TIP3    H138179   4.461   0.808   2.099 -0.1428 -0.1181  0.0617
 5588TIP3    H238180   4.539   0.692   2.040  2.1145  1.7424 -0.7331
 5589TIP3   OH238181   0.518   4.458   6.256  0.8717 -0.1921 -0.2637
 5589TIP3    H138182   0.575   4.506   6.195 -0.9027  0.3080 -1.6089
 5589TIP3    H238183   0.435   4.506   6.255  0.6659 -0.3423  2.3749
 5590TIP3   OH238184   6.359   3.410  10.657 -0.0447 -0.0645 -0.6445
 5590TIP3    H138185   6.306   3.336  10.630 -2.5730  1.4011 -0.0237
 5590TIP3    H238186   6.441   3.372  10.686 -1.7407 -2.7711  0.9816
 5591TIP3   OH238187   4.488   4.782  14.126  0.5529  0.1741 -0.3054
 5591TIP3    H138188   4.521   4.701  14.087 -0.8723 -0.5234 -0.1276
 5591TIP3    H238189   4.482   4.843  14.052  0.9344 -0.1087 -0.5765
 5592TIP3   OH238190   0.158   3.741  14.278  0.4983 -0.2429  0.4963
 5592TIP3    H138191   0.243   3.771  14.246  0.4858 -0.7340 -0.0346
 5592TIP3    H238192   0.096   3.766  14.209 -0.2358  2.3216  1.9427
 5593TIP3   OH238193   3.441   4.655   4.824  0.1405 -0.3212 -0.2809
 5593TIP3    H138194   3.456   4.584   4.887  0.8889  0.2435  0.2005
 5593TIP3    H238195   3.357   4.692   4.850  0.2409 -0.3662  0.1206
 5594TIP3   OH238196   4.930   6.265  13.259  0.2467 -0.6833  0.2391
 5594TIP3    H138197   4.944   6.178  13.223 -1.3646 -1.1323  0.6114
 5594TIP3    H238198   5.016   6.308  13.253  0.7958 -1.8830 -0.9991
 5595TIP3   OH238199   0.359   5.065  13.835  0.3551  0.0072 -0.0882
 5595TIP3    H138200   0.341   5.134  13.899 -0.2875  1.2008 -1.5037
 5595TIP3    H238201   0.279   5.060  13.782  0.6276 -1.4082 -0.3922
 5596TIP3   OH238202   5.882   3.481  15.232 -0.3070 -0.3822  0.1480
 5596TIP3    H138203   5.798   3.434  15.235 -0.1218 -0.8604 -1.1591
 5596TIP3    H238204   5.862   3.562  15.185 -0.3922  0.3640  1.4296
 5597TIP3   OH238205   6.601   4.343  16.958 -0.5871 -0.6403 -0.4770
 5597TIP3    H138206   6.575   4.434  16.971 -2.0668 -1.0415 -0.5037
 5597TIP3    H238207   6.642   4.342  16.871  1.2381  0.3469  0.3303
 5598TIP3   OH238208   1.289   1.112   1.188  0.4630  0.6198  0.0548
 5598TIP3    H138209   1.271   1.175   1.258 -1.5898  0.8807 -0.6310
 5598TIP3    H238210   1.300   1.166   1.109 -1.6759  0.2105 -0.6109
 5599TIP3   OH238211   3.141   2.492  13.070 -0.2426  0.2565  0.1029
 5599TIP3    H138212   3.234   2.511  13.076 -0.6054  1.8379  2.8333
 5599TIP3    H238213   3.131   2.405  13.109  0.1363 -0.2180 -0.8356
 5600TIP3   OH238214   0.396   1.398   0.380 -0.4409 -0.2656 -0.1533
 5600TIP3    H138215   0.481   1.406   0.336 -0.3685 -2.4796 -0.5106
 5600TIP3    H238216   0.357   1.485   0.372  1.6464  0.7154 -0.2716
 5601TIP3   OH238217   3.799   1.751   4.669  0.6552 -0.2568 -0.5263
 5601TIP3    H138218   3.713   1.720   4.699  0.5772 -0.5046 -1.0056
 5601TIP3    H238219   3.785   1.776   4.577  1.2012 -0.7017 -0.7323
 5602TIP3   OH238220   5.841   6.487  14.643  0.3679 -0.1772 -0.1522
 5602TIP3    H138221   5.901   6.532  14.584 -0.6380  0.8210 -0.4562
 5602TIP3    H238222   5.868   6.515  14.731  0.6599 -0.1451 -0.2506
 5603TIP3   OH238223   1.485   1.678  15.196 -0.1140  0.4925 -0.4108
 5603TIP3    H138224   1.459   1.638  15.113 -1.1571  0.1382  0.0616
 5603TIP3    H238225   1.437   1.761  15.198  0.1739  0.6578 -0.3131
 5604TIP3   OH238226   5.052   5.891  12.121  0.0632 -0.0872 -0.3032
 5604TIP3    H138227   4.991   5.859  12.054 -0.2749  2.4849 -1.3327
 5604TIP3    H238228   5.139   5.876  12.083 -0.0983  0.4746 -0.9155
 5605TIP3   OH238229   6.153   0.292   5.660  0.4025 -0.1663  0.3544
 5605TIP3    H138230   6.181   0.273   5.571  1.0338  0.1402  0.4790
 5605TIP3    H238231   6.140   0.387   5.661  0.9995 -0.0821  0.7464
 5606TIP3   OH238232   4.922   1.861   5.072 -0.1178 -0.4465 -0.5136
 5606TIP3    H138233   4.859   1.888   5.139  2.3476  1.5106  1.1858
 5606TIP3    H238234   4.872   1.864   4.990 -2.2510  0.8807  0.7195
 5607TIP3   OH238235   0.905   6.414   5.087 -0.0971 -0.2903 -0.2805
 5607TIP3    H138236   0.849   6.337   5.094 -1.3486  0.6204  0.1490
 5607TIP3    H238237   0.933   6.415   4.995  0.6932 -1.7418 -0.0746
 5608TIP3   OH238238   1.661   3.783   0.040 -0.7894 -0.1856 -0.2201
 5608TIP3    H138239   1.640   3.719   0.109  1.3288  0.1157  0.7965
 5608TIP3    H238240   1.646   3.868   0.082  1.6420  0.0254  0.3539
 5609TIP3   OH238241   4.974   6.444  16.995  0.0615  0.2078 -0.3482
 5609TIP3    H138242   4.905   6.394  17.039  0.1219  0.8993  0.5595
 5609TIP3    H238243   5.018   6.380  16.938 -0.9473 -0.3707 -0.5003
 5610TIP3   OH238244   0.349   5.146   0.487 -0.4977  0.0571 -0.8274
 5610TIP3    H138245   0.295   5.219   0.518  1.3434  1.7219 -1.3467
 5610TIP3    H238246   0.372   5.097   0.566  0.9485  1.9931  0.0152
 5611TIP3   OH238247   1.069   3.678   1.681  0.5326 -0.1625 -0.7136
 5611TIP3    H138248   1.147   3.623   1.692 -0.7220 -2.0052 -0.4269
 5611TIP3    H238249   1.042   3.663   1.591 -0.4577 -0.9462 -0.3049
 5612TIP3   OH238250   5.572   1.490   3.848  0.2891 -0.1018 -0.4437
 5612TIP3    H138251   5.613   1.564   3.803  0.3220  0.3372  0.2918
 5612TIP3    H238252   5.560   1.520   3.938 -1.7387 -0.1730 -0.6436
 5613TIP3   OH238253   3.457   4.498   0.036 -0.1172  0.3595 -0.1636
 5613TIP3    H138254   3.398   4.569   0.012  1.1813  0.9452 -1.9482
 5613TIP3    H238255   3.455   4.495   0.131  1.0136  3.9748  0.1315
 5614TIP3   OH238256   5.748   0.341  14.516 -0.1996 -0.5223  0.1767
 5614TIP3    H138257   5.773   0.364  14.427 -0.3486 -0.9946  0.0097
 5614TIP3    H238258   5.787   0.255  14.530 -0.1200 -0.4209  0.5925
 5615TIP3   OH238259   2.802   1.307   4.238  0.0779 -0.1915 -0.2675
 5615TIP3    H138260   2.751   1.260   4.303 -0.4567 -0.2214 -0.7007
 5615TIP3    H238261   2.850   1.238   4.191  0.5786 -0.1575  0.1831
 5616TIP3   OH238262   6.211   4.688  15.098 -0.3889 -0.1724 -0.4753
 5616TIP3    H138263   6.174   4.715  15.182 -0.4436  0.1476 -0.6003
 5616TIP3    H238264   6.175   4.750  15.035 -0.5560 -0.5703 -0.7764
 5617TIP3   OH238265   2.026   4.295   6.346  0.1951 -0.1000 -0.0923
 5617TIP3    H138266   2.067   4.279   6.431  1.7833  1.1487 -0.5722
 5617TIP3    H238267   2.059   4.224   6.290  0.9425  0.3521 -0.2288
 5618TIP3   OH238268   3.432   3.806  13.041 -0.1236  0.3162 -0.7653
 5618TIP3    H138269   3.501   3.806  13.107 -0.6939  2.0367 -0.1068
 5618TIP3    H238270   3.351   3.822  13.090 -1.1525 -2.3472 -1.4283
 5619TIP3   OH238271   6.211   2.503   4.888  0.4660  0.1912  0.3787
 5619TIP3    H138272   6.261   2.584   4.894  0.5033  0.2365 -0.5128
 5619TIP3    H238273   6.269   2.442   4.843  1.3109 -1.0397  2.9103
 5620TIP3   OH238274   5.603   5.524   4.623 -0.5872  0.2851 -0.3335
 5620TIP3    H138275   5.511   5.549   4.621 -1.1757 -1.7599 -0.7562
 5620TIP3    H238276   5.631   5.547   4.712 -1.8473 -0.1954  0.2168
 5621TIP3   OH238277   0.713   2.608   2.916 -0.2404  0.1927 -0.0168
 5621TIP3    H138278   0.733   2.572   2.830 -0.3084 -0.7227  0.3366
 5621TIP3    H238279   0.627   2.573   2.938 -0.5566  1.0238  0.1160
 5622TIP3   OH238280   6.717   6.740   1.772  0.3373 -0.0833  0.0430
 5622TIP3    H138281   6.712   6.740   1.676  2.6121 -1.9464 -0.1505
 5622TIP3    H238282   6.808   6.719   1.792 -0.3875 -1.1776  2.6288
 5623TIP3   OH238283   3.023   2.553   2.893 -0.0363  0.3155  0.4729
 5623TIP3    H138284   3.048   2.519   2.979 -2.6828  0.6153  1.4464
 5623TIP3    H238285   3.063   2.640   2.890  0.3813  0.1643  1.2436
 5624TIP3   OH238286   3.018   6.648  12.819 -0.1306  0.2849 -0.0052
 5624TIP3    H138287   3.057   6.591  12.753 -1.3097 -0.6622  0.0815
 5624TIP3    H238288   2.926   6.624  12.820 -0.3958  1.2649  1.0043
 5625TIP3   OH238289   6.387   6.803   4.754  0.3778  1.1630  0.0738
 5625TIP3    H138290   6.434   6.879   4.719 -0.9258  2.4742  1.0562
 5625TIP3    H238291   6.455   6.750   4.795  1.0904  2.9072  1.2772
 5626TIP3   OH238292   4.887   1.170  15.418  0.2052  0.1383  0.1450
 5626TIP3    H138293   4.955   1.219  15.371 -0.5925  0.4589 -0.7095
 5626TIP3    H238294   4.833   1.132  15.349  0.1108 -0.9759  0.8114
 5627TIP3   OH238295   2.702   5.094  14.238 -0.2110 -0.0149 -1.0618
 5627TIP3    H138296   2.784   5.104  14.286 -1.0450 -0.6125  0.5608
 5627TIP3    H238297   2.664   5.182  14.236  0.2071  0.1650 -1.3820
 5628TIP3   OH238298   6.404   0.280  13.395  0.2699  0.4098 -0.3187
 5628TIP3    H138299   6.314   0.291  13.424  0.4389  0.0154  0.3814
 5628TIP3    H238300   6.406   0.316  13.306 -0.9804 -1.1580 -1.0200
 5629TIP3   OH238301   4.660   5.192  11.453  0.1647 -0.1153  0.0073
 5629TIP3    H138302   4.666   5.167  11.545 -1.1824  0.1261  0.1853
 5629TIP3    H238303   4.739   5.244  11.437  1.8121 -2.3830  0.2671
 5630TIP3   OH238304   2.005   6.737  17.032  0.3945 -0.1428 -0.2051
 5630TIP3    H138305   2.035   6.694  17.112  0.3790 -3.3483 -1.7392
 5630TIP3    H238306   1.917   6.768  17.052 -0.0309 -1.8375  0.7926
 5631TIP3   OH238307   2.452   4.236  11.717  0.4055 -0.1109  0.1751
 5631TIP3    H138308   2.541   4.269  11.711  1.0322 -1.6765  0.4537
 5631TIP3    H238309   2.421   4.266  11.803  1.3708 -1.1595  0.9201
 5632TIP3   OH238310   2.936   6.801   6.116  0.1517 -0.1280  0.1854
 5632TIP3    H138311   2.999   6.859   6.160  0.0027  0.8066 -0.7703
 5632TIP3    H238312   2.881   6.767   6.186  1.2777 -0.4158  0.9654
 5633TIP3   OH238313   0.101   1.679  15.460  0.5077  0.1889 -0.3787
 5633TIP3    H138314   0.175   1.631  15.497  0.0017 -0.2505  0.0859
 5633TIP3    H238315   0.139   1.760  15.427  0.8211  1.1691  2.1898
 5634TIP3   OH238316   3.631   0.332  12.569 -0.1032  0.6765 -0.2940
 5634TIP3    H138317   3.586   0.383  12.501  2.8862  1.3381 -1.9453
 5634TIP3    H238318   3.721   0.324  12.537  0.0126 -4.4347  0.5567
 5635TIP3   OH238319   5.277   5.420  14.603  0.8321 -0.1304  0.0993
 5635TIP3    H138320   5.254   5.332  14.631 -0.2427  0.1567  0.1528
 5635TIP3    H238321   5.373   5.420  14.598  0.8882 -0.9964  1.0657
 5636TIP3   OH238322   5.282   6.079   4.164 -0.3490 -0.5350 -0.2860
 5636TIP3    H138323   5.291   6.099   4.257  1.5811  0.6281 -0.6541
 5636TIP3    H238324   5.324   5.994   4.154  0.2535 -0.2530 -0.2127
 5637TIP3   OH238325   6.761   0.342  13.466  0.1063 -0.0012  0.1945
 5637TIP3    H138326   6.688   0.291  13.503  0.0961 -2.1916 -2.4875
 5637TIP3    H238327   6.839   0.292  13.490  0.2417 -0.4353 -1.0865
 5638TIP3   OH238328   5.636   0.743  16.284  0.1149 -0.2950 -0.1728
 5638TIP3    H138329   5.557   0.690  16.294 -0.5357  0.2061 -2.1081
 5638TIP3    H238330   5.606   0.820  16.235  1.3636  1.0398  1.0973
 5639TIP3   OH238331   2.061   3.999  11.106 -0.0908  0.1084  0.4218
 5639TIP3    H138332   2.048   4.026  11.016  0.5182 -2.4805 -0.5264
 5639TIP3    H238333   2.124   4.062  11.142 -1.4058  1.9889 -0.4850
 5640TIP3   OH238334   5.540   4.968  14.083 -0.0913 -0.5210 -0.6460
 5640TIP3    H138335   5.506   4.895  14.135 -1.1577  1.1730  1.1850
 5640TIP3    H238336   5.462   5.018  14.059  0.6554  0.3145 -1.4090
 5641TIP3   OH238337   5.302   1.467   5.833  0.0456  0.5200  0.4948
 5641TIP3    H138338   5.243   1.541   5.847  0.1886  0.6646  0.3348
 5641TIP3    H238339   5.356   1.493   5.759 -0.0368  0.1699  0.3109
 5642TIP3   OH238340   0.511   3.002   4.663  0.7506  0.4266  0.5151
 5642TIP3    H138341   0.599   3.038   4.673  1.1881 -0.6680  0.6437
 5642TIP3    H238342   0.501   2.988   4.569  1.2527 -0.7686  0.6308
 5643TIP3   OH238343   0.606   4.940   4.850  0.2698  0.1123  0.1721
 5643TIP3    H138344   0.671   4.890   4.899 -0.5351 -1.9089 -0.7203
 5643TIP3    H238345   0.635   4.935   4.759 -0.8423 -0.3713 -0.1754
 5644TIP3   OH238346   3.234   6.626   3.412  0.4264  0.2287  0.0086
 5644TIP3    H138347   3.213   6.635   3.505 -0.3371  1.7628 -0.2763
 5644TIP3    H238348   3.326   6.652   3.406  0.0490  1.6803  0.1473
 5645TIP3   OH238349   0.955   5.433  12.324 -0.2846 -0.3944 -0.3896
 5645TIP3    H138350   0.881   5.481  12.285 -1.3688  0.8560  2.8411
 5645TIP3    H238351   1.022   5.500  12.337  0.7529 -1.1524 -1.5999
 5646TIP3   OH238352   5.107   1.590   2.581 -0.0269  0.4391 -0.2714
 5646TIP3    H138353   5.061   1.626   2.506 -0.9094  0.0581  0.0793
 5646TIP3    H238354   5.099   1.495   2.573  0.2959  0.3812  0.0384
 5647TIP3   OH238355   1.986   2.845   0.301  0.3309 -0.1430  0.0279
 5647TIP3    H138356   2.000   2.937   0.280 -0.5501 -0.1954 -0.8570
 5647TIP3    H238357   1.995   2.799   0.217 -0.4047 -0.7170  0.2473
 5648TIP3   OH238358   0.546   4.943   2.967 -0.3702 -0.3442  0.1112
 5648TIP3    H138359   0.515   4.876   3.028  0.8580 -0.3268  0.7903
 5648TIP3    H238360   0.532   5.026   3.013  2.6719 -0.4444  1.4536
 5649TIP3   OH238361   0.479   0.831   1.018 -0.1164  0.1088  0.0116
 5649TIP3    H138362   0.427   0.911   1.005 -0.8974 -0.5195 -0.7972
 5649TIP3    H238363   0.569   0.863   1.026 -0.2276  0.9902 -1.6902
 5650TIP3   OH238364   4.841   3.524  11.211 -0.7518 -0.4560  0.0551
 5650TIP3    H138365   4.882   3.555  11.130 -0.0442  2.4129  1.3704
 5650TIP3    H238366   4.757   3.489  11.183  0.1873 -1.2237 -2.0834
 5651TIP3   OH238367   6.470   2.432  12.121 -0.2186 -0.2675 -0.5930
 5651TIP3    H138368   6.498   2.342  12.136  0.3342 -0.0484 -0.3010
 5651TIP3    H238369   6.519   2.460  12.044  1.1337  0.4383  0.4870
 5652TIP3   OH238370   5.840   5.464  12.134 -0.0773  0.3762 -0.0835
 5652TIP3    H138371   5.879   5.474  12.047  1.8556  1.0190  0.8122
 5652TIP3    H238372   5.914   5.469  12.195 -1.2819 -0.8479  1.5762
 5653TIP3   OH238373   0.514   0.812   1.300 -0.3949 -0.3788  0.3559
 5653TIP3    H138374   0.463   0.831   1.379  1.2441  1.9826  0.9503
 5653TIP3    H238375   0.454   0.833   1.228 -1.0344  0.0657  0.9965
 5654TIP3   OH238376   2.130   2.707   2.775 -0.6922  0.1583  0.6433
 5654TIP3    H138377   2.067   2.779   2.772 -0.1931  0.6301  1.3958
 5654TIP3    H238378   2.203   2.741   2.826 -0.4574 -0.8837  1.0189
 5655TIP3   OH238379   6.631   2.916   3.385 -0.5018  0.1634 -0.9352
 5655TIP3    H138380   6.596   2.959   3.307  0.6893  0.7102 -1.1961
 5655TIP3    H238381   6.650   2.988   3.446 -0.0541 -0.1295 -0.7208
 5656TIP3   OH238382   0.425   1.774   5.618 -0.3406 -0.0724 -0.0742
 5656TIP3    H138383   0.380   1.721   5.684  0.1626 -0.3202  0.0824
 5656TIP3    H238384   0.445   1.856   5.663 -0.4626 -0.0394 -0.0811
 5657TIP3   OH238385   2.653   2.393  13.866 -0.1688  0.1409 -0.1948
 5657TIP3    H138386   2.680   2.401  13.957 -2.2350  1.7473  0.3191
 5657TIP3    H238387   2.685   2.473  13.824  0.3690 -0.3770 -0.7959
 5658TIP3   OH238388   5.236   5.086   3.531  0.0109 -0.5077  0.3065
 5658TIP3    H138389   5.256   4.995   3.507  0.9537  0.0376 -1.1094
 5658TIP3    H238390   5.169   5.113   3.468  1.3945  0.4710 -0.7829
 5659TIP3   OH238391   3.630   5.306  16.219  0.5536 -0.7546 -0.1107
 5659TIP3    H138392   3.575   5.305  16.141  1.1601 -1.3518 -0.5449
 5659TIP3    H238393   3.593   5.375  16.274 -2.2142 -2.8063  0.7956
 5660TIP3   OH238394   0.206   1.471   3.941  0.0352 -0.0554  0.4667
 5660TIP3    H138395   0.141   1.401   3.933 -0.9077  0.7641  0.7134
 5660TIP3    H238396   0.190   1.527   3.865  0.0015  0.5152  0.8875
 5661TIP3   OH238397   5.223   4.431  16.607  0.3199 -0.6693 -0.1345
 5661TIP3    H138398   5.203   4.522  16.584  0.9175 -0.1057  1.4044
 5661TIP3    H238399   5.258   4.393  16.526 -0.0167  0.4497 -0.8277
 5662TIP3   OH238400   1.516   2.270   0.897  0.2774 -0.2140  0.2045
 5662TIP3    H138401   1.539   2.353   0.856 -0.0346  0.4685  1.3470
 5662TIP3    H238402   1.428   2.284   0.933 -0.5837 -1.6825 -1.2207
 5663TIP3   OH238403   2.018   5.182  15.724  0.2833 -0.2622  0.0008
 5663TIP3    H138404   2.039   5.266  15.764 -0.0779 -0.3703  0.4209
 5663TIP3    H238405   1.961   5.138  15.787  1.2647 -1.2458  0.2251
 5664TIP3   OH238406   4.693   1.939  12.965  0.3034  0.0370  0.4352
 5664TIP3    H138407   4.610   1.983  12.946 -0.3908 -1.7165 -0.9284
 5664TIP3    H238408   4.676   1.847  12.944  2.2670 -0.5489  1.2426
 5665TIP3   OH238409   6.020   2.741   0.838 -0.2519  0.0678  0.7668
 5665TIP3    H138410   6.030   2.660   0.787 -2.3214  1.3447 -1.9556
 5665TIP3    H238411   5.926   2.758   0.837  0.2046  3.0298  0.3242
 5666TIP3   OH238412   4.523   3.234  11.881 -0.3231 -0.0107  0.6220
 5666TIP3    H138413   4.429   3.249  11.887 -0.4308 -0.6997  0.7224
 5666TIP3    H238414   4.545   3.257  11.790 -0.4131  1.0520  0.8544
 5667TIP3   OH238415   3.075   4.467   2.615  1.1312  0.5066 -0.3254
 5667TIP3    H138416   3.040   4.469   2.526 -0.1293 -0.5411  0.1051
 5667TIP3    H238417   3.169   4.459   2.603  1.0324  0.9223 -1.5633
 5668TIP3   OH238418   0.088   1.954   4.259  0.4081 -0.1789 -0.1287
 5668TIP3    H138419   0.151   1.974   4.189  1.2964 -2.5311 -0.0915
 5668TIP3    H238420   0.136   1.896   4.318 -1.4719 -1.1985  0.4813
 5669TIP3   OH238421   4.564   6.216   3.029  0.2403 -0.0791  0.1519
 5669TIP3    H138422   4.618   6.139   3.045  2.1320  0.2690 -3.4579
 5669TIP3    H238423   4.622   6.290   3.048  0.8245  0.3016 -2.6567
 5670TIP3   OH238424   5.637   0.981   2.663 -0.5253 -0.3858  0.1631
 5670TIP3    H138425   5.575   0.958   2.733  1.1575 -1.2349  1.4588
 5670TIP3    H238426   5.601   1.060   2.623 -2.0398 -0.4336  1.3557
 5671TIP3   OH238427   5.498   3.950  15.524  0.6822  0.3635  0.1048
 5671TIP3    H138428   5.483   3.972  15.615 -1.8760 -0.6786  0.0168
 5671TIP3    H238429   5.438   4.005  15.474 -0.2133 -1.2069 -0.6625
 5672TIP3   OH238430   1.461   2.855  12.123 -0.0433  0.0582 -0.4266
 5672TIP3    H138431   1.545   2.826  12.088 -1.0756 -1.6158 -1.6866
 5672TIP3    H238432   1.396   2.803  12.075 -1.7574  0.7057  1.0795
 5673TIP3   OH238433   0.647   3.210  14.246  0.1620 -0.4903  0.1956
 5673TIP3    H138434   0.559   3.172  14.245  0.2498 -0.6983 -0.8212
 5673TIP3    H238435   0.641   3.286  14.189  0.9288 -1.2373 -0.9417
 5674TIP3   OH238436   6.561   6.378   2.278  0.4620  0.0581 -0.4551
 5674TIP3    H138437   6.484   6.435   2.290 -0.4871 -0.9719 -1.4124
 5674TIP3    H238438   6.632   6.426   2.319  0.0327  2.6701 -2.4373
 5675TIP3   OH238439   6.769   6.238  12.605 -0.1793  0.6298 -0.2284
 5675TIP3    H138440   6.860   6.234  12.575 -0.7269 -2.0556 -1.8537
 5675TIP3    H238441   6.723   6.282  12.534 -0.1595  2.4170  0.7999
 5676TIP3   OH238442   0.385   6.675  12.395  0.5478 -0.4738 -0.1139
 5676TIP3    H138443   0.439   6.720  12.329 -0.7208 -0.2354 -1.0386
 5676TIP3    H238444   0.414   6.584  12.392  2.3963  0.0247  1.0018
 5677TIP3   OH238445   3.717   1.993  14.721 -0.0343 -0.2502  0.7551
 5677TIP3    H138446   3.811   1.994  14.738  0.1486  1.0588 -0.2129
 5677TIP3    H238447   3.685   2.075  14.757 -0.6892 -0.3619  0.4431
 5678TIP3   OH238448   3.281   5.046   4.410 -0.3612  0.8003 -0.0195
 5678TIP3    H138449   3.272   5.003   4.496  0.2201 -0.0560 -0.3664
 5678TIP3    H238450   3.239   4.986   4.349  1.6747 -0.0204 -0.7134
 5679TIP3   OH238451   1.280   5.598  14.825  0.1985  0.5859  0.3530
 5679TIP3    H138452   1.222   5.640  14.761 -1.0468 -1.2775  0.1887
 5679TIP3    H238453   1.366   5.635  14.806 -0.8723  3.6288  0.7450
 5680TIP3   OH238454   3.617   5.511   3.322 -0.3178 -1.0025 -0.1200
 5680TIP3    H138455   3.628   5.445   3.391  1.0843  0.6462  1.3354
 5680TIP3    H238456   3.530   5.548   3.338 -0.8177 -1.9802 -0.5067
 5681TIP3   OH238457   5.945   3.147  16.203 -0.0918  0.2549  0.4074
 5681TIP3    H138458   6.034   3.142  16.168 -0.4033  0.3076 -0.4243
 5681TIP3    H238459   5.911   3.230  16.170  0.0032  0.9050  1.8524
 5682TIP3   OH238460   3.053   1.951   1.289 -0.0287  0.3046  0.3026
 5682TIP3    H138461   3.018   1.870   1.252 -2.0721  1.6869 -1.0143
 5682TIP3    H238462   3.132   1.924   1.335 -0.2768 -2.3300 -0.6318
 5683TIP3   OH238463   5.275   0.143  16.630  0.1342 -0.4019 -0.1085
 5683TIP3    H138464   5.182   0.162  16.630  0.0466 -0.6159 -2.0474
 5683TIP3    H238465   5.317   0.226  16.608  0.6323  0.2272  2.7163
 5684TIP3   OH238466   0.058   6.191  12.164  0.7104 -0.4088  0.5453
 5684TIP3    H138467   0.081   6.244  12.240  1.3246 -2.3560  1.7729
 5684TIP3    H238468   0.141   6.153  12.136  0.0278 -2.2339  0.8987
 5685TIP3   OH238469   1.421   5.849   6.097 -0.0189  0.2863 -0.1751
 5685TIP3    H138470   1.416   5.941   6.070 -0.2946  0.0268 -1.0393
 5685TIP3    H238471   1.331   5.824   6.115  0.0739  0.2238  0.2033
 5686TIP3   OH238472   6.505   4.900  11.116 -0.5170 -0.0090 -0.6398
 5686TIP3    H138473   6.547   4.814  11.123 -0.5594  0.0733  0.9290
 5686TIP3    H238474   6.424   4.891  11.166 -0.6981  0.8343 -0.7670
 5687TIP3   OH238475   5.372   0.144  14.913 -0.4810  0.1438  0.2194
 5687TIP3    H138476   5.316   0.077  14.952 -0.6996 -0.0412 -0.3910
 5687TIP3    H238477   5.323   0.175  14.837  0.3211 -0.1551 -0.4376
 5688TIP3   OH238478   4.875   0.973  15.686 -0.2171  0.2025  0.1239
 5688TIP3    H138479   4.909   1.062  15.680  1.9056 -0.5299  0.4010
 5688TIP3    H238480   4.784   0.980  15.658 -0.4964  2.6660  1.3485
 5689TIP3   OH238481   1.046   4.023  14.487 -0.1663 -0.2598 -0.4822
 5689TIP3    H138482   1.135   4.058  14.474  0.4451 -1.0230  1.2934
 5689TIP3    H238483   0.990   4.078  14.432  1.1931  1.3187 -0.3642
 5690TIP3   OH238484   0.123   6.116   6.446  0.7453 -0.2811 -0.1668
 5690TIP3    H138485   0.143   6.043   6.387 -0.4565  1.9236 -3.6228
 5690TIP3    H238486   0.200   6.173   6.439  0.4943  0.1032  0.2248
 5691TIP3   OH238487   1.131   2.719   1.306  0.6178  0.2521 -0.2355
 5691TIP3    H138488   1.106   2.800   1.351  0.9909  1.3296 -1.8984
 5691TIP3    H238489   1.156   2.746   1.218 -0.5939 -1.8458 -1.3164
 5692TIP3   OH238490   5.666   5.350  15.720 -0.1829 -0.3993  0.3898
 5692TIP3    H138491   5.654   5.288  15.792  1.0810 -1.0352  0.0829
 5692TIP3    H238492   5.740   5.315  15.670 -2.4230 -1.2626 -2.5886
 5693TIP3   OH238493   3.240   3.649   1.092  0.5474  0.3868 -0.2623
 5693TIP3    H138494   3.301   3.677   1.161 -1.0155  0.7358  1.0401
 5693TIP3    H238495   3.233   3.554   1.104 -0.0580  0.5031  0.3735
 5694TIP3   OH238496   5.349   5.466   0.271  0.3027  0.8753 -0.0398
 5694TIP3    H138497   5.262   5.500   0.290  0.3589  2.6623 -2.5081
 5694TIP3    H238498   5.399   5.483   0.352 -1.7343 -0.9823  1.7365
 5695TIP3   OH238499   4.735   3.451  15.401  0.0177 -0.2171 -0.0702
 5695TIP3    H138500   4.742   3.385  15.469  1.4921 -0.1887 -0.1687
 5695TIP3    H238501   4.774   3.410  15.324  0.6380  0.6375 -0.2204
 5696TIP3   OH238502   6.078   0.363  14.838  0.7560 -0.4850 -0.0388
 5696TIP3    H138503   5.984   0.372  14.827  0.8440  0.2757 -0.1951
 5696TIP3    H238504   6.091   0.361  14.933  0.4819 -1.7798 -0.0133
 5697TIP3   OH238505   0.261   3.630  15.284  0.4258 -0.3167  0.1205
 5697TIP3    H138506   0.202   3.557  15.298 -0.2928 -0.2419 -2.0811
 5697TIP3    H238507   0.327   3.597  15.223  0.0292  0.8615 -0.9970
 5698TIP3   OH238508   5.196   5.179   4.814  0.8390  0.3495 -0.0614
 5698TIP3    H138509   5.220   5.119   4.885 -0.0265 -1.6837 -1.3820
 5698TIP3    H238510   5.137   5.242   4.856  0.6670 -0.5446  1.1289
 5699TIP3   OH238511   5.671   0.970  14.229  0.1242 -0.7106 -0.1307
 5699TIP3    H138512   5.726   1.029  14.279  0.6726 -1.3148 -0.0140
 5699TIP3    H238513   5.606   1.027  14.187 -0.5538 -0.2342  1.5066
 5700TIP3   OH238514   2.776   5.602   1.618  0.2654  0.6337 -0.2587
 5700TIP3    H138515   2.758   5.643   1.533  2.4715  0.3122 -0.9306
 5700TIP3    H238516   2.702   5.542   1.631  0.0841  0.3559 -2.1920
 5701TIP3   OH238517   0.636   2.917  13.468 -0.1685  0.3971 -0.1290
 5701TIP3    H138518   0.577   2.957  13.532 -1.6261  0.5323 -1.5046
 5701TIP3    H238519   0.583   2.906  13.389  1.4794 -0.0759 -1.2317
 5702TIP3   OH238520   5.350   4.061   4.219  0.0074  0.2939  0.0019
 5702TIP3    H138521   5.348   4.152   4.246  2.0851 -0.3694  2.8600
 5702TIP3    H238522   5.432   4.052   4.170  0.5245 -0.2881  0.9437
 5703TIP3   OH238523   3.220   3.278   2.699  0.2453 -0.1404 -0.3630
 5703TIP3    H138524   3.127   3.296   2.686 -0.1098 -1.4892  0.1986
 5703TIP3    H238525   3.247   3.233   2.619 -0.7361 -3.8802  1.2137
 5704TIP3   OH238526   1.184   4.122   0.874 -0.8257 -0.1496 -0.3463
 5704TIP3    H138527   1.232   4.165   0.945 -0.7012  0.8296 -1.0025
 5704TIP3    H238528   1.183   4.187   0.803 -1.8168 -0.7257 -0.8791
 5705TIP3   OH238529   2.708   6.805  16.601  0.7410  0.4512 -0.1159
 5705TIP3    H138530   2.735   6.719  16.571  0.8831  0.4230  0.0880
 5705TIP3    H238531   2.614   6.809  16.583  0.6666  0.1230  0.1846
 5706TIP3   OH238532   3.670   4.970  14.707  0.0670 -0.6595  0.3646
 5706TIP3    H138533   3.708   5.043  14.658 -0.7422 -0.5517 -0.1201
 5706TIP3    H238534   3.643   5.009  14.791  1.0696 -0.7544  0.7438
 5707TIP3   OH238535   3.747   0.322  15.036  0.4233  0.5430 -0.4928
 5707TIP3    H138536   3.744   0.384  15.109 -0.0463 -0.8809  0.7511
 5707TIP3    H238537   3.824   0.268  15.055 -0.9046 -1.2142  0.1671
 5708TIP3   OH238538   4.748   3.115  11.155 -0.0125 -0.0528  0.2216
 5708TIP3    H138539   4.814   3.049  11.131  1.0939  1.3095 -0.6332
 5708TIP3    H238540   4.680   3.106  11.089  0.7457  0.4825 -0.6644
 5709TIP3   OH238541   3.255   5.967   5.728 -0.0407  0.2713  0.3757
 5709TIP3    H138542   3.217   5.899   5.783 -1.1668  0.5178 -0.0623
 5709TIP3    H238543   3.198   5.970   5.650  0.3142  1.3168  0.1318
 5710TIP3   OH238544   4.827   6.296  12.215  0.6104  0.0663 -0.4847
 5710TIP3    H138545   4.883   6.237  12.265  0.6381 -0.4286 -1.0912
 5710TIP3    H238546   4.888   6.353  12.167  0.5922 -0.1847 -0.8068
 5711TIP3   OH238547   4.240   5.649  16.214  0.0462  0.2950  0.0619
 5711TIP3    H138548   4.280   5.615  16.133 -1.9645 -0.2653 -0.7632
 5711TIP3    H238549   4.299   5.620  16.284  1.0495 -0.5008 -1.0692
 5712TIP3   OH238550   5.526   6.304   4.763 -0.2562 -0.4530 -0.6475
 5712TIP3    H138551   5.487   6.218   4.746  0.4902 -0.8996 -0.1373
 5712TIP3    H238552   5.512   6.353   4.681 -4.7561  0.6018  0.4545
 5713TIP3   OH238553   6.348   2.122  15.452 -0.2468  0.6246  0.0484
 5713TIP3    H138554   6.272   2.073  15.484  0.6401 -1.1218 -0.3735
 5713TIP3    H238555   6.356   2.196  15.512  0.5866 -1.7816  3.2041
 5714TIP3   OH238556   0.521   6.622   3.254 -0.2336 -0.6047 -0.1213
 5714TIP3    H138557   0.514   6.711   3.291 -0.7445 -1.2775  1.5288
 5714TIP3    H238558   0.442   6.578   3.285 -0.0868 -1.5909 -1.0957
 5715TIP3   OH238559   5.895   5.641   1.241 -0.0404  0.2265  0.0075
 5715TIP3    H138560   5.983   5.636   1.278 -0.5110 -0.7671  1.0311
 5715TIP3    H238561   5.898   5.584   1.164  0.3009  0.4680 -0.1598
 5716TIP3   OH238562   6.082   0.109   4.687 -0.1739 -0.0856  0.1343
 5716TIP3    H138563   6.169   0.087   4.653 -0.1550  0.4361 -0.1560
 5716TIP3    H238564   6.099   0.181   4.749 -0.2405 -0.8247  1.0418
 5717TIP3   OH238565   0.334   6.345   6.489 -0.1093 -0.5309 -0.7068
 5717TIP3    H138566   0.338   6.359   6.584 -0.0738  0.2448 -0.8219
 5717TIP3    H238567   0.424   6.355   6.459 -0.4046  1.2411 -1.0933
 5718TIP3   OH238568   2.135   2.039   4.180 -0.3661  0.0895 -0.4687
 5718TIP3    H138569   2.109   2.051   4.089 -0.7565 -0.0302 -0.3791
 5718TIP3    H238570   2.088   1.960   4.207  0.0728 -0.1098 -0.2855
 5719TIP3   OH238571   0.762   0.764   1.565 -0.0282  0.3548 -0.6369
 5719TIP3    H138572   0.698   0.810   1.620 -2.3400 -4.6603  1.4172
 5719TIP3    H238573   0.832   0.740   1.625 -0.0765 -0.8687 -1.0561
 5720TIP3   OH238574   2.163   5.529  11.698  0.2729 -0.3672  0.2324
 5720TIP3    H138575   2.255   5.542  11.677 -0.2103  2.4183 -0.5917
 5720TIP3    H238576   2.119   5.526  11.612 -0.5656  0.2404  0.6228
 5721TIP3   OH238577   0.063   4.900   2.449  0.1572 -0.1185 -0.4166
 5721TIP3    H138578   0.007   4.842   2.397 -0.1560  0.2391 -0.4811
 5721TIP3    H238579   0.005   4.936   2.516  0.1819  0.6263 -0.7786
 5722TIP3   OH238580   2.552   3.877   3.383  0.6118 -0.1462  0.4215
 5722TIP3    H138581   2.532   3.790   3.418  1.8241 -0.9952 -0.9024
 5722TIP3    H238582   2.478   3.898   3.326 -0.3723  0.3548  1.8099
 5723TIP3   OH238583   5.685   1.134  16.286  0.6579 -0.2669  0.5550
 5723TIP3    H138584   5.637   1.169  16.211 -0.7657 -1.0188  1.0767
 5723TIP3    H238585   5.726   1.211  16.326 -0.4927  0.4786  0.3512
 5724TIP3   OH238586   0.744   4.565  11.370  0.4198  0.1852  0.1075
 5724TIP3    H138587   0.691   4.533  11.297  0.2767 -2.1263  1.1165
 5724TIP3    H238588   0.834   4.554  11.341  0.3599 -0.2894  0.0947
 5725TIP3   OH238589   3.721   1.577  10.519 -0.2687 -1.0599  0.1819
 5725TIP3    H138590   3.663   1.589  10.444 -1.1887 -0.7850  0.9153
 5725TIP3    H238591   3.786   1.647  10.511  0.1170 -1.5218 -0.7837
 5726TIP3   OH238592   4.042   0.380  13.461  0.0678 -0.3952  0.7007
 5726TIP3    H138593   4.117   0.369  13.519  2.8673 -0.1516 -2.5361
 5726TIP3    H238594   4.002   0.463  13.487  1.1509 -0.3314  2.2646
 5727TIP3   OH238595   1.420   2.226  11.982 -0.1351 -0.1826  0.9460
 5727TIP3    H138596   1.510   2.198  11.966  0.0300  0.2106  1.1796
 5727TIP3    H238597   1.383   2.158  12.038 -0.1320 -0.5903  0.4616
 5728TIP3   OH238598   1.213   0.020   0.438  0.2348 -0.1533  0.1605
 5728TIP3    H138599   1.159   0.068   0.501  0.5857  0.5002 -0.0265
 5728TIP3    H238600   1.235   0.085   0.371  0.2993 -0.7077 -0.3645
 5729TIP3   OH238601   5.016   3.483  11.874  0.0022  0.7882 -0.1840
 5729TIP3    H138602   5.089   3.428  11.903  1.3410  0.4479 -3.6676
 5729TIP3    H238603   5.021   3.561  11.930  1.8284 -0.0524  0.9407
 5730TIP3   OH238604   5.066   0.758   1.249 -0.1906  0.1066 -0.0391
 5730TIP3    H138605   5.086   0.685   1.307 -0.1053 -0.0710 -0.2904
 5730TIP3    H238606   5.050   0.717   1.164  2.5847  0.5768 -0.8933
 5731TIP3   OH238607   3.982   5.103  15.046  0.0611 -0.2286  0.0407
 5731TIP3    H138608   3.923   5.165  15.089 -1.6168 -2.1775  0.6867
 5731TIP3    H238609   4.020   5.153  14.974 -3.7551  0.7389 -1.5714
 5732TIP3   OH238610   4.698   5.398   6.628 -0.3180 -0.7924  0.0699
 5732TIP3    H138611   4.732   5.313   6.600 -2.2048 -0.6214 -3.1809
 5732TIP3    H238612   4.611   5.379   6.663 -0.6684 -0.2471 -0.4851
 5733TIP3   OH238613   6.501   4.358  16.277  0.1201 -0.0747  0.7231
 5733TIP3    H138614   6.510   4.311  16.361 -1.6928 -1.0857  0.4100
 5733TIP3    H238615   6.444   4.431  16.297 -0.3449 -0.3384  0.3643
 5734TIP3   OH238616   1.886   3.693   3.833 -0.5188 -0.3186  0.1614
 5734TIP3    H138617   1.873   3.677   3.739 -0.2994 -1.0322  0.2466
 5734TIP3    H238618   1.800   3.722   3.864 -0.0036  2.3681 -0.7212
 5735TIP3   OH238619   4.420   3.668   3.308 -0.2963 -0.4743 -0.3158
 5735TIP3    H138620   4.465   3.717   3.376 -0.0565 -0.5289 -0.4357
 5735TIP3    H238621   4.361   3.732   3.267  1.1440  0.1206 -1.5157
 5736TIP3   OH238622   4.861   2.424   4.823  0.0321 -0.5604  0.1035
 5736TIP3    H138623   4.918   2.358   4.863 -0.1083 -1.0488 -0.4897
 5736TIP3    H238624   4.806   2.375   4.763 -0.8787 -0.0615  0.5057
 5737TIP3   OH238625   5.941   3.320  12.182  0.0376 -0.1783 -0.1340
 5737TIP3    H138626   5.954   3.225  12.181 -1.5902 -0.4780  1.5513
 5737TIP3    H238627   5.944   3.346  12.090  2.8077 -1.4608 -0.5152
 5738TIP3   OH238628   4.359   2.383  14.336 -0.5707 -0.0745 -0.6077
 5738TIP3    H138629   4.332   2.460  14.287 -0.9324 -1.1089 -2.1145
 5738TIP3    H238630   4.278   2.333  14.350 -0.1017 -1.0905 -1.3588
 5739TIP3   OH238631   6.002   4.294   1.915 -0.0776 -0.3908  1.0116
 5739TIP3    H138632   6.039   4.374   1.877 -1.4724  0.1841  0.7841
 5739TIP3    H238633   6.030   4.224   1.856  1.9475 -0.2445  1.7332
 5740TIP3   OH238634   1.896   0.868   2.904  0.4631 -0.3563 -0.2826
 5740TIP3    H138635   1.937   0.791   2.942 -0.8151 -0.8557  0.1363
 5740TIP3    H238636   1.952   0.941   2.932 -0.1225 -0.7586  2.1805
 5741TIP3   OH238637   3.384   6.755   2.029  0.1819  0.7140 -0.0957
 5741TIP3    H138638   3.459   6.758   2.088 -0.0413 -0.1661  0.2646
 5741TIP3    H238639   3.308   6.766   2.087 -0.0381 -0.1469 -0.1941
 5742TIP3   OH238640   0.877   2.480  11.527 -0.1286  0.3378 -0.1424
 5742TIP3    H138641   0.813   2.550  11.543  0.1050  0.9079 -1.5362
 5742TIP3    H238642   0.871   2.463  11.433  1.1007 -0.2585 -0.1348
 5743TIP3   OH238643   3.923   0.831   0.399 -0.0697 -0.1339 -0.0703
 5743TIP3    H138644   3.943   0.900   0.462 -1.0189  0.1852 -0.0935
 5743TIP3    H238645   3.903   0.755   0.453  1.1289 -0.4412 -0.0481
 5744TIP3   OH238646   5.394   1.183   0.943  0.3941  0.0424 -0.3561
 5744TIP3    H138647   5.459   1.149   1.006 -0.2586 -1.3806 -0.4001
 5744TIP3    H238648   5.395   1.277   0.957 -1.3605 -0.2894  3.5202
 5745TIP3   OH238649   1.697   0.571   1.243 -0.1701 -0.7580  1.2540
 5745TIP3    H138650   1.638   0.633   1.286 -0.3223 -0.6872  0.9444
 5745TIP3    H238651   1.694   0.493   1.299 -0.4610 -0.7086  1.3105
 5746TIP3   OH238652   5.327   2.921  12.583  0.4279  0.1306  0.0637
 5746TIP3    H138653   5.413   2.945  12.617  1.5588 -0.1985 -2.3461
 5746TIP3    H238654   5.337   2.830  12.554 -1.1625 -0.3769  0.9505
 5747TIP3   OH238655   2.632   1.515   1.743  0.3881 -0.0431  0.0009
 5747TIP3    H138656   2.647   1.528   1.649 -0.3991  0.3400 -0.0822
 5747TIP3    H238657   2.604   1.600   1.775  0.5100 -0.2100  0.5587
 5748TIP3   OH238658   6.119   1.425   2.716  0.2932  0.0033 -0.3319
 5748TIP3    H138659   6.034   1.380   2.722  0.5490 -0.4846 -0.2977
 5748TIP3    H238660   6.134   1.433   2.622  1.9665 -3.3706 -0.5105
 5749TIP3   OH238661   4.824   6.273   5.311 -0.3432 -0.0990  0.2639
 5749TIP3    H138662   4.876   6.352   5.294  1.6378 -1.5635 -0.9748
 5749TIP3    H238663   4.755   6.274   5.245  0.1494  0.2001 -0.2515
 5750TIP3   OH238664   5.860   4.348  15.079 -0.1942 -0.2947 -0.0260
 5750TIP3    H138665   5.903   4.295  15.013 -1.9487 -1.0188 -0.6370
 5750TIP3    H238666   5.772   4.363  15.045 -0.5541  0.8764  1.3091
 5751TIP3   OH238667   6.298   6.010   0.667  0.4868  0.7655 -0.5081
 5751TIP3    H138668   6.369   6.059   0.709 -0.2115  0.6697  0.8531
 5751TIP3    H238669   6.267   6.068   0.598 -0.6234  2.5366  1.3565
 5752TIP3   OH238670   0.229   6.762   4.092  0.2539 -0.0494 -0.0492
 5752TIP3    H138671   0.313   6.745   4.135  0.3178 -2.4271 -0.9466
 5752TIP3    H238672   0.164   6.747   4.161  0.4835 -0.5732  0.0622
 5753TIP3   OH238673   4.290   5.308  12.810 -0.1609 -0.0233  0.0738
 5753TIP3    H138674   4.229   5.236  12.822  0.2606 -0.6524 -1.3420
 5753TIP3    H238675   4.374   5.265  12.790 -0.0224  0.8400 -1.3317
 5754TIP3   OH238676   2.255   2.320   1.263  0.0503  0.1885  0.3551
 5754TIP3    H138677   2.307   2.272   1.328  0.8544 -1.9067 -1.7050
 5754TIP3    H238678   2.316   2.341   1.193 -1.0666  1.2356 -0.3506
 5755TIP3   OH238679   5.514   5.482  14.408  0.2290  0.2499  0.2959
 5755TIP3    H138680   5.523   5.431  14.327  0.7517 -0.3413  0.7151
 5755TIP3    H238681   5.592   5.538  14.410  0.4619 -0.0745  0.6108
 5756TIP3   OH238682   3.384   2.944   1.707 -0.6149 -0.2336  0.2428
 5756TIP3    H138683   3.343   2.867   1.668  0.3579 -0.6018 -0.0659
 5756TIP3    H238684   3.452   2.970   1.645 -1.3648  1.2896  0.0187
 5757TIP3   OH238685   4.173   0.240  10.600  0.3817 -0.2757  0.4478
 5757TIP3    H138686   4.190   0.149  10.577  0.5009 -0.1366 -0.0407
 5757TIP3    H238687   4.260   0.282  10.600  0.2935 -0.0905  0.3415
 5758TIP3   OH238688   1.264   3.229  16.254  0.1069  0.0315 -0.4574
 5758TIP3    H138689   1.302   3.213  16.340 -1.9414  2.0550  0.9526
 5758TIP3    H238690   1.310   3.307  16.222 -0.0440  0.0765 -0.5657
 5759TIP3   OH238691   4.918   4.203   3.168 -0.4653  0.0517  0.0429
 5759TIP3    H138692   4.855   4.179   3.237 -0.9277 -0.6329 -0.5998
 5759TIP3    H238693   4.998   4.225   3.216 -0.6454 -0.8262  0.7881
 5760TIP3   OH238694   6.428   3.616   2.445  0.0693  0.1111  0.6112
 5760TIP3    H138695   6.340   3.627   2.480  0.0127  2.2395 -0.0391
 5760TIP3    H238696   6.466   3.704   2.448  1.1927 -0.2206 -1.6456
 5761TIP3   OH238697   3.234   2.110  16.155  0.6570 -0.6518  0.2439
 5761TIP3    H138698   3.200   2.150  16.236 -1.6551 -1.0726 -0.4448
 5761TIP3    H238699   3.317   2.155  16.140  0.6626  0.1642  2.2996
 5762TIP3   OH238700   5.421   6.780   5.736  0.1821 -0.6658  0.0710
 5762TIP3    H138701   5.476   6.856   5.758  0.4053 -0.9464  0.4850
 5762TIP3    H238702   5.475   6.728   5.676  0.4692 -1.0588  0.6577
 5763TIP3   OH238703   5.041   5.342  15.623 -0.0136 -0.4048  0.5051
 5763TIP3    H138704   4.966   5.396  15.600 -0.5188 -1.9955 -1.9817
 5763TIP3    H238705   5.055   5.358  15.716 -0.2541  3.7521  0.0041
 5764TIP3   OH238706   6.502   1.780   6.642 -0.0760  0.2171  0.7585
 5764TIP3    H138707   6.593   1.753   6.638  0.4497  1.6483  2.2257
 5764TIP3    H238708   6.467   1.758   6.555  1.7306 -0.0461  0.0555
 5765TIP3   OH238709   3.600   1.219  13.778 -0.1266 -0.0703  0.0432
 5765TIP3    H138710   3.540   1.156  13.738  0.5116  0.0582 -1.1597
 5765TIP3    H238711   3.687   1.188  13.753  0.3557 -0.3336  1.8646
 5766TIP3   OH238712   6.089   2.645   4.389  0.1609 -0.5615  0.4991
 5766TIP3    H138713   6.182   2.652   4.410  1.2447 -1.4348 -3.2579
 5766TIP3    H238714   6.083   2.675   4.298 -2.8094 -2.8407 -0.2077
 5767TIP3   OH238715   3.881   1.083  16.218  0.2442  0.0720 -0.1188
 5767TIP3    H138716   3.905   1.036  16.138 -0.8791  1.0512 -1.0803
 5767TIP3    H238717   3.939   1.159  16.219 -0.6395  0.7781 -0.7602
 5768TIP3   OH238718   3.125   3.895  12.015 -0.0016 -0.1331 -0.0450
 5768TIP3    H138719   3.103   3.905  12.108  0.1606 -0.6181  0.0495
 5768TIP3    H238720   3.215   3.924  12.008 -0.1070  0.1800 -0.1052
 5769TIP3   OH238721   4.429   4.990   0.800 -0.2303  0.1971  0.6201
 5769TIP3    H138722   4.458   4.900   0.817  2.1662  0.0868 -2.9182
 5769TIP3    H238723   4.492   5.045   0.845  0.0407  0.0546  0.4174
 5770TIP3   OH238724   1.183   5.823   1.259  0.2489 -0.7693 -0.0957
 5770TIP3    H138725   1.200   5.730   1.244  0.0298 -0.9131  0.5144
 5770TIP3    H238726   1.222   5.867   1.184 -0.7707 -1.4533 -1.0708
 5771TIP3   OH238727   4.631   5.461   5.897 -0.5356  0.1466  0.4487
 5771TIP3    H138728   4.543   5.428   5.916 -0.5973  0.6916  1.1934
 5771TIP3    H238729   4.684   5.434   5.973 -0.1396  0.1166  0.1666
 5772TIP3   OH238730   3.673   3.688   2.233 -0.2034 -0.1872  0.0521
 5772TIP3    H138731   3.619   3.729   2.300  2.0624  0.0917  1.8136
 5772TIP3    H238732   3.689   3.757   2.169 -1.3993 -0.1198 -0.1952
 5773TIP3   OH238733   1.377   5.253   5.070 -0.2962 -0.7883 -0.2359
 5773TIP3    H138734   1.467   5.233   5.097  0.8367  3.1739 -0.4484
 5773TIP3    H238735   1.376   5.234   4.976  0.5280 -0.3921 -0.3376
 5774TIP3   OH238736   3.102   4.983   5.322  0.2393  0.3575  0.0847
 5774TIP3    H138737   3.021   4.994   5.272 -0.6157  0.6320  1.4756
 5774TIP3    H238738   3.079   4.925   5.394  1.0270  1.1692  1.0290
 5775TIP3   OH238739   0.427   4.484  11.745  0.2106  0.4522 -0.0173
 5775TIP3    H138740   0.374   4.545  11.796  1.3760  1.1271  0.4217
 5775TIP3    H238741   0.512   4.527  11.737  0.2904  0.0481 -1.9243
 5776TIP3   OH238742   3.679   4.498   1.418 -0.0196  0.2087  0.1376
 5776TIP3    H138743   3.768   4.516   1.447 -0.0945  0.1491  0.4089
 5776TIP3    H238744   3.659   4.567   1.355  0.1181  0.3824  0.2855
 5777TIP3   OH238745   5.524   0.328   2.130  0.0701  0.2762 -0.0796
 5777TIP3    H138746   5.456   0.262   2.116 -0.2790  0.6296 -0.0704
 5777TIP3    H238747   5.583   0.289   2.194 -1.6033  1.0330  2.0385
 5778TIP3   OH238748   1.269   6.211  13.567 -0.2397  0.5347 -0.3195
 5778TIP3    H138749   1.254   6.281  13.631 -2.9431  2.1942 -2.4844
 5778TIP3    H238750   1.207   6.143  13.591  2.2759 -1.2333  1.6846
 5779TIP3   OH238751   4.392   5.878  16.021 -0.4752 -0.2331 -0.5694
 5779TIP3    H138752   4.349   5.928  16.090  2.5923  1.7214  0.0934
 5779TIP3    H238753   4.466   5.835  16.064  0.2703 -0.7146 -2.2461
 5780TIP3   OH238754   0.657   1.468   3.349 -0.3263  0.4747  0.0986
 5780TIP3    H138755   0.601   1.493   3.275 -1.3142  0.2622  0.7565
 5780TIP3    H238756   0.713   1.398   3.314 -2.0630 -0.9473  0.0307
 5781TIP3   OH238757   4.311   1.368   5.068 -0.0494  0.9876 -0.0744
 5781TIP3    H138758   4.230   1.407   5.034 -0.3871  2.2321  2.0354
 5781TIP3    H238759   4.365   1.442   5.093  1.2742  0.1423 -0.3286
 5782TIP3   OH238760   3.320   2.898  14.884 -0.3494 -0.2309  0.6824
 5782TIP3    H138761   3.315   2.987  14.849  0.6917 -0.2250  0.5391
 5782TIP3    H238762   3.404   2.864  14.854 -0.6539 -1.2051  0.8926
 5783TIP3   OH238763   1.231   3.170   4.053 -0.1385  0.3283 -0.4882
 5783TIP3    H138764   1.148   3.161   4.100 -0.9593  1.3086 -1.6923
 5783TIP3    H238765   1.239   3.265   4.038  1.3215  0.2733 -0.1861
 5784TIP3   OH238766   1.807   5.354   5.681  0.4337  0.3730 -0.3146
 5784TIP3    H138767   1.805   5.298   5.603  0.6699 -0.7602  0.4652
 5784TIP3    H238768   1.897   5.346   5.714 -0.0768 -0.4741  0.9718
 5785TIP3   OH238769   4.718   1.067   0.355  0.0794 -0.1998  0.3093
 5785TIP3    H138770   4.672   1.014   0.290  0.4832 -1.1303  0.7581
 5785TIP3    H238771   4.716   1.015   0.435  1.4433 -0.0379  0.4814
 5786TIP3   OH238772   0.536   2.252  13.275  0.2685  0.0607  0.0911
 5786TIP3    H138773   0.589   2.331  13.284 -0.9894  1.1029 -1.1930
 5786TIP3    H238774   0.447   2.279  13.296  0.1888 -1.7075  2.3979
 5787TIP3   OH238775   3.867   1.825  12.911 -0.0297  0.0320 -1.0323
 5787TIP3    H138776   3.781   1.823  12.953 -0.1354 -0.3745 -1.2608
 5787TIP3    H238777   3.922   1.769  12.966  0.7596  2.1867  0.5061
 5788TIP3   OH238778   6.316   6.566  14.314  0.0677 -0.4652  0.5892
 5788TIP3    H138779   6.240   6.604  14.268 -0.8633  2.0175  3.8009
 5788TIP3    H238780   6.392   6.608  14.274 -0.7534  2.1455  1.5604
 5789TIP3   OH238781   3.161   0.718   0.522  0.1263  0.3041 -0.3900
 5789TIP3    H138782   3.214   0.787   0.562  1.2282  0.1552 -1.5423
 5789TIP3    H238783   3.081   0.716   0.575  0.0254  2.4896 -0.3596
 5790TIP3   OH238784   4.562   6.095   2.473  0.3420 -0.4801 -0.0878
 5790TIP3    H138785   4.472   6.102   2.441 -0.0038  4.3988  1.0835
 5790TIP3    H238786   4.615   6.084   2.393 -1.1201 -0.1531 -1.1468
 5791TIP3   OH238787   3.680   6.798   2.567  0.2666 -0.4862 -0.3332
 5791TIP3    H138788   3.716   6.748   2.641 -0.4326 -0.3372  0.1272
 5791TIP3    H238789   3.748   6.795   2.500  1.7639  1.0408  1.0323
 5792TIP3   OH238790   3.897   3.707  16.607  0.1972 -0.7812 -0.7567
 5792TIP3    H138791   3.979   3.665  16.635 -0.2201 -1.6621 -0.8226
 5792TIP3    H238792   3.829   3.645  16.633 -0.4023 -0.3461 -1.2832
 5793TIP3   OH238793   6.741   6.386   5.640 -0.4644 -0.1314  0.3373
 5793TIP3    H138794   6.775   6.430   5.718  1.0408 -2.0495  0.8603
 5793TIP3    H238795   6.798   6.416   5.569  0.2257 -0.8006  0.5960
 5794TIP3   OH238796   2.645   6.684  12.127 -0.2711 -0.3983  0.0160
 5794TIP3    H138797   2.652   6.591  12.105  1.7685 -0.4963  0.8895
 5794TIP3    H238798   2.708   6.727  12.068  0.4100  0.1434  1.1187
 5795TIP3   OH238799   5.295   0.388  12.367 -0.4473 -0.3989  0.3934
 5795TIP3    H138800   5.202   0.410  12.374  0.1818  2.2146  2.0762
 5795TIP3    H238801   5.303   0.306  12.417 -1.9550 -1.2803 -0.7024
 5796TIP3   OH238802   1.405   2.801   0.939 -0.3334 -0.3171 -0.1978
 5796TIP3    H138803   1.416   2.896   0.950 -0.8453 -0.3442  0.6562
 5796TIP3    H238804   1.486   2.763   0.972 -0.3108 -0.1957 -0.1139
 5797TIP3   OH238805   3.625   5.297   3.483  0.7944  0.6276 -0.7409
 5797TIP3    H138806   3.663   5.272   3.398  1.8845  0.0472 -0.1040
 5797TIP3    H238807   3.619   5.216   3.532  1.8615  1.1950  0.3851
 5798TIP3   OH238808   4.267   6.805   1.334  0.8370  0.0671 -0.5335
 5798TIP3    H138809   4.181   6.800   1.292  0.1685 -0.5965  0.8839
 5798TIP3    H238810   4.265   6.888   1.382  0.4531 -0.5850  0.6059
 5799TIP3   OH238811   0.336   5.751  15.957  0.0292  0.2347 -0.1393
 5799TIP3    H138812   0.251   5.744  16.001  0.1496  1.3469  0.3010
 5799TIP3    H238813   0.315   5.742  15.864 -0.3575 -1.1149  0.0535
 5800TIP3   OH238814   6.598   2.954  16.063 -0.1271  0.0542 -0.5319
 5800TIP3    H138815   6.544   2.892  16.112  1.8115 -0.4568  1.0858
 5800TIP3    H238816   6.601   3.032  16.117  2.5690 -0.7408  0.6618
 5801TIP3   OH238817   3.934   6.051   0.606 -0.5274  0.5424  0.7081
 5801TIP3    H138818   3.970   6.123   0.657 -2.7522  0.9836  1.7569
 5801TIP3    H238819   3.930   6.085   0.516  0.4852  0.8886  0.7828
 5802TIP3   OH238820   1.691   0.703  13.358  0.5749 -0.1122 -0.1125
 5802TIP3    H138821   1.610   0.665  13.323  0.2744 -0.0342  0.4749
 5802TIP3    H238822   1.740   0.732  13.281  0.3023 -0.6803 -0.5031
 5803TIP3   OH238823   1.005   0.791   2.570 -0.0129 -0.1770 -0.1193
 5803TIP3    H138824   0.986   0.841   2.649  0.6173  1.3016 -0.8596
 5803TIP3    H238825   1.100   0.791   2.564 -0.0585 -0.0589 -0.9856
 5804TIP3   OH238826   3.897   4.906   3.996 -0.3132 -0.1717 -0.3102
 5804TIP3    H138827   3.901   5.001   4.005 -0.8537  0.0062 -1.7961
 5804TIP3    H238828   3.824   4.880   4.053 -0.8664  0.4212 -0.7436
 5805TIP3   OH238829   3.681   4.428   3.198 -0.5035 -0.5198 -0.2026
 5805TIP3    H138830   3.619   4.440   3.270  0.0867 -3.0594  0.8594
 5805TIP3    H238831   3.630   4.446   3.119 -1.7784  0.2049  0.7409
 5806TIP3   OH238832   4.760   3.986  14.942  0.5344  0.2864  0.3995
 5806TIP3    H138833   4.759   4.067  14.892 -0.4831 -0.2416 -0.4902
 5806TIP3    H238834   4.842   3.943  14.918  1.1109  1.0556  0.9272
 5807TIP3   OH238835   0.971   3.678  17.132 -0.6879 -0.5498  0.0198
 5807TIP3    H138836   0.877   3.683  17.151 -0.7240 -1.7582  0.2002
 5807TIP3    H238837   1.012   3.717  17.209 -1.0186 -0.7106  0.2845
 5808TIP3   OH238838   6.286   4.814   3.113  0.5704 -0.0877 -0.3500
 5808TIP3    H138839   6.342   4.790   3.039 -0.4493  0.6746 -1.3954
 5808TIP3    H238840   6.246   4.731   3.141  0.4787 -0.2943 -1.0714
 5809TIP3   OH238841   2.555   6.091  14.061 -0.7984  1.2786 -0.6222
 5809TIP3    H138842   2.643   6.113  14.030  0.1357 -1.1810  0.0800
 5809TIP3    H238843   2.544   6.144  14.140  0.4412  0.9240 -0.1889
 5810TIP3   OH238844   3.033   5.234   1.158 -0.1780  0.3999 -0.1047
 5810TIP3    H138845   3.091   5.279   1.096 -1.4577  1.2586 -0.7382
 5810TIP3    H238846   3.091   5.184   1.215  1.0976  0.2715 -1.4694
 5811TIP3   OH238847   1.521   2.098  14.687  0.6747 -0.3301 -0.8013
 5811TIP3    H138848   1.477   2.043  14.622 -0.8608  0.7178 -0.6905
 5811TIP3    H238849   1.614   2.077  14.677  0.3736 -0.9717 -2.5915
 5812TIP3   OH238850   4.689   1.350   0.354 -0.1622  0.0788  0.4409
 5812TIP3    H138851   4.697   1.297   0.274  1.4947  0.0885  0.5714
 5812TIP3    H238852   4.711   1.290   0.425  1.4697  0.8357  0.6133
 5813TIP3   OH238853   6.383   1.424  14.441 -0.0414 -0.3988 -0.2775
 5813TIP3    H138854   6.365   1.503  14.390  1.0037  0.2883  0.3881
 5813TIP3    H238855   6.302   1.372  14.435 -1.7342  1.8483  1.3337
 5814TIP3   OH238856   4.153   0.637   2.249 -0.3812  0.1854  0.4180
 5814TIP3    H138857   4.169   0.730   2.236 -1.6807  0.6698  1.9070
 5814TIP3    H238858   4.234   0.603   2.286 -0.0991  0.8433  0.4144
 5815TIP3   OH238859   5.095   6.286  14.727 -0.4335  0.2027 -0.1240
 5815TIP3    H138860   5.063   6.337  14.801  1.4563  0.0831  0.8463
 5815TIP3    H238861   5.126   6.351  14.664  1.6671  0.3454  0.9705
 5816TIP3   OH238862   2.861   4.221   4.920  0.4061  0.1704  0.4221
 5816TIP3    H138863   2.893   4.175   4.842 -0.9412  0.4698 -0.3360
 5816TIP3    H238864   2.885   4.313   4.904  0.6351  0.1497  0.6387
 5817TIP3   OH238865   4.406   4.281  16.153  0.2236  0.1237 -0.0097
 5817TIP3    H138866   4.384   4.302  16.062 -0.5441 -1.2611 -0.1757
 5817TIP3    H238867   4.501   4.294  16.158 -0.0912  3.1033 -0.1629
 5818TIP3   OH238868   6.171   0.096  11.535  0.3265  0.1823  0.2113
 5818TIP3    H138869   6.097   0.154  11.515  0.3507 -0.3609 -1.6932
 5818TIP3    H238870   6.155   0.017  11.483  1.9581 -0.1733  0.1768
 5819TIP3   OH238871   6.509   4.989  13.616 -0.3668 -0.0565  0.0338
 5819TIP3    H138872   6.566   5.001  13.692 -0.5173  2.8670 -0.1874
 5819TIP3    H238873   6.426   4.960  13.652 -0.2687  0.7659  0.9388
 5820TIP3   OH238874   2.905   1.284  12.782  0.3540  0.2040 -0.0640
 5820TIP3    H138875   2.951   1.336  12.848  3.1792 -2.1369  0.0043
 5820TIP3    H238876   2.881   1.203  12.828  0.2764 -0.4919 -1.2857
 5821TIP3   OH238877   3.690   3.161   2.215  0.1761  0.5329  0.4602
 5821TIP3    H138878   3.682   3.252   2.243  0.1737  0.0803  2.0423
 5821TIP3    H238879   3.784   3.144   2.215  0.1199  0.0195  2.0800
 5822TIP3   OH238880   4.284   3.832  11.495  0.0841 -0.0810 -0.0427
 5822TIP3    H138881   4.351   3.890  11.458 -1.3771  0.9896 -1.1619
 5822TIP3    H238882   4.236   3.887  11.557 -1.8272  0.2584 -1.6871
 5823TIP3   OH238883   1.687   2.920   5.139 -0.2744  0.1520 -0.4782
 5823TIP3    H138884   1.733   2.880   5.065  0.2399  2.2535 -1.3574
 5823TIP3    H238885   1.720   3.010   5.143 -2.9347  1.2249  0.0093
 5824TIP3   OH238886   2.806   1.573  16.830  0.1418 -0.0279  0.2372
 5824TIP3    H138887   2.743   1.617  16.772 -1.0090 -0.8851  0.8163
 5824TIP3    H238888   2.785   1.480  16.823  1.4395 -0.3469  0.3466
 5825TIP3   OH238889   6.425   0.505  15.609  0.4165  0.6402  0.3760
 5825TIP3    H138890   6.352   0.492  15.670  0.7956  0.9441  0.8957
 5825TIP3    H238891   6.428   0.423  15.559 -1.2220  1.1756 -0.6786
 5826TIP3   OH238892   1.458   0.025  16.004 -0.1670 -0.4315  0.3426
 5826TIP3    H138893   1.399   0.078  15.950  1.5453  1.0050 -0.2247
 5826TIP3    H238894   1.410   0.012  16.086 -1.3854  0.4276 -0.1995
 5827TIP3   OH238895   0.314   2.668   3.916  0.2795 -0.6491 -0.5908
 5827TIP3    H138896   0.385   2.706   3.968 -0.1731 -0.3253 -0.2053
 5827TIP3    H238897   0.286   2.737   3.857 -0.8237 -0.2241  0.3974
 5828TIP3   OH238898   5.227   3.680  14.500 -0.3671 -0.0020 -0.3640
 5828TIP3    H138899   5.160   3.734  14.457 -1.3913 -1.0132 -0.0714
 5828TIP3    H238900   5.196   3.590  14.490  0.3578 -0.4025  0.7989
 5829TIP3   OH238901   2.722   0.805   3.695  0.1805 -0.7402 -0.0009
 5829TIP3    H138902   2.792   0.780   3.633  0.5219 -0.5260  0.2918
 5829TIP3    H238903   2.745   0.894   3.722  0.0781 -0.8646  0.4977
 5830TIP3   OH238904   5.405   4.578   6.059 -0.2411  0.5249 -0.1119
 5830TIP3    H138905   5.309   4.580   6.069 -0.1562  0.6214  0.7869
 5830TIP3    H238906   5.437   4.544   6.143  0.4513 -0.8992 -0.9345
 5831TIP3   OH238907   5.700   6.328  14.314  0.3831  0.3045  0.4213
 5831TIP3    H138908   5.791   6.299  14.314  0.7726  1.4618  0.8465
 5831TIP3    H238909   5.652   6.258  14.271  1.7709  0.6502 -1.8065
 5832TIP3   OH238910   3.167   4.701   3.966 -0.1164 -0.4150  0.4834
 5832TIP3    H138911   3.145   4.774   3.907  1.2318  0.4526  0.9978
 5832TIP3    H238912   3.083   4.677   4.006 -1.0873 -1.0662 -1.7792
 5833TIP3   OH238913   1.528   1.985   4.401  0.0440 -0.1409  0.1685
 5833TIP3    H138914   1.542   1.967   4.494  1.0335  1.4655  0.3549
 5833TIP3    H238915   1.433   1.976   4.390 -0.1355 -0.0263  1.4166
 5834TIP3   OH238916   5.048   2.063   1.173 -0.1291  0.3525  0.0742
 5834TIP3    H138917   4.983   2.123   1.210  0.9813  1.3403  0.4963
 5834TIP3    H238918   5.128   2.116   1.165  0.6989 -0.8875 -0.1762
 5835TIP3   OH238919   1.856   2.506  11.765  0.3569  0.2217  0.3673
 5835TIP3    H138920   1.895   2.518  11.851 -1.0972  0.0102  1.0748
 5835TIP3    H238921   1.817   2.418  11.768 -1.8790  1.1525  0.4068
 5836TIP3   OH238922   3.996   5.278   1.794 -0.2773  0.5210 -0.0239
 5836TIP3    H138923   3.914   5.319   1.822 -0.0878  0.4880  0.5984
 5836TIP3    H238924   4.027   5.232   1.872 -0.4534 -0.7583 -0.6925
 5837TIP3   OH238925   4.718   4.549   1.436 -0.2492  0.7379  0.5122
 5837TIP3    H138926   4.678   4.465   1.456  2.2144 -1.2228 -1.8838
 5837TIP3    H238927   4.753   4.580   1.519 -1.4802 -0.4315  1.5020
 5838TIP3   OH238928   4.046   4.831  14.059 -0.6567  0.2843 -0.0068
 5838TIP3    H138929   3.967   4.836  14.005  0.5792  0.7193 -1.8671
 5838TIP3    H238930   4.025   4.765  14.125 -2.4358  0.1230 -0.6651
 5839TIP3   OH238931   1.891   1.492  15.128  0.3704 -0.5985 -0.1747
 5839TIP3    H138932   1.914   1.423  15.190  0.8290  0.6150  1.0306
 5839TIP3    H238933   1.795   1.493  15.127  0.3628 -0.9191  0.1694
 5840TIP3   OH238934   2.373   4.272  15.536  0.6843  0.3783 -0.4894
 5840TIP3    H138935   2.382   4.262  15.631  1.8670 -2.5321 -0.7990
 5840TIP3    H238936   2.306   4.208  15.511  0.4296  1.0671 -1.6392
 5841TIP3   OH238937   0.708   2.877  13.161 -0.0792  0.5925 -0.2782
 5841TIP3    H138938   0.637   2.936  13.186  0.2742  0.5167  0.9855
 5841TIP3    H238939   0.771   2.933  13.115 -1.3736  0.4662 -2.3108
 5842TIP3   OH238940   0.903   2.148  14.326  0.1961 -0.3400 -0.3428
 5842TIP3    H138941   0.935   2.182  14.410 -1.9728  0.5929  0.1692
 5842TIP3    H238942   0.928   2.215  14.263 -1.8465  1.1128  0.2772
 5843TIP3   OH238943   4.727   1.083  12.027 -0.3352 -0.5571  0.8301
 5843TIP3    H138944   4.670   1.044  11.960  0.3666 -0.6541  0.2736
 5843TIP3    H238945   4.812   1.040  12.014  0.1545  0.3596  0.9303
 5844TIP3   OH238946   0.859   6.629   6.039  0.2049  0.5913  0.2177
 5844TIP3    H138947   0.809   6.550   6.059  0.1338  0.2958 -1.0073
 5844TIP3    H238948   0.846   6.686   6.114  0.1910 -0.5339  1.0897
 5845TIP3   OH238949   1.875   5.645  15.961  0.1176 -0.4370  0.3285
 5845TIP3    H138950   1.906   5.698  15.887  0.6889 -1.0601  0.1150
 5845TIP3    H238951   1.830   5.708  16.017  1.9549  0.5674  0.7520
 5846TIP3   OH238952   0.857   4.969  16.879 -0.2044 -0.6860  0.3940
 5846TIP3    H138953   0.823   4.915  16.950 -0.7463 -0.2967  0.4425
 5846TIP3    H238954   0.803   4.945  16.803 -2.1286  1.4653  0.9584
 5847TIP3   OH238955   4.705   4.510  11.868 -0.3229 -0.1046  0.2944
 5847TIP3    H138956   4.745   4.576  11.811 -1.3733  0.4027  0.1323
 5847TIP3    H238957   4.611   4.527  11.863 -0.5796 -1.3265  0.6145
 5848TIP3   OH238958   0.050   3.171  13.164 -0.2208 -0.3984  0.1573
 5848TIP3    H138959  -0.025   3.215  13.124  0.5659 -0.4008 -1.3919
 5848TIP3    H238960   0.072   3.100  13.104  0.3950 -1.0525  1.1131
 5849TIP3   OH238961   4.695   5.599   0.224 -0.6350  0.1327  0.4141
 5849TIP3    H138962   4.682   5.517   0.176 -1.5012  1.2472 -1.3324
 5849TIP3    H238963   4.638   5.662   0.180  0.4713  1.8390  1.3315
 5850TIP3   OH238964   1.602   6.576   1.311  0.1481 -0.1265 -0.0950
 5850TIP3    H138965   1.510   6.562   1.290 -0.0050 -0.8965  1.0017
 5850TIP3    H238966   1.612   6.539   1.399  1.6972 -0.8235 -0.5400
 5851TIP3   OH238967   5.475   6.107   2.464  0.1241  0.5224 -0.4899
 5851TIP3    H138968   5.556   6.142   2.500 -1.2442  1.6780  1.6376
 5851TIP3    H238969   5.483   6.012   2.476  0.6403  0.7203  0.8315
 5852TIP3   OH238970   1.077   5.733  17.146  0.1285 -0.2680 -0.0903
 5852TIP3    H138971   0.984   5.733  17.169  0.6526  0.3104  2.2976
 5852TIP3    H238972   1.108   5.646  17.170  0.3332 -0.2586 -0.3128
 5853TIP3   OH238973   3.688   5.862   2.374 -0.2106  0.1722 -1.0764
 5853TIP3    H138974   3.690   5.944   2.323  1.3115 -0.3424 -1.9142
 5853TIP3    H238975   3.698   5.793   2.308  2.5139 -0.4932 -0.0784
 5854TIP3   OH238976   0.935   5.847  13.820 -0.1151  0.5201 -0.3832
 5854TIP3    H138977   0.948   5.932  13.779  0.1370  0.1159 -1.1631
 5854TIP3    H238978   0.865   5.861  13.885  2.8445  2.3807  2.7229
 5855TIP3   OH238979   3.160   0.609  12.640  0.1628  0.0600 -0.2665
 5855TIP3    H138980   3.119   0.691  12.612 -0.7387 -0.0593  0.6416
 5855TIP3    H238981   3.253   0.629  12.644 -0.1410  1.3984  1.0645
 5856TIP3   OH238982   1.086   0.333   1.279 -0.3676  0.2978  0.1113
 5856TIP3    H138983   1.075   0.402   1.213  2.2082  0.9223  0.1897
 5856TIP3    H238984   1.172   0.295   1.258 -0.2345 -0.6008  2.1088
 5857TIP3   OH238985   3.385   4.087   1.891 -0.2441 -0.1110  0.1381
 5857TIP3    H138986   3.394   4.083   1.796 -1.6652 -0.0243 -0.0167
 5857TIP3    H238987   3.382   4.181   1.911  1.3910 -0.0948  0.4315
 5858TIP3   OH238988   0.151   5.318  12.247 -0.6549  0.3325  0.4367
 5858TIP3    H138989   0.182   5.314  12.337 -0.3230 -2.2474  0.2725
 5858TIP3    H238990   0.212   5.377  12.203  2.8005 -2.7234  0.6623
 5859TIP3   OH238991   5.202   1.444   4.109  0.1716  0.0160  0.2278
 5859TIP3    H138992   5.149   1.477   4.037 -0.6177 -2.8892 -0.6400
 5859TIP3    H238993   5.150   1.463   4.187 -0.3886  0.4672 -0.2406
 5860TIP3   OH238994   1.586   5.561   0.635  0.0858  0.2451  0.0001
 5860TIP3    H138995   1.671   5.553   0.593 -0.8026  0.7879 -2.0564
 5860TIP3    H238996   1.527   5.591   0.565 -1.8694 -0.4281  1.2522
 5861TIP3   OH238997   5.099   1.775   1.116  0.2302 -0.0750 -0.1869
 5861TIP3    H138998   5.029   1.726   1.158 -1.3418  0.9704 -1.4323
 5861TIP3    H238999   5.076   1.867   1.131  0.2135  0.3184 -2.2234
 5862TIP3   OH239000   4.151   2.262   0.103 -0.4302 -0.6823  0.6649
 5862TIP3    H139001   4.214   2.210   0.054  1.3287  0.0632  2.0504
 5862TIP3    H239002   4.106   2.197   0.158 -0.6244 -1.1640 -0.0442
 5863TIP3   OH239003   2.609   5.812  14.050 -0.2868 -0.0405  0.5152
 5863TIP3    H139004   2.688   5.799  13.998 -0.8314  1.1903 -0.6763
 5863TIP3    H239005   2.591   5.905  14.043 -1.2015 -0.1083  1.7297
 5864TIP3   OH239006   3.505   5.624   5.419 -0.0509  0.5564 -0.2709
 5864TIP3    H139007   3.494   5.563   5.492 -1.1656  0.1960 -0.7171
 5864TIP3    H239008   3.593   5.607   5.387  0.3543  0.5218  0.8093
 5865TIP3   OH239009   6.539   0.980   1.153  0.0527  0.3230 -0.1241
 5865TIP3    H139010   6.547   0.914   1.085 -3.2177 -2.3389  1.7495
 5865TIP3    H239011   6.589   0.945   1.227 -0.3282  0.7855  0.3615
 5866TIP3   OH239012   3.930   4.435  13.850  0.5257 -0.4168 -0.1229
 5866TIP3    H139013   3.847   4.445  13.896  1.2177 -0.2478  1.1427
 5866TIP3    H239014   3.922   4.490  13.772 -0.9019 -1.1934 -0.5569
 5867TIP3   OH239015   5.263   1.740   5.514  0.2239 -0.1407  0.6637
 5867TIP3    H139016   5.350   1.717   5.544  0.7162  0.4702 -0.2204
 5867TIP3    H239017   5.204   1.684   5.563  1.0974 -0.3654  1.4768
 5868TIP3   OH239018   0.134   0.504  13.720 -0.3184 -0.0771 -0.3594
 5868TIP3    H139019   0.048   0.480  13.756 -0.8467  0.9410 -0.8722
 5868TIP3    H239020   0.123   0.596  13.694  0.7173 -0.1490 -1.0779
 5869TIP3   OH239021   1.846   6.676   3.068 -0.6094  0.0092 -0.0568
 5869TIP3    H139022   1.892   6.631   2.998 -0.0909 -0.4551  0.5645
 5869TIP3    H239023   1.890   6.647   3.148  0.6182  2.5923  0.3140
 5870TIP3   OH239024   1.733   5.773  16.730  0.0052  0.4948  0.1931
 5870TIP3    H139025   1.704   5.682  16.725 -1.1868  0.7193  2.1588
 5870TIP3    H239026   1.691   5.816  16.656  0.2330 -0.4415 -0.4995
 5871TIP3   OH239027   3.469   2.655  14.387  0.1352  0.3865  0.3328
 5871TIP3    H139028   3.394   2.714  14.383  1.4966  2.1494 -0.4613
 5871TIP3    H239029   3.437   2.579  14.434 -2.7931  0.0748 -1.8880
 5872TIP3   OH239030   3.438   0.495  15.024  0.4412  0.2735 -0.1026
 5872TIP3    H139031   3.350   0.489  14.987  1.2273 -0.1948 -2.0421
 5872TIP3    H239032   3.445   0.419  15.081 -1.1215  1.4961  1.8278
 5873TIP3   OH239033   3.956   3.798  17.049 -0.5241  0.6625 -0.5001
 5873TIP3    H139034   4.017   3.868  17.025 -0.2508 -0.0231 -1.9170
 5873TIP3    H239035   4.012   3.721  17.064 -1.0064 -0.0374 -2.0575
 5874TIP3   OH239036   6.624   1.815   2.425 -0.1691 -0.2812  0.4735
 5874TIP3    H139037   6.709   1.851   2.449 -1.3354  1.1861  2.7870
 5874TIP3    H239038   6.592   1.773   2.505 -1.1899 -1.7717 -0.6513
 5875TIP3   OH239039   3.662   1.191   3.045  0.2760 -0.0494  0.1229
 5875TIP3    H139040   3.653   1.245   2.966 -1.7339 -1.1119 -0.4453
 5875TIP3    H239041   3.630   1.105   3.018  0.1424 -0.6008  1.9570
 5876TIP3   OH239042   6.724   0.251  15.746  0.1549  0.5935  0.4416
 5876TIP3    H139043   6.749   0.344  15.751  0.1225  0.5848  0.7513
 5876TIP3    H239044   6.753   0.214  15.829 -1.9360  0.8434  1.3345
 5877TIP3   OH239045   1.222   5.115   3.147  0.0257  0.4486  0.1860
 5877TIP3    H139046   1.164   5.059   3.095 -1.1213 -1.2655  3.0511
 5877TIP3    H239047   1.305   5.114   3.100 -0.5320 -2.1549 -0.9217
 5878TIP3   OH239048   1.158   1.407   1.594  0.7531 -0.1787  0.4930
 5878TIP3    H139049   1.110   1.409   1.676 -0.1613 -0.2038 -0.0313
 5878TIP3    H239050   1.237   1.458   1.611  0.2459  0.3954  1.1862
 5879TIP3   OH239051   5.141   0.266   2.785  0.7026  0.0678  0.5366
 5879TIP3    H139052   5.232   0.298   2.784  0.6989  0.0701  0.0918
 5879TIP3    H239053   5.129   0.227   2.699 -0.0214  0.9311  0.2273
 5880TIP3   OH239054   0.346   3.899   1.027  0.3012  0.2864  0.8565
 5880TIP3    H139055   0.275   3.898   1.091  0.4058 -1.0318  0.9701
 5880TIP3    H239056   0.414   3.844   1.065  1.3682  1.4714  0.7094
 5881TIP3   OH239057   2.740   3.104   2.621 -0.2253  0.0709 -0.0484
 5881TIP3    H139058   2.734   3.150   2.705  2.2904 -0.4662  0.4925
 5881TIP3    H239059   2.817   3.048   2.629  0.2472  0.1745 -2.8003
 5882TIP3   OH239060   4.431   0.511  11.873  0.4678 -0.0993  0.1987
 5882TIP3    H139061   4.352   0.543  11.829 -0.0457 -0.3921  0.8800
 5882TIP3    H239062   4.440   0.421  11.841  0.9077  0.1461 -0.3798
 5883TIP3   OH239063   4.805   5.445   4.645 -0.2625 -0.4993 -0.0169
 5883TIP3    H139064   4.814   5.370   4.704 -2.3035 -1.7130 -1.1303
 5883TIP3    H239065   4.894   5.465   4.617  0.6419 -0.5791  2.5703
 5884TIP3   OH239066   5.676   3.375  13.965 -1.1308 -0.2073  0.0835
 5884TIP3    H139067   5.682   3.458  14.012 -1.7514 -1.0218  1.6539
 5884TIP3    H239068   5.633   3.316  14.026  2.1400 -2.6343  0.3004
 5885TIP3   OH239069   5.338   3.452  12.226  0.5098 -0.2011  0.2386
 5885TIP3    H139070   5.401   3.384  12.203 -0.3932 -0.7794 -0.6374
 5885TIP3    H239071   5.275   3.408  12.283  0.4584  0.1626  0.4672
 5886TIP3   OH239072   2.415   5.662  14.293 -0.2379  0.9202  0.0742
 5886TIP3    H139073   2.477   5.735  14.304  0.5320  0.3078 -0.0799
 5886TIP3    H239074   2.382   5.646  14.381  3.6160 -1.9685  1.2928
 5887TIP3   OH239075   2.690   4.840  15.433 -0.1112  0.0006 -0.7313
 5887TIP3    H139076   2.616   4.849  15.493  1.4174 -0.1265  1.2835
 5887TIP3    H239077   2.654   4.797  15.356 -1.8241 -1.5894  0.8560
 5888TIP3   OH239078   2.891   3.967   2.757 -0.7776  0.0335 -0.3225
 5888TIP3    H139079   2.905   3.875   2.782 -0.0538 -0.0939 -1.1629
 5888TIP3    H239080   2.927   4.017   2.829  1.0024 -0.3346 -0.9065
 5889TIP3   OH239081   0.105   2.409  12.892  0.0211 -0.4556  0.1029
 5889TIP3    H139082   0.048   2.334  12.873 -1.6469  0.8554 -0.3312
 5889TIP3    H239083   0.066   2.449  12.970  0.2525  0.5473 -0.2827
 5890TIP3   OH239084   1.246   1.428   0.477  0.8482  0.3085  0.0288
 5890TIP3    H139085   1.257   1.514   0.436 -1.6614 -0.5092 -2.7068
 5890TIP3    H239086   1.156   1.427   0.507  0.2535 -1.9077 -1.5719
 5891TIP3   OH239087   3.806   1.776   1.648 -0.0389  0.0501 -0.3650
 5891TIP3    H139088   3.727   1.822   1.620  0.9672  1.3574 -1.1935
 5891TIP3    H239089   3.864   1.845   1.680  1.3591 -0.6866 -1.2292
 5892TIP3   OH239090   2.762   2.441  10.557 -0.1603  0.1834 -0.6455
 5892TIP3    H139091   2.807   2.522  10.535  1.0458  0.5574  2.6702
 5892TIP3    H239092   2.671   2.467  10.572  0.4155  1.2366  1.4191
 5893TIP3   OH239093   1.746   5.830   4.448  0.0333  0.1407 -0.7189
 5893TIP3    H139094   1.754   5.826   4.544  3.4328 -1.8176 -0.9425
 5893TIP3    H239095   1.740   5.923   4.429  0.6821  0.6584  1.3355
 5894TIP3   OH239096   2.524   3.901  15.285 -0.1342  0.1426  0.0829
 5894TIP3    H139097   2.550   3.872  15.198 -2.4070  0.9306 -0.9280
 5894TIP3    H239098   2.595   3.958  15.314  2.6675 -3.2408  0.5839
 5895TIP3   OH239099   1.506   2.989  15.793 -0.0851 -0.1657  0.0732
 5895TIP3    H139100   1.422   2.945  15.809 -0.1350  0.3215  1.3072
 5895TIP3    H239101   1.483   3.066  15.742 -0.5237  0.3869  1.0718
 5896TIP3   OH239102   5.221   2.538   5.775 -0.4503  0.8505  0.4103
 5896TIP3    H139103   5.206   2.476   5.703 -0.7781 -1.0028  1.9960
 5896TIP3    H239104   5.310   2.569   5.761  0.1523 -0.8717  0.1855
 5897TIP3   OH239105   0.613   2.562   3.599  0.1165  0.0419  0.3558
 5897TIP3    H139106   0.588   2.654   3.586 -0.9036 -0.2959 -0.1622
 5897TIP3    H239107   0.607   2.549   3.693 -2.7257 -0.2703  0.2235
 5898TIP3   OH239108   1.930   2.912   2.767  0.2803 -0.0049  0.2325
 5898TIP3    H139109   1.902   2.934   2.678  1.6118 -1.0493 -0.4862
 5898TIP3    H239110   1.955   2.996   2.806 -0.6785  0.5104 -0.2309
 5899TIP3   OH239111   1.288   5.483  13.797  0.3500 -0.6169  0.2452
 5899TIP3    H139112   1.292   5.433  13.878  1.0647 -0.0118  0.5854
 5899TIP3    H239113   1.206   5.532  13.802  0.0561 -1.1067  0.2825
 5900TIP3   OH239114   6.013   4.055  11.236  0.2604  0.0400 -0.3478
 5900TIP3    H139115   5.978   4.035  11.149  0.2854 -0.3338 -0.2736
 5900TIP3    H239116   5.974   3.989  11.293  0.4183  0.1486 -0.1142
 5901TIP3   OH239117   0.410   4.077  11.724 -0.4259  0.8110 -0.2013
 5901TIP3    H139118   0.481   4.136  11.695 -1.5518  1.8405 -0.9755
 5901TIP3    H239119   0.406   4.089  11.818  2.3686 -1.5201  0.3622
 5902TIP3   OH239120   2.801   3.318   2.791 -0.3317  0.1944  0.3463
 5902TIP3    H139121   2.793   3.360   2.705  2.4423  1.1251  0.4603
 5902TIP3    H239122   2.760   3.380   2.852  0.3882  0.9768  0.0473
 5903TIP3   OH239123   5.742   6.114   2.481 -0.2811  0.0519  0.4394
 5903TIP3    H139124   5.744   6.020   2.462 -0.1178 -0.1061  1.2107
 5903TIP3    H239125   5.739   6.119   2.577 -0.4971  0.8308  0.3979
 5904TIP3   OH239126   5.400   2.205   3.988 -0.0880 -0.1184  0.4354
 5904TIP3    H139127   5.313   2.243   3.997  0.2502  0.7749  0.0280
 5904TIP3    H239128   5.398   2.161   3.903 -0.1222 -0.0625  0.4077
 5905TIP3   OH239129   4.409   5.094  11.485  0.1874  0.0096 -0.0089
 5905TIP3    H139130   4.463   5.144  11.424 -1.1144  0.9040 -0.4586
 5905TIP3    H239131   4.388   5.156  11.555 -1.8921  0.3071 -0.8428
 5906TIP3   OH239132   3.620   3.546  12.711 -0.0132 -0.3558  0.1376
 5906TIP3    H139133   3.620   3.633  12.752  0.7407  0.2503 -1.1137
 5906TIP3    H239134   3.529   3.532  12.685  0.0547  0.5507 -0.6369
 5907TIP3   OH239135   1.010   3.613   5.471  0.3425  0.5162 -0.2947
 5907TIP3    H139136   1.083   3.669   5.496 -0.3886  1.1366  0.4924
 5907TIP3    H239137   0.988   3.566   5.551  0.6978 -0.6333 -0.8512
 5908TIP3   OH239138   6.064   6.762  15.665 -0.0197 -0.5652  0.4079
 5908TIP3    H139139   6.143   6.733  15.620 -0.5543 -1.0316 -0.2545
 5908TIP3    H239140   6.094   6.829  15.727  0.9548 -1.0998  0.5294
 5909TIP3   OH239141   3.050   4.255  11.608 -0.2691 -0.5026  0.3046
 5909TIP3    H139142   3.025   4.334  11.561 -0.8374  0.2714  1.8386
 5909TIP3    H239143   3.146   4.253  11.604 -0.2661  0.1282  0.0580
 5910TIP3   OH239144   3.958   1.218  14.459  0.1389 -0.2340 -0.1060
 5910TIP3    H139145   3.931   1.130  14.486  0.7128  0.1679  1.8800
 5910TIP3    H239146   3.899   1.239  14.386 -2.1510 -0.9994  1.4289
 5911TIP3   OH239147   3.400   4.338   4.026 -0.2296  0.2077 -0.2245
 5911TIP3    H139148   3.488   4.356   3.991  0.0562 -0.6060  0.0458
 5911TIP3    H239149   3.403   4.246   4.051 -1.3683 -0.0101 -0.8037
 5912TIP3   OH239150   5.979   0.396   4.912  1.2130  0.5832 -0.5022
 5912TIP3    H139151   5.916   0.326   4.895 -0.9548  0.8172  4.7231
 5912TIP3    H239152   5.932   0.476   4.887  1.3233  0.5018 -0.9740
 5913TIP3   OH239153   1.512   1.250   4.461 -0.2330  0.4524  0.1051
 5913TIP3    H139154   1.591   1.206   4.492 -0.2689 -1.0016 -1.6829
 5913TIP3    H239155   1.451   1.179   4.439 -1.5771  1.5036  0.2753
 5914TIP3   OH239156   5.896   0.144   1.057 -0.2592 -0.4034 -0.5772
 5914TIP3    H139157   5.879   0.069   1.114 -0.2313  0.7339  1.0125
 5914TIP3    H239158   5.821   0.203   1.072  0.9951  1.0442  0.2562
 5915TIP3   OH239159   5.444   3.498   4.452  0.0677 -0.8732 -0.4100
 5915TIP3    H139160   5.405   3.495   4.539 -3.7764  0.5361 -1.8510
 5915TIP3    H239161   5.520   3.555   4.461 -1.5296  1.1004  1.6701
 5916TIP3   OH239162   3.632   3.761  16.062 -0.6347 -0.6415 -0.0070
 5916TIP3    H139163   3.649   3.672  16.091  1.1374 -0.1814  0.4809
 5916TIP3    H239164   3.561   3.792  16.118  0.3949 -0.9349  1.5057
 5917TIP3   OH239165   0.990   1.768   3.605 -0.2933  0.3796 -0.2810
 5917TIP3    H139166   0.900   1.782   3.634 -0.4981  0.0420 -0.7407
 5917TIP3    H239167   0.984   1.701   3.536  0.2973  0.4056 -0.3709
 5918TIP3   OH239168   2.479   4.287   6.625 -0.3484  0.6128 -0.3651
 5918TIP3    H139169   2.519   4.285   6.538 -0.8658  1.0383 -0.6158
 5918TIP3    H239170   2.470   4.195   6.648  0.4608  0.4994 -0.4436
 5919TIP3   OH239171   0.950   1.866  14.284  0.0396  0.0220 -0.3910
 5919TIP3    H139172   1.046   1.874  14.279  0.0048 -0.0550 -1.1967
 5919TIP3    H239173   0.920   1.953  14.309  0.2054  0.5015 -1.7803
 5920TIP3   OH239174   3.008   5.833  13.296 -0.3649 -0.3909  0.0270
 5920TIP3    H139175   3.008   5.919  13.338  1.1255 -0.5509  0.4341
 5920TIP3    H239176   3.100   5.818  13.273 -0.7858 -1.3617 -1.1256
 5921TIP3   OH239177   1.268   6.693  16.319  0.5041  0.4617 -0.3794
 5921TIP3    H139178   1.347   6.678  16.371  2.7019 -0.1670 -3.6542
 5921TIP3    H239179   1.232   6.606  16.305  0.0776  0.6025 -0.1825
 5922TIP3   OH239180   1.927   2.058   0.666  0.2332  0.3606  0.3343
 5922TIP3    H139181   1.898   2.076   0.755  1.4116 -1.5614  1.1884
 5922TIP3    H239182   1.869   2.109   0.610 -1.8317  0.0720  2.1085
 5923TIP3   OH239183   5.354   5.998   6.196  0.4809  0.0127 -0.0711
 5923TIP3    H139184   5.322   6.001   6.287  1.4493  1.7088  0.2570
 5923TIP3    H239185   5.340   6.086   6.163  1.1204 -0.3043 -1.2268
 5924TIP3   OH239186   5.140   1.322   2.495 -0.1475 -0.3519  0.1719
 5924TIP3    H139187   5.205   1.338   2.563  1.0678  0.7815 -1.1802
 5924TIP3    H239188   5.187   1.338   2.413 -2.4494  1.8238 -0.8560
 5925TIP3   OH239189   0.056   1.916  11.905 -0.0062 -0.3634  0.3947
 5925TIP3    H139190   0.123   1.848  11.903 -1.3672 -1.7571 -0.9720
 5925TIP3    H239191   0.013   1.910  11.820 -1.9474  0.3652  1.2473
 5926TIP3   OH239192   4.798   6.335  15.831 -0.2389  0.2067 -0.2111
 5926TIP3    H139193   4.750   6.314  15.751 -0.9184 -0.4678  0.3533
 5926TIP3    H239194   4.836   6.251  15.859 -2.5287 -0.2687  1.7815
 5927TIP3   OH239195   5.537   4.631   0.635  0.6852 -1.3451 -0.5442
 5927TIP3    H139196   5.600   4.623   0.706  0.9901 -1.4485 -0.8240
 5927TIP3    H239197   5.453   4.643   0.679  1.1601  1.0105 -0.1388
 5928TIP3   OH239198   6.075   3.196   2.018  0.2388 -0.0332  0.2973
 5928TIP3    H139199   6.001   3.242   1.978 -0.1365  0.7033  1.7622
 5928TIP3    H239200   6.042   3.108   2.035 -0.3542  0.3178  1.0289
 5929TIP3   OH239201   3.481   3.574  14.918  0.2308 -0.2693 -0.1639
 5929TIP3    H139202   3.573   3.555  14.938  0.8854  0.4547 -2.1598
 5929TIP3    H239203   3.480   3.588  14.823 -1.8117  0.5082 -0.0839
 5930TIP3   OH239204   6.177   5.374  11.840 -0.7593  0.2071  0.0042
 5930TIP3    H139205   6.183   5.408  11.750  0.9971  1.2168  0.4671
 5930TIP3    H239206   6.108   5.426  11.881  0.2656  1.6257 -0.0027
 5931TIP3   OH239207   6.448   0.117   5.440  0.3125  0.0014 -0.2160
 5931TIP3    H139208   6.402   0.075   5.513  0.0064 -0.1327 -0.4888
 5931TIP3    H239209   6.440   0.055   5.368 -0.8534  0.8848 -0.8746
 5932TIP3   OH239210   5.377   5.631  12.684  0.2893  0.2911  0.1423
 5932TIP3    H139211   5.343   5.707  12.731 -2.3190  0.5625 -1.9150
 5932TIP3    H239212   5.346   5.643  12.594  1.5000 -2.2260 -0.7081
 5933TIP3   OH239213   3.612   5.634  16.353  0.1094 -0.3056 -0.9249
 5933TIP3    H139214   3.697   5.619  16.312  1.2045  0.5293  0.9113
 5933TIP3    H239215   3.627   5.705  16.415 -1.6720 -0.8341  0.2020
 5934TIP3   OH239216   5.641   0.763   0.273  0.2042  0.0240 -0.7460
 5934TIP3    H139217   5.687   0.831   0.322 -1.6511  0.9300 -0.1458
 5934TIP3    H239218   5.639   0.688   0.333  1.0967 -0.1315 -0.8926
 5935TIP3   OH239219   2.505   2.712  14.732 -0.1382 -0.1289 -0.0757
 5935TIP3    H139220   2.522   2.645  14.798  0.9021  2.0632  2.0259
 5935TIP3    H239221   2.587   2.719  14.682 -0.3880 -0.6782 -0.5735
 5936TIP3   OH239222   5.076   6.162   2.406  0.1794 -0.0718 -0.0242
 5936TIP3    H139223   5.036   6.119   2.482  0.9039  0.8481  0.8975
 5936TIP3    H239224   5.044   6.112   2.331  0.3769 -1.7192  0.9571
 5937TIP3   OH239225   6.059   0.975  14.435  0.0542 -0.4492  0.1681
 5937TIP3    H139226   6.058   1.070  14.441 -0.6791 -0.5193  1.5378
 5937TIP3    H239227   6.152   0.952  14.438  0.2728  0.2352 -0.8224
 5938TIP3   OH239228   3.427   1.703   5.833 -0.0240  0.8053 -0.5213
 5938TIP3    H139229   3.496   1.660   5.782  1.0372  0.8431  0.8153
 5938TIP3    H239230   3.460   1.792   5.847 -0.0893  0.6829  0.5434
 5939TIP3   OH239231   0.235   2.087   5.880 -0.1928 -0.5975 -0.2919
 5939TIP3    H139232   0.175   2.088   5.805  0.2146 -0.1654 -0.6102
 5939TIP3    H239233   0.214   2.166   5.929  0.5325 -0.1290 -0.7318
 5940TIP3   OH239234   1.360   4.345   3.641 -0.4173 -0.0064 -0.1327
 5940TIP3    H139235   1.371   4.254   3.670  0.5605  0.6371  1.7342
 5940TIP3    H239236   1.298   4.340   3.569  0.0674 -2.2175 -0.4824
 5941TIP3   OH239237   0.605   0.063  13.752  0.1098  0.1475  0.3894
 5941TIP3    H139238   0.697   0.049  13.772  0.4745  2.1809  0.4014
 5941TIP3    H239239   0.579   0.135  13.809 -1.2622  0.1400 -0.1860
 5942TIP3   OH239240   6.204   4.973  16.022  0.5337  0.3071 -0.0015
 5942TIP3    H139241   6.199   4.895  16.077 -0.9847  0.8230  0.6383
 5942TIP3    H239242   6.169   4.945  15.937 -1.9949  0.7378  0.8174
 5943TIP3   OH239243   4.357   3.641  14.663 -0.0165 -0.3092  0.4996
 5943TIP3    H139244   4.445   3.604  14.669  0.0757  0.1185  2.3372
 5943TIP3    H239245   4.298   3.568  14.685 -0.5362 -1.7266 -4.3724
 5944TIP3   OH239246   4.761   1.183   3.881 -0.0612 -0.2961 -0.6040
 5944TIP3    H139247   4.833   1.241   3.854  0.6825 -0.2955  1.2488
 5944TIP3    H239248   4.707   1.175   3.803  1.1109  0.9710 -1.6040
 5945TIP3   OH239249   6.381   6.126   4.628  0.4051 -0.0197 -0.1882
 5945TIP3    H139250   6.442   6.177   4.681  2.4221 -1.3321 -1.1376
 5945TIP3    H239251   6.338   6.067   4.691  0.7025  0.3577  0.3749
 5946TIP3   OH239252   3.456   2.514   4.487 -0.2189  0.1206  0.3071
 5946TIP3    H139253   3.418   2.602   4.496 -1.9289 -0.5037 -0.4475
 5946TIP3    H239254   3.409   2.475   4.414  0.8807 -1.2668  0.2905
 5947TIP3   OH239255   6.532   5.045  14.622  0.0138  0.0061  0.2266
 5947TIP3    H139256   6.584   5.124  14.634  1.1627 -0.6846 -0.0751
 5947TIP3    H239257   6.590   4.974  14.651 -1.3042 -0.6639  1.3523
 5948TIP3   OH239258   2.236   2.074   2.331  0.4014 -0.3370  0.5558
 5948TIP3    H139259   2.284   2.156   2.333 -0.2565  0.1662 -1.4782
 5948TIP3    H239260   2.302   2.007   2.314  0.4665  0.3781 -2.5407
 5949TIP3   OH239261   5.590   2.608  12.344  0.6177  0.2513 -0.3037
 5949TIP3    H139262   5.594   2.562  12.260  0.4441  0.4624 -0.4282
 5949TIP3    H239263   5.499   2.635  12.352  0.6109  0.1397  0.0023
 5950TIP3   OH239264   0.393   0.782  16.317 -0.4757  0.0054  0.2123
 5950TIP3    H139265   0.362   0.832  16.392  0.9695  1.1637  0.0800
 5950TIP3    H239266   0.477   0.745  16.345 -0.3532 -0.2922 -0.5105
 5951TIP3   OH239267   4.668   2.513   4.435 -0.2128  0.0763 -0.2996
 5951TIP3    H139268   4.660   2.596   4.482  0.7516  1.2653 -2.1076
 5951TIP3    H239269   4.732   2.463   4.484  0.9633  1.3901 -0.4258
 5952TIP3   OH239270   5.043   1.869   0.294  0.1174 -0.0515 -0.4463
 5952TIP3    H139271   5.057   1.807   0.222 -1.0401 -0.5308 -0.2799
 5952TIP3    H239272   4.974   1.829   0.347  0.5957  0.5403  0.6579
 5953TIP3   OH239273   1.059   4.642   1.882 -0.2949 -0.0416  0.0635
 5953TIP3    H139274   1.043   4.559   1.839  1.2053 -1.3297  1.8291
 5953TIP3    H239275   1.142   4.630   1.927 -0.7700  1.8982  1.6011
 5954TIP3   OH239276   4.516   0.881   2.913 -0.0207 -0.4894  0.1444
 5954TIP3    H139277   4.603   0.842   2.918 -0.2808 -1.1866 -0.4248
 5954TIP3    H239278   4.494   0.877   2.819  0.2085  1.6638 -0.0482
 5955TIP3   OH239279   5.202   6.523  17.114 -0.0430  0.0449  0.2909
 5955TIP3    H139280   5.116   6.515  17.073 -1.4774 -2.6553  3.3547
 5955TIP3    H239281   5.263   6.523  17.041 -2.5795  1.8782 -2.0063
 5956TIP3   OH239282   6.265   2.987   3.100  0.0818 -0.5566  0.4269
 5956TIP3    H139283   6.312   3.042   3.163  1.1801 -0.8116 -0.1416
 5956TIP3    H239284   6.173   2.999   3.123  0.3042  1.1518  0.6293
 5957TIP3   OH239285   5.816   5.254  11.621 -0.2893  0.4404 -0.2068
 5957TIP3    H139286   5.800   5.209  11.704 -0.4029  0.1391 -0.3890
 5957TIP3    H239287   5.896   5.215  11.587 -1.7569 -1.5520 -1.6371
 5958TIP3   OH239288   4.627   3.888   5.117 -0.8369  0.6607  0.5359
 5958TIP3    H139289   4.586   3.950   5.057  0.3829 -0.4500 -1.5392
 5958TIP3    H239290   4.592   3.803   5.093  1.0835 -0.0439  0.0780
 5959TIP3   OH239291   2.291   4.630   4.105  0.6048 -0.1900  0.1681
 5959TIP3    H139292   2.322   4.557   4.051 -2.9475 -0.4553 -1.8469
 5959TIP3    H239293   2.303   4.707   4.049  1.3881  0.3194  1.0161
 5960TIP3   OH239294   2.774   0.359  12.184 -0.1136  0.2108 -0.8776
 5960TIP3    H139295   2.705   0.354  12.118  0.4612  1.3844 -1.5891
 5960TIP3    H239296   2.844   0.304  12.149 -0.0980  0.2395 -0.8911
 5961TIP3   OH239297   5.138   0.192   2.177 -0.4263 -0.2520 -0.4299
 5961TIP3    H139298   5.198   0.144   2.121  0.5434  0.4688 -0.0437
 5961TIP3    H239299   5.071   0.128   2.202  0.2161 -1.0884 -0.8214
 5962TIP3   OH239300   4.487   0.207   4.212  0.2067  0.0684 -0.0528
 5962TIP3    H139301   4.509   0.221   4.120  1.9065 -1.2059  0.0939
 5962TIP3    H239302   4.413   0.264   4.228  0.8797  1.5411 -1.7843
 5963TIP3   OH239303   1.352   3.275   3.365  0.1052  0.1200  0.3905
 5963TIP3    H139304   1.340   3.348   3.305 -0.7371 -0.4917 -0.2201
 5963TIP3    H239305   1.396   3.207   3.313  0.8091  0.1587  0.9260
 5964TIP3   OH239306   4.640   6.125   1.263 -0.4498 -0.5668 -0.1243
 5964TIP3    H139307   4.628   6.175   1.181 -0.9740  0.0414  0.3130
 5964TIP3    H239308   4.733   6.105   1.265 -0.8536 -3.3232 -2.4271
 5965TIP3   OH239309   4.922   1.206   2.597  0.1347 -1.0143  0.0394
 5965TIP3    H139310   4.857   1.218   2.529 -0.8813  1.6495  1.3536
 5965TIP3    H239311   5.003   1.243   2.561  0.9011 -3.7813 -1.3600
 5966TIP3   OH239312   2.657   1.331   0.895 -0.2095 -0.1279 -0.4466
 5966TIP3    H139313   2.585   1.279   0.931  0.2202 -2.0732 -2.1656
 5966TIP3    H239314   2.653   1.315   0.801  3.6595 -2.0566 -0.4741
 5967TIP3   OH239315   3.152   1.493   5.477 -0.6928 -0.0452  0.3075
 5967TIP3    H139316   3.142   1.535   5.562  1.5850 -0.6117  0.9295
 5967TIP3    H239317   3.105   1.550   5.416 -1.6149  0.8467  1.7896
 5968TIP3   OH239318   4.546   6.061   0.847  0.1365  1.1709  0.0417
 5968TIP3    H139319   4.571   5.990   0.788  0.9019  0.0374  1.6748
 5968TIP3    H239320   4.487   6.021   0.911  0.6825  1.9496  1.0651
 5969TIP3   OH239321   0.566   6.540  15.678  0.1585  0.6260 -0.3378
 5969TIP3    H139322   0.520   6.516  15.759  1.2327 -0.9816 -0.1737
 5969TIP3    H239323   0.500   6.588  15.628 -1.9911 -2.0704 -0.3690
 5970TIP3   OH239324   6.631   0.378   3.914  0.2850 -0.0012 -0.4083
 5970TIP3    H139325   6.594   0.312   3.972 -0.5794  0.4689 -0.4019
 5970TIP3    H239326   6.563   0.393   3.848  1.9960 -2.0330 -2.8500
 5971TIP3   OH239327   5.653   2.162  16.052  0.1017 -0.1940 -0.0846
 5971TIP3    H139328   5.735   2.121  16.082 -0.9471 -1.0338  1.8469
 5971TIP3    H239329   5.620   2.102  15.985  0.3162 -0.6582  0.2196
 5972TIP3   OH239330   2.304   2.116   5.701  0.4234  0.3859 -0.5629
 5972TIP3    H139331   2.266   2.203   5.696 -1.1402 -0.2293 -0.0756
 5972TIP3    H239332   2.289   2.089   5.792  1.0427 -0.3183 -0.6611
 5973TIP3   OH239333   0.410   6.565  14.892 -0.5864  0.1936 -0.5038
 5973TIP3    H139334   0.330   6.590  14.938  1.1302 -1.0882  3.6191
 5973TIP3    H239335   0.465   6.644  14.894  0.1146 -0.2800  1.3776
 5974TIP3   OH239336   0.019   1.164  13.754 -0.1707 -0.2045  0.2341
 5974TIP3    H139337   0.033   1.203  13.840 -0.4689 -1.8488  1.0434
 5974TIP3    H239338   0.066   1.081  13.756  0.0041 -0.1816 -1.2748
 5975TIP3   OH239339   6.777   6.365   6.490  0.5092 -0.1553 -0.8697
 5975TIP3    H139340   6.828   6.397   6.415  1.1365  0.6323 -0.1212
 5975TIP3    H239341   6.801   6.273   6.498 -1.5626 -1.0293 -3.2563
 5976TIP3   OH239342   0.816   4.221   1.713 -0.2089 -0.6387 -0.1470
 5976TIP3    H139343   0.877   4.154   1.743 -0.6881 -0.4588  1.3017
 5976TIP3    H239344   0.820   4.289   1.780  0.5702  1.0104 -1.7873
 5977TIP3   OH239345   0.129   6.316  16.011 -0.4912  0.4708  0.1127
 5977TIP3    H139346   0.191   6.368  16.061  1.5200 -1.1020 -0.5808
 5977TIP3    H239347   0.058   6.298  16.072  0.0041  1.8411  1.1484
 5978TIP3   OH239348   1.817   2.449   1.156  0.3451 -0.1438  0.1788
 5978TIP3    H139349   1.895   2.491   1.192  0.2501  0.7531 -0.6115
 5978TIP3    H239350   1.776   2.517   1.103 -1.2585 -0.4312  0.9695
 5979TIP3   OH239351   6.652   5.899   3.606  0.2067 -0.4317  0.0017
 5979TIP3    H139352   6.698   5.877   3.525 -0.4010  1.0925 -0.8109
 5979TIP3    H239353   6.721   5.932   3.664  0.2697  1.4879 -1.0744
 5980TIP3   OH239354   4.473   2.757   4.123 -0.4214 -0.3505  0.5802
 5980TIP3    H139355   4.546   2.696   4.126  0.3219  0.4509 -0.4417
 5980TIP3    H239356   4.427   2.734   4.042 -0.2312  0.3198  0.2742
 5981TIP3   OH239357   4.656   4.041   5.363  0.1611  0.1682  0.0885
 5981TIP3    H139358   4.581   3.983   5.347  0.0550  0.3699 -0.1535
 5981TIP3    H239359   4.694   4.055   5.276 -0.5479  1.4536 -0.0354
 5982TIP3   OH239360   1.036   4.624  14.733 -0.0146  0.0846  0.0102
 5982TIP3    H139361   1.019   4.660  14.820  0.0387  0.7286 -0.2405
 5982TIP3    H239362   0.986   4.543  14.730 -0.4746  0.3513  0.4310
 5983TIP3   OH239363   5.218   3.704   0.679  0.1237 -0.4262 -0.0391
 5983TIP3    H139364   5.293   3.753   0.715 -0.3329 -0.7670  1.4467
 5983TIP3    H239365   5.204   3.633   0.742 -0.5185 -1.2593 -1.0948
 5984TIP3   OH239366   6.153   3.696   2.483 -0.1720 -0.1467  0.1012
 5984TIP3    H139367   6.130   3.777   2.529  1.0056 -0.3160  1.0627
 5984TIP3    H239368   6.132   3.712   2.392 -1.4489  0.6594  0.5174
 5985TIP3   OH239369   3.530   4.420  15.916 -0.0535  0.1395 -0.3029
 5985TIP3    H139370   3.481   4.490  15.873 -0.4094 -0.7339 -1.3529
 5985TIP3    H239371   3.502   4.340  15.872 -1.4546 -1.0071  2.4254
 5986TIP3   OH239372   4.485   0.422  13.676  0.4821 -0.5835  0.4289
 5986TIP3    H139373   4.403   0.381  13.648  1.3573 -0.9304 -1.8903
 5986TIP3    H239374   4.478   0.512  13.644  1.6377 -1.0659 -1.2822
 5987TIP3   OH239375   5.455   5.798  14.724  0.2869  0.0304  0.8481
 5987TIP3    H139376   5.481   5.818  14.814  0.2751  0.3889  0.7717
 5987TIP3    H239377   5.517   5.731  14.696  0.7323  0.4208  0.8881
 5988TIP3   OH239378   5.848   6.552   0.287 -0.0002 -1.1429  0.4722
 5988TIP3    H139379   5.762   6.517   0.310 -0.8361  2.0762  2.9719
 5988TIP3    H239380   5.905   6.525   0.358  0.7760 -2.0684 -0.4665
 5989TIP3   OH239381   0.556   6.698   0.924  0.4100 -0.0611  0.0824
 5989TIP3    H139382   0.608   6.771   0.958  0.4943  0.2896 -0.7633
 5989TIP3    H239383   0.465   6.722   0.941  0.4309  0.3149 -0.3274
 5990TIP3   OH239384   4.538   4.479  14.401 -0.2471 -0.2199  0.3848
 5990TIP3    H139385   4.512   4.394  14.366  0.2993 -0.8238  1.3807
 5990TIP3    H239386   4.562   4.461  14.492 -0.8085  1.1358  0.8316
 5991TIP3   OH239387   3.592   4.384   5.480  0.4608 -0.1255 -0.0608
 5991TIP3    H139388   3.595   4.471   5.520 -0.2164  1.2731 -2.8209
 5991TIP3    H239389   3.652   4.331   5.533  2.1582  2.4337  0.7286
 5992TIP3   OH239390   3.417   4.501   1.128  0.1270  0.1616  0.0947
 5992TIP3    H139391   3.444   4.412   1.107 -0.2985 -0.0785  0.5483
 5992TIP3    H239392   3.497   4.544   1.159  0.2448 -0.1901  0.2792
 5993TIP3   OH239393   4.193   6.737  17.199  0.0744 -0.4142 -0.0016
 5993TIP3    H139394   4.195   6.779  17.285 -1.1606 -1.0308  0.3546
 5993TIP3    H239395   4.166   6.807  17.139 -0.0328 -0.2184  0.2717
 5994TIP3   OH239396   2.704   1.692   4.585  0.7171  0.2775 -0.0457
 5994TIP3    H139397   2.673   1.759   4.525  1.7120  0.2810 -0.5790
 5994TIP3    H239398   2.726   1.617   4.529  1.4635  0.2089  0.3267
 5995TIP3   OH239399   0.942   6.141  15.633  0.1141 -0.3773 -0.2214
 5995TIP3    H139400   0.963   6.206  15.699 -0.8015  0.5962 -0.8649
 5995TIP3    H239401   1.022   6.133  15.581 -0.2085  1.3357 -1.0306
 5996TIP3   OH239402   1.980   0.679   4.661  0.0565 -0.0496 -0.1673
 5996TIP3    H139403   1.962   0.589   4.636  2.5776 -1.0731  1.3020
 5996TIP3    H239404   2.051   0.706   4.604 -1.8277  1.7440 -1.8247
 5997TIP3   OH239405   0.811   5.329  12.621  0.9060  0.2522 -0.7401
 5997TIP3    H139406   0.740   5.340  12.685  0.6743  0.0084 -0.9524
 5997TIP3    H239407   0.836   5.418  12.598 -0.7083  0.3824 -2.1896
 5998TIP3   OH239408   0.473   0.722  14.074  0.0985  0.3211 -0.0987
 5998TIP3    H139409   0.478   0.626  14.070  1.1597  0.3895 -0.5361
 5998TIP3    H239410   0.525   0.746  14.151  0.8289  0.6132 -0.6743
 5999TIP3   OH239411   4.477   4.552   1.071 -0.5779  0.4830  0.3625
 5999TIP3    H139412   4.481   4.575   0.978 -0.1924 -0.5508  0.1216
 5999TIP3    H239413   4.491   4.636   1.116 -0.3859  0.9308 -0.4987
 6000TIP3   OH239414   3.840   3.979  16.027 -0.1116  0.3702  0.8707
 6000TIP3    H139415   3.748   3.996  16.007  0.0982  1.1091  0.4741
 6000TIP3    H239416   3.843   3.887  16.052 -1.1582  0.6344  2.0884
 6001TIP3   OH239417   3.313   0.685  13.601  0.0172 -0.5725 -0.0130
 6001TIP3    H139418   3.285   0.755  13.542  1.6149  0.0620 -0.0617
 6001TIP3    H239419   3.357   0.621  13.544  0.8687 -0.3373  0.3648
 6002TIP3   OH239420   6.315   0.659   0.177 -0.0949 -0.3170  0.0739
 6002TIP3    H139421   6.290   0.591   0.240  0.7134 -0.2213  0.5100
 6002TIP3    H239422   6.265   0.736   0.204 -1.2787 -0.7974 -0.6264
 6003TIP3   OH239423   4.569   1.357  13.308 -0.5284 -0.2261 -0.1708
 6003TIP3    H139424   4.488   1.326  13.268  0.1331 -0.4764 -1.3781
 6003TIP3    H239425   4.614   1.403  13.237  0.8885 -1.0464  0.1662
 6004TIP3   OH239426   6.609   0.678  14.213 -0.4237  0.2694 -0.3663
 6004TIP3    H139427   6.659   0.714  14.140 -2.7193  1.9618 -1.2532
 6004TIP3    H239428   6.520   0.710  14.199 -0.9676  0.8456  3.2748
 6005TIP3   OH239429   3.958   6.729   3.035  0.1609  0.5401 -0.1368
 6005TIP3    H139430   4.013   6.771   2.969 -1.7149  1.2111 -1.3580
 6005TIP3    H239431   3.914   6.802   3.079 -2.0554 -0.0133 -1.2995
 6006TIP3   OH239432   4.842   4.688  15.754  0.4144 -0.1301 -0.3956
 6006TIP3    H139433   4.934   4.661  15.761 -0.1359 -1.7103  1.6874
 6006TIP3    H239434   4.833   4.717  15.663  3.1045  0.7019 -0.4906
 6007TIP3   OH239435   1.777   5.347  13.625  0.0158  0.0628 -0.1944
 6007TIP3    H139436   1.698   5.366  13.675  0.0859 -3.3030  1.4856
 6007TIP3    H239437   1.832   5.296  13.685  2.3952  0.1858 -2.0966
 6008TIP3   OH239438   4.557   4.244  13.418 -0.1939  0.0945 -0.3079
 6008TIP3    H139439   4.596   4.246  13.506 -1.2295 -1.8983  0.2429
 6008TIP3    H239440   4.464   4.229  13.433 -0.2533 -1.1913 -1.7595
 6009TIP3   OH239441   5.111   4.522   6.035 -0.2067  0.1479  0.2853
 6009TIP3    H139442   5.070   4.529   5.949 -0.9061  1.2430  0.6942
 6009TIP3    H239443   5.098   4.430   6.060  1.8667 -0.7775 -1.6538
 6010TIP3   OH239444   2.407   0.021  13.036 -0.0825 -0.0327 -0.0522
 6010TIP3    H139445   2.482  -0.004  13.091  1.6796  0.2439 -2.1982
 6010TIP3    H239446   2.354   0.076  13.093  2.9230  2.3248  0.7601
 6011TIP3   OH239447   0.739   6.522   0.808 -0.5660 -0.1516  0.0236
 6011TIP3    H139448   0.672   6.584   0.838 -2.9233 -1.8805 -1.3502
 6011TIP3    H239449   0.768   6.478   0.888 -2.4626 -0.6295  0.5110
 6012TIP3   OH239450   1.588   1.749   6.177  0.5414  0.7170  0.4491
 6012TIP3    H139451   1.583   1.840   6.147  2.0629  0.7596  0.2610
 6012TIP3    H239452   1.677   1.722   6.157 -0.0554 -1.0160  0.0036
 6013TIP3   OH239453   1.200   1.484  12.773 -0.2663  0.0256  0.0739
 6013TIP3    H139454   1.188   1.575  12.747 -2.0833 -0.2219 -0.1456
 6013TIP3    H239455   1.276   1.484  12.830  0.0740  1.5916 -0.3450
 6014TIP3   OH239456   2.301   5.610  12.893  0.0950 -0.6188  0.3470
 6014TIP3    H139457   2.353   5.668  12.948 -1.4795 -0.7449  2.0985
 6014TIP3    H239458   2.325   5.522  12.922 -1.5398 -0.6735  1.7609
 6015TIP3   OH239459   3.535   6.535   0.925 -0.4577 -0.4854 -0.3929
 6015TIP3    H139460   3.592   6.467   0.890  0.6535 -0.2026  0.7999
 6015TIP3    H239461   3.554   6.537   1.018 -1.5225  0.4929 -0.1688
 6016TIP3   OH239462   6.722   1.823   4.105 -0.0882 -0.7457  0.2815
 6016TIP3    H139463   6.786   1.868   4.160  1.1553 -1.6020 -0.4064
 6016TIP3    H239464   6.734   1.861   4.018 -0.6523 -0.7880  0.1825
 6017TIP3   OH239465   3.816   3.752   4.164  0.0014  0.0949  0.4006
 6017TIP3    H139466   3.876   3.699   4.217 -0.6058 -0.3181  0.6803
 6017TIP3    H239467   3.791   3.824   4.221  0.5307  0.4863  0.1488
 6018TIP3   OH239468   0.150   3.455   1.079 -0.0847 -0.2629 -0.2202
 6018TIP3    H139469   0.100   3.531   1.050 -0.2575 -0.5796 -0.7525
 6018TIP3    H239470   0.214   3.491   1.142 -1.7183 -0.0111  1.3732
 6019TIP3   OH239471   3.465   2.536  16.752 -0.2388  0.1313  1.0373
 6019TIP3    H139472   3.484   2.629  16.737  2.0700 -0.2316  1.4577
 6019TIP3    H239473   3.456   2.528  16.847  0.3896 -0.2152  1.0698
 6020TIP3   OH239474   3.199   2.294  12.318  0.3766 -0.0618 -0.7358
 6020TIP3    H139475   3.293   2.281  12.306  0.0048 -2.3798 -1.7499
 6020TIP3    H239476   3.179   2.373  12.268  1.7211  0.2146 -0.8695
 6021TIP3   OH239477   3.298   1.140  17.196  0.2655  0.3001  0.4313
 6021TIP3    H139478   3.247   1.127  17.276 -0.0654  2.1590  0.5481
 6021TIP3    H239479   3.389   1.142  17.226  0.2370 -0.2421  0.5764
 6022TIP3   OH239480   4.480   3.991  12.835 -0.3443  0.5035  0.2903
 6022TIP3    H139481   4.397   4.029  12.806 -0.2566  0.1567 -0.4221
 6022TIP3    H239482   4.546   4.031  12.779 -0.4030 -1.8103 -1.5956
 6023TIP3   OH239483   2.610   1.843  11.101  0.0391 -0.4916 -0.5144
 6023TIP3    H139484   2.630   1.755  11.069  0.3780 -0.9765  0.9712
 6023TIP3    H239485   2.694   1.887  11.108 -0.1586  0.1017 -1.5970
 6024TIP3   OH239486   6.435   0.679   5.190 -0.0145  0.2582 -0.2076
 6024TIP3    H139487   6.408   0.654   5.102 -0.0485  1.5321 -0.5839
 6024TIP3    H239488   6.386   0.621   5.248 -0.1866 -0.4229 -1.0204
 6025TIP3   OH239489   6.242   4.095   0.763  0.5326 -0.4527  0.0497
 6025TIP3    H139490   6.290   4.059   0.689  0.1897 -0.2589 -0.2675
 6025TIP3    H239491   6.294   4.070   0.840  0.7947 -0.8021 -0.2400
 6026TIP3   OH239492   2.442   1.445   4.535 -1.1162  0.2681 -0.4494
 6026TIP3    H139493   2.431   1.379   4.467 -0.1694 -2.4077  1.8132
 6026TIP3    H239494   2.536   1.462   4.538 -1.2084  0.7730 -0.1633
 6027TIP3   OH239495   5.792   1.736   0.090 -0.7918  0.3088  0.2244
 6027TIP3    H139496   5.722   1.758   0.029 -0.6218  0.0911 -0.0511
 6027TIP3    H239497   5.759   1.658   0.136 -0.1368 -0.6782 -0.9238
 6028TIP3   OH239498   6.717   6.332  15.593  0.2887 -0.5149  0.1663
 6028TIP3    H139499   6.746   6.310  15.505  0.4193  1.0290 -0.2008
 6028TIP3    H239500   6.797   6.338  15.645  0.3402  0.0824  0.0235
 6029TIP3   OH239501   2.989   4.376   5.847  0.0936 -0.1375 -0.6503
 6029TIP3    H139502   2.942   4.307   5.800 -2.8175 -0.1236  1.8634
 6029TIP3    H239503   2.975   4.356   5.940  2.8419  1.5144  0.2657
 6030TIP3   OH239504   2.714   2.666  16.884 -0.0511  0.3735 -0.5257
 6030TIP3    H139505   2.732   2.696  16.973 -1.0600 -0.3557 -0.0481
 6030TIP3    H239506   2.704   2.746  16.833 -0.1052  0.8070  0.1581
 6031TIP3   OH239507   4.445   2.951  14.926 -0.1504 -0.0925  0.0320
 6031TIP3    H139508   4.414   2.973  15.014  0.2266  2.0037 -0.2948
 6031TIP3    H239509   4.380   2.989  14.867  1.6447  2.2155 -0.6134
 6032TIP3   OH239510   4.437   2.494  15.282  0.0657  0.3131  0.8826
 6032TIP3    H139511   4.409   2.403  15.295 -2.2775  0.3080 -2.6955
 6032TIP3    H239512   4.360   2.546  15.303 -0.6432  0.8797 -2.4621
 6033TIP3   OH239513   2.925   2.666  12.400 -0.3918  0.2559 -0.4047
 6033TIP3    H139514   2.958   2.607  12.468 -1.5249 -1.0283 -0.9183
 6033TIP3    H239515   2.835   2.685  12.426 -0.2532  1.2487 -0.5987
 6034TIP3   OH239516   2.451   3.656   4.669  0.1921  0.0890  0.5013
 6034TIP3    H139517   2.532   3.706   4.655 -0.9122  1.0500 -3.9779
 6034TIP3    H239518   2.478   3.565   4.665  1.2501  0.3737  0.8457
 6035TIP3   OH239519   4.729   5.683  14.953  0.0718 -0.4954  0.1335
 6035TIP3    H139520   4.746   5.714  14.864 -0.4504 -0.9198 -0.1161
 6035TIP3    H239521   4.804   5.626  14.974  0.3417 -0.1630  0.0826
 6036TIP3   OH239522   2.732   5.246  15.672 -0.1432 -0.0220 -0.4100
 6036TIP3    H139523   2.810   5.191  15.666 -1.2249 -1.8784  1.2441
 6036TIP3    H239524   2.694   5.243  15.584  0.7057 -0.5340 -0.7748
 6037TIP3   OH239525   0.457   6.474  13.014 -0.2283 -0.2761 -0.1630
 6037TIP3    H139526   0.544   6.482  13.052  0.1698 -1.3935 -0.7571
 6037TIP3    H239527   0.424   6.563  13.008  2.4004  0.7015 -3.3604
 6038TIP3   OH239528   3.048   6.041   0.850  0.0469 -0.2891  0.2621
 6038TIP3    H139529   2.964   6.075   0.883  0.3481  0.4421  0.3011
 6038TIP3    H239530   3.082   6.112   0.795  1.1538 -0.1312  1.1244
 6039TIP3   OH239531   5.369   3.995   3.908  0.1492  0.2562  0.3217
 6039TIP3    H139532   5.322   4.078   3.917 -0.4614 -0.0596  0.1028
 6039TIP3    H239533   5.354   3.949   3.990 -1.1523 -0.4563 -0.2856
 6040TIP3   OH239534   6.384   2.985   5.111 -0.0924  0.1633 -0.5851
 6040TIP3    H139535   6.435   2.907   5.087 -3.3789 -1.8397 -1.6797
 6040TIP3    H239536   6.313   2.988   5.047 -1.1842  2.9939  0.6028
 6041TIP3   OH239537   6.303   6.492   1.057 -0.5360 -0.8011 -0.5374
 6041TIP3    H139538   6.249   6.438   1.115  1.4892 -3.4811 -0.8950
 6041TIP3    H239539   6.316   6.574   1.105 -0.7538 -2.0604  1.8366
 6042TIP3   OH239540   5.769   1.145   4.952  0.2154 -0.2243 -0.4395
 6042TIP3    H139541   5.821   1.196   4.889  1.0116 -0.3344  0.1206
 6042TIP3    H239542   5.811   1.161   5.036 -1.3801  0.6380  0.2302
 6043TIP3   OH239543   5.302   2.056   5.958 -0.1318  0.3555  0.0741
 6043TIP3    H139544   5.308   1.980   6.016 -1.8081 -0.2416 -0.4690
 6043TIP3    H239545   5.392   2.072   5.931  0.2950 -1.3451  0.3333
 6044TIP3   OH239546   6.592   1.384   1.718  0.1988  1.0149  0.8881
 6044TIP3    H139547   6.496   1.379   1.727  0.0598  0.2553 -0.6127
 6044TIP3    H239548   6.610   1.477   1.705 -0.2004  1.3029  2.1884
 6045TIP3   OH239549   3.851   1.666  11.781  0.1710 -0.4944 -0.5111
 6045TIP3    H139550   3.784   1.648  11.846  0.0974 -0.8443 -0.6808
 6045TIP3    H239551   3.863   1.761  11.784 -0.0838 -0.4704 -0.2384
 6046TIP3   OH239552   1.032   4.435   2.493  0.2242  0.7487 -0.3110
 6046TIP3    H139553   1.116   4.471   2.464 -0.3370  1.4749 -1.0870
 6046TIP3    H239554   0.974   4.446   2.417 -0.2184 -0.9714 -0.2616
 6047TIP3   OH239555   2.495   1.514  11.836 -0.0369 -0.5051 -0.0664
 6047TIP3    H139556   2.564   1.531  11.900 -1.2195  0.7622  0.9468
 6047TIP3    H239557   2.439   1.592  11.840 -0.4460 -0.6039 -2.3059
 6048TIP3   OH239558   4.857   4.883  12.705  0.1764  0.2591 -0.2064
 6048TIP3    H139559   4.885   4.902  12.616 -0.8716  1.5605 -0.2825
 6048TIP3    H239560   4.779   4.828  12.694  1.3483 -1.5469 -0.0191
 6049TIP3   OH239561   4.264   1.186  15.971 -0.4262 -0.0290 -0.0336
 6049TIP3    H139562   4.325   1.254  15.998 -1.4164  0.6725  0.4779
 6049TIP3    H239563   4.199   1.231  15.917 -1.0910 -0.5602  0.3058
 6050TIP3   OH239564   6.715   1.406   2.818 -0.1349 -0.5371  0.8081
 6050TIP3    H139565   6.742   1.497   2.803  1.2963 -1.2249 -1.3035
 6050TIP3    H239566   6.620   1.409   2.820 -0.4820  0.5282 -4.2288
 6051TIP3   OH239567   0.753   4.228  11.995  0.0391 -0.2197  0.1456
 6051TIP3    H139568   0.846   4.235  11.975  0.0454 -1.0237 -0.1236
 6051TIP3    H239569   0.737   4.297  12.060  0.6386  0.4739 -0.4399
 6052TIP3   OH239570   2.773   2.739   4.983  0.0593  0.1458  0.0510
 6052TIP3    H139571   2.804   2.690   5.059 -1.5606  0.4883  0.9955
 6052TIP3    H239572   2.736   2.819   5.020 -0.7455  0.3333 -1.1064
 6053TIP3   OH239573   1.457   5.081   2.635 -0.6247 -0.9616  0.6035
 6053TIP3    H139574   1.493   5.028   2.564 -1.3399  0.4782 -0.9292
 6053TIP3    H239575   1.509   5.058   2.712  3.2540  0.5644 -1.2891
 6054TIP3   OH239576   5.491   5.048  15.349 -0.1818 -0.0492  0.9367
 6054TIP3    H139577   5.523   4.984  15.413 -0.5417  1.6861  2.9478
 6054TIP3    H239578   5.553   5.121  15.354 -0.5735  0.3957 -0.2639
 6055TIP3   OH239579   2.716   6.606   0.767  0.5015  1.0368  0.1162
 6055TIP3    H139580   2.753   6.694   0.772  1.0084  1.1829 -3.4522
 6055TIP3    H239581   2.792   6.548   0.767  0.1539  0.2014  4.4821
 6056TIP3   OH239582   5.371   3.229  13.018 -0.6792 -0.6695  0.7583
 6056TIP3    H139583   5.341   3.318  13.035 -0.1260 -0.3878  0.2607
 6056TIP3    H239584   5.409   3.232  12.931 -0.1765 -1.2712  0.9483
 6057TIP3   OH239585   3.006   6.567  13.447 -0.4515  0.6714 -0.2249
 6057TIP3    H139586   3.079   6.619  13.415 -1.6986  2.5457 -0.1968
 6057TIP3    H239587   2.991   6.600  13.536 -2.7656  2.0433 -1.0391
 6058TIP3   OH239588   3.167   1.655   5.755 -0.0415 -0.6529 -0.0920
 6058TIP3    H139589   3.135   1.647   5.845  0.0436  3.0042  0.4270
 6058TIP3    H239590   3.262   1.663   5.764 -0.1451  1.4006 -0.2191
 6059TIP3   OH239591   5.221   3.187  15.397  0.2165  0.3865 -0.1282
 6059TIP3    H139592   5.176   3.136  15.465  0.5125 -1.3588 -1.1651
 6059TIP3    H239593   5.185   3.275  15.406 -0.6074 -0.0618  1.5193
 6060TIP3   OH239594   3.445   1.054   4.831 -0.2274 -0.1320 -0.5963
 6060TIP3    H139595   3.504   1.129   4.826 -0.5490  0.3582  1.6424
 6060TIP3    H239596   3.503   0.978   4.839  0.1438  0.2438  0.5377
 6061TIP3   OH239597   2.801   0.989   1.159 -0.2255  0.7642 -0.4900
 6061TIP3    H139598   2.712   0.966   1.134 -1.2952 -0.2161  3.4540
 6061TIP3    H239599   2.817   0.938   1.239  3.0669  2.5367  0.1550
 6062TIP3   OH239600   0.519   2.243  15.122 -0.5605 -0.1371 -0.7149
 6062TIP3    H139601   0.501   2.164  15.070  1.5703 -1.0988 -0.1015
 6062TIP3    H239602   0.550   2.210  15.206 -0.4156  1.3697 -0.1508
 6063TIP3   OH239603   6.677   5.215   4.894  0.3847  0.1453  0.4116
 6063TIP3    H139604   6.762   5.250   4.869 -0.5451  1.0036 -1.7874
 6063TIP3    H239605   6.689   5.121   4.899  0.9108 -0.0189 -2.5081
 6064TIP3   OH239606   0.001   6.293  14.188 -0.0021  0.0763 -0.0964
 6064TIP3    H139607   0.033   6.255  14.106 -1.5888 -1.7929  0.0802
 6064TIP3    H239608  -0.092   6.308  14.173 -0.1805  0.3346  1.1437
 6065TIP3   OH239609   6.669   1.915  13.869 -0.4048 -0.6138  0.1138
 6065TIP3    H139610   6.713   1.999  13.863  0.6655 -1.2719 -2.3083
 6065TIP3    H239611   6.576   1.937  13.877 -0.0407  0.7557  1.0019
 6066TIP3   OH239612   5.418   2.287   1.959 -0.3714  0.2011 -0.0831
 6066TIP3    H139613   5.362   2.328   2.025  0.2956 -0.7164  1.0858
 6066TIP3    H239614   5.383   2.318   1.876 -2.1940  0.1867  0.6347
 6067TIP3   OH239615   6.805   2.150  13.907  0.4193 -0.1710 -0.0492
 6067TIP3    H139616   6.887   2.106  13.886  0.3877 -0.1776 -0.1572
 6067TIP3    H239617   6.827   2.209  13.979  0.6925  0.3852 -0.5835
 6068TIP3   OH239618   4.795   3.675  14.067  0.3783  0.3331  0.3844
 6068TIP3    H139619   4.850   3.711  14.137  2.8420  0.3398 -1.4030
 6068TIP3    H239620   4.791   3.581  14.086 -0.8230  0.6281  1.6864
 6069TIP3   OH239621   5.117   0.522   4.990 -0.5065 -0.2504 -0.6742
 6069TIP3    H139622   5.079   0.607   5.015  0.6725 -0.3825  1.9078
 6069TIP3    H239623   5.045   0.460   4.998 -0.9380  0.2297 -0.7902
 6070TIP3   OH239624   1.924   4.235  10.362  0.3893  0.4785  0.1131
 6070TIP3    H139625   1.893   4.311  10.313 -1.2561  0.3042  0.8186
 6070TIP3    H239626   1.872   4.235  10.442  1.6804 -0.3367  0.9922
 6071TIP3   OH239627   5.481   0.745   0.555  0.3995 -0.5861  0.3297
 6071TIP3    H139628   5.512   0.787   0.635 -0.0371  0.3306  0.0336
 6071TIP3    H239629   5.459   0.818   0.497  2.5163 -1.1703 -1.3625
 6072TIP3   OH239630   3.332   5.154  11.976 -0.0494  0.1442 -0.4602
 6072TIP3    H139631   3.271   5.082  11.988 -1.0346  0.7642 -1.5927
 6072TIP3    H239632   3.337   5.166  11.881  1.1184  0.7148 -0.3462
 6073TIP3   OH239633   5.264   3.314  16.859 -0.3804 -0.1528 -0.6722
 6073TIP3    H139634   5.350   3.283  16.829  0.5290  0.2804  1.3332
 6073TIP3    H239635   5.222   3.347  16.779  2.1034  1.4527 -1.4704
 6074TIP3   OH239636   4.217   4.061   0.009 -0.7517  0.1418  0.3671
 6074TIP3    H139637   4.309   4.039   0.026 -0.6552 -0.5397 -0.9069
 6074TIP3    H239638   4.175   4.054   0.094  0.8352  3.0250  1.5169
 6075TIP3   OH239639   2.705   4.818  11.513  0.5189  0.3926  0.1439
 6075TIP3    H139640   2.678   4.878  11.582  2.6271  0.7903  0.6917
 6075TIP3    H239641   2.717   4.873  11.435  0.5849  0.3712  0.1384
 6076TIP3   OH239642   1.877   2.560   5.456  0.0720 -0.6268 -0.5989
 6076TIP3    H139643   1.925   2.526   5.380 -0.0865 -1.8194 -0.1789
 6076TIP3    H239644   1.823   2.487   5.485  1.0105 -0.5683  1.3938
 6077TIP3   OH239645   3.147   5.143  16.324  0.3206  0.0043 -0.7991
 6077TIP3    H139646   3.156   5.184  16.237  2.9656 -0.0087 -0.6186
 6077TIP3    H239647   3.160   5.050  16.307  0.4308 -0.0418 -0.4509
 6078TIP3   OH239648   3.207   6.470  11.421 -0.4897  0.0417  0.6377
 6078TIP3    H139649   3.249   6.556  11.431 -0.9010  0.2690  0.4887
 6078TIP3    H239650   3.185   6.443  11.510  1.6192 -0.9488  0.9055
 6079TIP3   OH239651   4.960   0.439   4.689 -0.0474 -0.1469  0.3375
 6079TIP3    H139652   4.954   0.377   4.762 -0.9558  0.0342  0.4241
 6079TIP3    H239653   4.873   0.476   4.681 -0.6169 -1.7289 -2.2270
 6080TIP3   OH239654   5.269   1.106  15.028  0.3193  0.4091  0.5545
 6080TIP3    H139655   5.293   1.020  14.994  0.2192 -0.3589  2.3066
 6080TIP3    H239656   5.331   1.122  15.099 -1.4224  0.4477  2.1519
 6081TIP3   OH239657   5.460   5.098  15.922  0.1622 -0.1823  0.5191
 6081TIP3    H139658   5.385   5.150  15.950  0.6395 -0.0323  1.5839
 6081TIP3    H239659   5.536   5.150  15.948  0.6416 -1.1041  1.0019
 6082TIP3   OH239660   2.441   2.790   4.333  0.1911 -0.3493  0.0628
 6082TIP3    H139661   2.429   2.868   4.387 -1.5649 -0.7622  0.3351
 6082TIP3    H239662   2.465   2.721   4.395 -0.1917 -0.4548  0.0958
 6083TIP3   OH239663   5.407   0.482   1.784  0.1297  0.0251 -0.0427
 6083TIP3    H139664   5.406   0.400   1.734 -0.1069 -0.1977  0.3258
 6083TIP3    H239665   5.488   0.478   1.835  1.5410  1.2533 -2.0379
 6084TIP3   OH239666   4.556   1.912  16.606  0.7777 -0.3623 -0.0372
 6084TIP3    H139667   4.529   1.878  16.691  0.0567 -0.8393 -0.4470
 6084TIP3    H239668   4.636   1.864  16.585  1.2991  0.1914  0.6335
 6085TIP3   OH239669   4.858   3.573   0.026 -0.0366 -0.5870 -0.3976
 6085TIP3    H139670   4.789   3.511   0.004 -0.9234  0.2250  0.0236
 6085TIP3    H239671   4.862   3.633  -0.048 -0.7470  0.1768  0.1559
 6086TIP3   OH239672   4.480   6.052   1.731  0.7960  0.1478  0.3478
 6086TIP3    H139673   4.408   6.039   1.669  0.0442 -1.1195  1.4363
 6086TIP3    H239674   4.489   6.148   1.736  1.8262  0.3110 -2.7029
 6087TIP3   OH239675   1.998   6.617   4.556  0.4282  0.4574 -0.4044
 6087TIP3    H139676   2.056   6.562   4.505 -1.6120 -2.1670 -0.1115
 6087TIP3    H239677   1.910   6.586   4.533 -0.7734  2.6395  0.9230
 6088TIP3   OH239678   3.352   5.619   3.356  0.3270 -0.1788  0.1564
 6088TIP3    H139679   3.312   5.702   3.381 -0.2245  0.1555 -1.6911
 6088TIP3    H239680   3.277   5.562   3.337  0.7094 -0.9705  0.9407
 6089TIP3   OH239681   0.491   4.141   2.412  1.0066 -0.4102  0.8577
 6089TIP3    H139682   0.564   4.165   2.355  1.0487 -0.1815  1.0056
 6089TIP3    H239683   0.525   4.070   2.466  1.2637 -0.0003  1.2343
 6090TIP3   OH239684   0.215   4.569  12.614 -0.1749  0.4159  0.4831
 6090TIP3    H139685   0.264   4.548  12.535  1.5049  0.9758  1.3259
 6090TIP3    H239686   0.230   4.663  12.628 -1.0777  0.4930  1.0579
 6091TIP3   OH239687   2.179   0.458   6.408  0.4553 -0.1088 -0.4304
 6091TIP3    H139688   2.210   0.541   6.444  0.5684 -0.2140 -0.2834
 6091TIP3    H239689   2.084   0.462   6.417  0.5722 -0.8057  1.3698
 6092TIP3   OH239690   5.187   5.715   5.247  0.7130  0.5712 -0.0987
 6092TIP3    H139691   5.233   5.701   5.330  1.4449  1.1124 -0.3940
 6092TIP3    H239692   5.134   5.793   5.262 -1.0458 -0.7144  0.6078
 6093TIP3   OH239693   0.721   0.505   1.745  0.2342 -0.0959 -0.3671
 6093TIP3    H139694   0.773   0.585   1.737  1.4171 -0.7916  0.0546
 6093TIP3    H239695   0.660   0.523   1.817 -1.2225  1.2922 -1.8905
 6094TIP3   OH239696   0.118   3.787   3.678 -0.1417 -0.0741 -0.7819
 6094TIP3    H139697   0.091   3.784   3.770  1.4455 -0.0752 -0.2949
 6094TIP3    H239698   0.094   3.701   3.644 -0.2162 -0.2828 -0.2242
 6095TIP3   OH239699   3.003   5.587  13.673  0.5581  0.0976 -0.1015
 6095TIP3    H139700   3.008   5.554  13.763 -1.5674  0.6482  0.2608
 6095TIP3    H239701   3.078   5.646  13.666  0.5069  0.3951  1.4522
 6096TIP3   OH239702   4.079   4.457  15.313  0.0629  0.7448  0.1675
 6096TIP3    H139703   4.108   4.530  15.368  0.4328 -0.2680  1.3755
 6096TIP3    H239704   3.984   4.454  15.326 -0.1279  1.7445 -0.8515
 6097TIP3   OH239705   6.243   1.266   5.978  0.4127 -0.3957 -0.3107
 6097TIP3    H139706   6.209   1.351   6.006  0.7846 -0.6959  1.1583
 6097TIP3    H239707   6.283   1.229   6.057 -2.9198 -3.5454  0.1811
 6098TIP3   OH239708   1.805   3.898   2.315 -0.0391  0.5427 -0.8978
 6098TIP3    H139709   1.758   3.849   2.248  2.6270 -0.1721 -2.3794
 6098TIP3    H239710   1.810   3.987   2.281 -1.0776  0.8546 -0.2820
 6099TIP3   OH239711   0.432   3.692   2.331  0.0543 -0.3851 -0.2653
 6099TIP3    H139712   0.457   3.768   2.384 -0.1722 -0.7826  0.4183
 6099TIP3    H239713   0.347   3.715   2.295 -1.1557 -1.2545  1.8805
 6100TIP3   OH239714   3.285   3.646   3.631 -0.0281 -0.5685  0.3033
 6100TIP3    H139715   3.373   3.614   3.650  0.3342 -0.2421 -0.7684
 6100TIP3    H239716   3.232   3.614   3.704  0.7498 -1.7329  0.3876
 6101TIP3   OH239717   5.952   5.059  14.975  0.2419 -0.0134  0.3315
 6101TIP3    H139718   5.917   5.029  15.058  2.0095 -0.6401  0.9102
 6101TIP3    H239719   5.880   5.105  14.933 -1.2000 -1.1524  1.4471
 6102TIP3   OH239720   0.488   0.961  13.687 -0.7223  0.2220  0.6048
 6102TIP3    H139721   0.419   0.896  13.700 -0.0627 -0.4520  0.8134
 6102TIP3    H239722   0.532   0.934  13.607  0.1252 -0.1259  1.1732
 6103TIP3   OH239723   1.208   0.554  14.440 -0.4363  1.0684  0.0566
 6103TIP3    H139724   1.218   0.607  14.519 -2.1455  1.2264  0.2064
 6103TIP3    H239725   1.173   0.616  14.375  0.7724  0.8967 -0.7877
 6104TIP3   OH239726   1.831   1.890   6.282  0.5024  0.1568  0.2885
 6104TIP3    H139727   1.764   1.877   6.349 -1.0470 -0.7504 -1.3795
 6104TIP3    H239728   1.844   1.985   6.279 -1.9418  0.5267 -0.4837
 6105TIP3   OH239729   5.828   5.656  10.865 -0.1721 -0.4908  0.3014
 6105TIP3    H139730   5.838   5.562  10.853 -1.4496 -0.6850  0.6157
 6105TIP3    H239731   5.846   5.693  10.779 -0.0623 -1.0541  0.0782
 6106TIP3   OH239732   6.086   3.004   2.767 -0.0487  0.0982  0.8808
 6106TIP3    H139733   6.181   2.994   2.754 -0.1997  0.1170 -0.3596
 6106TIP3    H239734   6.052   2.914   2.765 -0.2204  0.1815 -0.1164
 6107TIP3   OH239735   3.150   6.046   2.236  0.4621 -0.4052 -0.3634
 6107TIP3    H139736   3.203   6.096   2.298 -0.3443 -1.1684  0.9959
 6107TIP3    H239737   3.068   6.029   2.282  0.3894 -2.2359 -1.0759
 6108TIP3   OH239738   2.652   4.676  16.917  0.1133 -0.6740  0.3569
 6108TIP3    H139739   2.622   4.743  16.856 -0.1199  0.1281  1.3347
 6108TIP3    H239740   2.745   4.692  16.928  0.2127 -0.9975 -0.0045
 6109TIP3   OH239741   5.922   3.491  12.919 -0.3271  0.1859  0.5934
 6109TIP3    H139742   6.015   3.507  12.903 -0.4822  0.3424 -0.1605
 6109TIP3    H239743   5.918   3.460  13.010  0.5786 -0.8661  0.2949
 6110TIP3   OH239744   6.662   5.873   4.011  0.1950  0.5086  0.0061
 6110TIP3    H139745   6.665   5.953   3.959  1.2377 -0.0927 -0.9285
 6110TIP3    H239746   6.718   5.812   3.962 -0.8928 -0.9084  0.4796
 6111TIP3   OH239747   6.555   0.229  17.226 -0.3061  0.3684 -0.5044
 6111TIP3    H139748   6.545   0.290  17.298  0.7284  1.3163 -1.1416
 6111TIP3    H239749   6.566   0.144  17.268 -1.3212  0.6628  0.4015
 6112TIP3   OH239750   3.241   4.337   3.507  0.2089 -0.6963 -0.1223
 6112TIP3    H139751   3.305   4.356   3.576  0.0077  1.6889 -0.5223
 6112TIP3    H239752   3.178   4.278   3.549 -0.1893  1.0619  1.9448
 6113TIP3   OH239753   4.495   0.999  11.141  0.2904  0.0002  0.4233
 6113TIP3    H139754   4.419   0.958  11.182 -1.7866  3.4899  0.5026
 6113TIP3    H239755   4.499   0.961  11.054 -0.1168 -1.8589  1.1708
 6114TIP3   OH239756   4.134   6.701  14.006 -0.2417 -0.1690 -0.0039
 6114TIP3    H139757   4.159   6.789  13.976  0.0653  0.2583  1.4140
 6114TIP3    H239758   4.041   6.707  14.024 -0.1566 -0.0302  0.4034
 6115TIP3   OH239759   2.243   1.209   5.872 -0.6207 -0.4500 -0.2988
 6115TIP3    H139760   2.165   1.264   5.866 -0.8365 -0.7966 -0.7162
 6115TIP3    H239761   2.265   1.189   5.781  0.4056  0.2757 -0.2235
 6116TIP3   OH239762   2.363   1.077  16.077  0.0165  0.2726 -0.6741
 6116TIP3    H139763   2.277   1.112  16.055 -0.2072 -0.5288 -1.1306
 6116TIP3    H239764   2.408   1.069  15.992  1.1365  2.1401 -0.3094
 6117TIP3   OH239765   4.172   2.335  16.281  0.2066 -0.3652  0.1398
 6117TIP3    H139766   4.124   2.314  16.200  0.9332 -1.5349 -0.0216
 6117TIP3    H239767   4.106   2.330  16.350 -0.1813 -0.6164 -0.2449
 6118TIP3   OH239768   5.502   1.219   2.580  0.1490 -0.1273  0.2030
 6118TIP3    H139769   5.439   1.291   2.588  0.8112  0.6497 -1.0751
 6118TIP3    H239770   5.501   1.197   2.487  1.3176 -0.5106  0.2619
 6119TIP3   OH239771   0.559   4.451   0.684  0.1894  0.0455 -0.6861
 6119TIP3    H139772   0.622   4.448   0.756 -0.6424 -2.7430  0.0543
 6119TIP3    H239773   0.474   4.436   0.725 -0.3237 -1.5493 -2.1553
 6120TIP3   OH239774   4.185   5.454   1.095  0.0353  0.5060  0.2536
 6120TIP3    H139775   4.211   5.379   1.148  0.4665  0.7926  0.4561
 6120TIP3    H239776   4.193   5.423   1.005  1.3393  0.6396  0.2935
 6121TIP3   OH239777   2.707   5.801  17.156 -0.3179  0.4155  0.5283
 6121TIP3    H139778   2.627   5.794  17.105  0.2390 -2.4815 -0.1365
 6121TIP3    H239779   2.758   5.869  17.112 -1.4621  0.6583 -0.4519
 6122TIP3   OH239780   1.227   4.036   5.622 -0.4431 -0.1640  0.2588
 6122TIP3    H139781   1.217   3.981   5.700 -2.3079 -0.3251 -0.0522
 6122TIP3    H239782   1.278   4.111   5.653 -0.4872 -0.5944  1.4460
 6123TIP3   OH239783   6.760   6.708  15.802  0.4727 -0.1516  0.1082
 6123TIP3    H139784   6.844   6.730  15.843 -0.3566 -0.7642  2.2144
 6123TIP3    H239785   6.694   6.737  15.864 -0.8469 -1.0819 -0.8032
 6124TIP3   OH239786   4.771   6.614   0.296  0.0602  0.1758  0.0996
 6124TIP3    H139787   4.762   6.710   0.292 -1.1132  0.0436 -1.2715
 6124TIP3    H239788   4.800   6.597   0.386  1.5236  1.8854  0.0052
 6125TIP3   OH239789   4.164   5.675   4.652  0.8618 -0.7530  0.2203
 6125TIP3    H139790   4.147   5.581   4.644  0.4757 -0.5301 -2.6078
 6125TIP3    H239791   4.236   5.682   4.715  1.6134 -3.0310 -0.3132
 6126TIP3   OH239792   4.381   0.800  16.461  0.0270 -0.1126  0.6163
 6126TIP3    H139793   4.434   0.872  16.495 -2.3564  1.6744  0.8928
 6126TIP3    H239794   4.416   0.722  16.503  0.4125  1.3747  3.3093
 6127TIP3   OH239795   0.648   0.990   0.391 -0.2311  0.1872  0.0447
 6127TIP3    H139796   0.641   0.927   0.320 -0.5582  1.6147 -1.2355
 6127TIP3    H239797   0.563   1.034   0.392 -1.0054 -1.1329  2.6674
 6128TIP3   OH239798   3.942   5.802  12.397  0.8962  0.0214 -0.0105
 6128TIP3    H139799   3.989   5.719  12.400 -1.3055 -1.3035 -0.0392
 6128TIP3    H239800   3.855   5.780  12.363 -0.1072  2.1547  0.9541
 6129TIP3   OH239801   1.255   1.127  12.338  0.4285 -0.3157  0.1963
 6129TIP3    H139802   1.163   1.102  12.331  0.7396 -1.2834 -0.7627
 6129TIP3    H239803   1.255   1.206  12.391 -1.0047 -0.0336 -0.1933
 6130TIP3   OH239804   1.924   1.168  15.215 -0.4929 -0.4867 -0.2040
 6130TIP3    H139805   1.941   1.181  15.122 -0.5643  0.8609 -0.0491
 6130TIP3    H239806   2.011   1.163  15.255 -0.4608 -0.6393 -0.2945
 6131TIP3   OH239807   0.409   5.764   1.140  0.1115  0.1823  0.6625
 6131TIP3    H139808   0.373   5.677   1.153 -1.2067  0.6415  0.2562
 6131TIP3    H239809   0.458   5.782   1.220  0.1793 -0.8182  0.8608
 6132TIP3   OH239810   3.029   3.322   4.248 -0.2187 -0.2150 -0.6170
 6132TIP3    H139811   2.971   3.364   4.184 -1.1461 -0.7982 -0.1801
 6132TIP3    H239812   2.970   3.273   4.305  0.7493 -1.3729 -0.5586
 6133TIP3   OH239813   1.680   3.136   0.503 -0.3035  0.1995 -0.1923
 6133TIP3    H139814   1.708   3.228   0.506 -0.2529  0.2051 -0.7018
 6133TIP3    H239815   1.602   3.133   0.557  0.0425  0.4167  0.3289
 6134TIP3   OH239816   0.592   4.408  14.538 -0.0117  0.0309 -0.0530
 6134TIP3    H139817   0.588   4.499  14.569 -3.9044 -0.0013  0.0827
 6134TIP3    H239818   0.625   4.414  14.448  1.0731  1.3763  0.3992
 6135TIP3   OH239819   0.559   0.440  15.991 -0.0433  0.1303  0.0897
 6135TIP3    H139820   0.535   0.532  15.979 -1.0248 -0.0359  0.6538
 6135TIP3    H239821   0.546   0.401  15.905 -0.3031  0.3726  0.0158
 6136TIP3   OH239822   0.359   1.223   3.775 -0.0358 -0.1456  0.7176
 6136TIP3    H139823   0.380   1.294   3.714  1.3473 -0.0932  1.2118
 6136TIP3    H239824   0.352   1.266   3.860 -0.8056 -0.3835  0.7803
 6137TIP3   OH239825   6.208   6.531  15.853 -0.1146 -0.5946 -0.4066
 6137TIP3    H139826   6.172   6.569  15.773 -0.5764  0.9105  0.4658
 6137TIP3    H239827   6.277   6.472  15.823 -0.2311 -0.0067 -1.9139
 6138TIP3   OH239828   6.586   1.739   0.251  0.1783  0.0821 -0.0518
 6138TIP3    H139829   6.536   1.818   0.228 -2.1013 -1.2243  0.1080
 6138TIP3    H239830   6.627   1.760   0.335  2.4133  2.2294 -1.5478
 6139TIP3   OH239831   5.834   4.638   3.573 -0.0289  0.3907  0.0154
 6139TIP3    H139832   5.855   4.731   3.567 -0.8726  0.6752  1.1510
 6139TIP3    H239833   5.739   4.634   3.567  0.0554 -0.5231 -1.2019
 6140TIP3   OH239834   2.445   5.591  16.674 -0.0700  0.1446 -0.1679
 6140TIP3    H139835   2.360   5.576  16.714 -0.3018  0.7747 -0.4226
 6140TIP3    H239836   2.429   5.585  16.580  0.4172 -1.0305 -0.1986
 6141TIP3   OH239837   4.914   4.823   3.446 -0.2225 -0.0691  0.1317
 6141TIP3    H139838   4.923   4.789   3.535 -1.1823 -0.3178  0.1415
 6141TIP3    H239839   4.822   4.848   3.439 -0.2652 -0.4801 -0.9481
 6142TIP3   OH239840   2.886   5.627   3.284 -0.4388 -0.2125 -0.0645
 6142TIP3    H139841   2.833   5.672   3.219  1.3232  1.1920 -0.6229
 6142TIP3    H239842   2.871   5.534   3.268 -0.9618  0.1280 -1.6866
 6143TIP3   OH239843   3.364   0.528   1.626  0.1591 -0.0572  0.5156
 6143TIP3    H139844   3.302   0.460   1.601  0.3431  0.5954 -1.9249
 6143TIP3    H239845   3.450   0.489   1.610  0.3014  0.2532  0.5211
 6144TIP3   OH239846   0.786   3.119   5.204  0.1319 -0.1799  0.3819
 6144TIP3    H139847   0.749   3.057   5.266  1.1860 -1.7033 -0.4487
 6144TIP3    H239848   0.881   3.104   5.208  0.3515  0.8774 -0.3597
 6145TIP3   OH239849   3.017   6.616   2.566  0.1124 -0.4979  0.1316
 6145TIP3    H139850   2.953   6.559   2.609 -0.1143  0.0059  0.4740
 6145TIP3    H239851   2.978   6.704   2.571  0.0408 -0.4382 -1.1699
 6146TIP3   OH239852   6.321   2.591  14.967  0.4110  0.0018  0.3774
 6146TIP3    H139853   6.410   2.616  14.945  0.2328  1.4741  1.1601
 6146TIP3    H239854   6.292   2.658  15.030 -1.3158 -0.2881 -0.0368
 6147TIP3   OH239855   0.167   4.802   3.784 -0.8941  0.2157  0.8453
 6147TIP3    H139856   0.206   4.802   3.697  1.2815 -3.5149  1.5947
 6147TIP3    H239857   0.078   4.769   3.771 -0.8493  0.4169 -0.0294
 6148TIP3   OH239858   4.077   4.116   3.552  0.0043 -0.3960  0.5878
 6148TIP3    H139859   4.004   4.058   3.573  0.7213 -2.5404 -2.1734
 6148TIP3    H239860   4.062   4.140   3.460  2.8544 -1.2207 -0.2060
 6149TIP3   OH239861   1.554   2.435   5.343  0.0291 -0.2962  0.2555
 6149TIP3    H139862   1.588   2.363   5.398  0.9607  0.4541  0.6851
 6149TIP3    H239863   1.501   2.391   5.277 -0.0509 -1.3280  0.9753
 6150TIP3   OH239864   2.940   2.944   0.492  0.3546 -0.2170 -0.1320
 6150TIP3    H139865   2.908   3.003   0.425  0.9759  0.8390  0.4731
 6150TIP3    H239866   2.907   2.858   0.467 -0.2826  0.3314 -1.2096
 6151TIP3   OH239867   4.423   5.488  15.131 -0.2129  0.4881 -0.0869
 6151TIP3    H139868   4.514   5.459  15.120 -0.2677  0.7453 -1.4456
 6151TIP3    H239869   4.410   5.551  15.060 -0.7070  2.3766  1.5731
 6152TIP3   OH239870   0.154   0.907   1.170  0.3339  0.0900 -0.5727
 6152TIP3    H139871   0.136   0.999   1.154  1.4718  0.7575  1.5765
 6152TIP3    H239872   0.228   0.887   1.112 -0.0289  0.4431 -1.1763
 6153TIP3   OH239873   6.702   2.292   3.937  0.0728  0.1937  0.0094
 6153TIP3    H139874   6.697   2.383   3.969 -1.4929 -0.1898  0.9156
 6153TIP3    H239875   6.796   2.272   3.939  1.1467  3.1738 -4.3736
 6154TIP3   OH239876   3.212   5.586   2.211  0.3978  0.2687  0.2428
 6154TIP3    H139877   3.184   5.536   2.134  2.1600  0.7954 -0.7946
 6154TIP3    H239878   3.297   5.550   2.233  0.6259  1.2236  0.9516
 6155TIP3   OH239879   4.681   0.908  16.190 -0.4970 -0.0899 -0.5701
 6155TIP3    H139880   4.597   0.867  16.171 -0.7012  0.1106 -0.1219
 6155TIP3    H239881   4.731   0.900  16.109 -0.0160 -2.4283 -0.0986
 6156TIP3   OH239882   1.342   4.623   1.725  0.3196  0.2544  0.2128
 6156TIP3    H139883   1.302   4.622   1.812  1.5159 -1.0780  0.7819
 6156TIP3    H239884   1.350   4.716   1.704 -0.0906  0.5997  1.4682
 6157TIP3   OH239885   0.909   6.773   1.536 -0.4928  0.4280  0.4170
 6157TIP3    H139886   0.952   6.793   1.619 -0.8897  1.4752  0.3789
 6157TIP3    H239887   0.903   6.857   1.490 -0.7892 -0.0400 -0.4310
 6158TIP3   OH239888   3.160   6.232  12.091 -0.2681 -0.1921  0.5310
 6158TIP3    H139889   3.241   6.185  12.109 -1.8473 -2.9807  0.9430
 6158TIP3    H239890   3.124   6.253  12.177 -0.0283  1.0876  0.3504
 6159TIP3   OH239891   2.872   4.141  16.477 -0.1156 -0.5733 -0.7301
 6159TIP3    H139892   2.877   4.045  16.471  3.1029 -0.4527 -2.0676
 6159TIP3    H239893   2.893   4.159  16.569  0.8418 -1.1346 -0.8226
 6160TIP3   OH239894   3.445   5.426  16.473  0.1829  0.1735 -0.9387
 6160TIP3    H139895   3.517   5.488  16.463  0.9518  0.3034  3.3540
 6160TIP3    H239896   3.487   5.342  16.489 -0.5571  0.0634  0.6227
 6161TIP3   OH239897   6.128   3.733   4.435 -0.6237 -0.5613 -0.1847
 6161TIP3    H139898   6.117   3.712   4.527 -1.0859  0.6494  0.0509
 6161TIP3    H239899   6.111   3.827   4.429 -0.8088 -0.6538 -1.5317
 6162TIP3   OH239900   6.256   5.525   6.494  0.1743 -0.1729  0.7289
 6162TIP3    H139901   6.315   5.592   6.458  1.1300 -0.7162  1.2372
 6162TIP3    H239902   6.312   5.447   6.504 -1.0360 -1.2412 -0.3905
 6163TIP3   OH239903   3.898   4.912  16.408 -0.1943 -0.2154 -0.1219
 6163TIP3    H139904   3.931   4.924  16.497  0.3921 -0.9010 -0.2398
 6163TIP3    H239905   3.921   4.993  16.363 -2.2885  1.0137  0.8635
 6164TIP3   OH239906   0.870   0.510  13.693 -0.0018  0.1043 -0.2239
 6164TIP3    H139907   0.964   0.508  13.673  0.0945  1.8095 -0.0591
 6164TIP3    H239908   0.863   0.565  13.770 -1.0720 -0.7902  0.3478
 6165TIP3   OH239909   6.772   6.475   1.402 -0.2498  0.1721 -0.1042
 6165TIP3    H139910   6.813   6.440   1.323  1.6828  0.6427  0.6433
 6165TIP3    H239911   6.742   6.398   1.451  1.1854 -0.2920  0.0730
 6166TIP3   OH239912   0.338   3.276  15.760 -0.1090 -0.5015  0.4299
 6166TIP3    H139913   0.288   3.201  15.728 -1.5549  0.1557  1.0502
 6166TIP3    H239914   0.340   3.337  15.686  0.7831 -0.9982  0.0336
 6167TIP3   OH239915   4.859   3.975   4.809  0.0990  0.6248 -0.5529
 6167TIP3    H139916   4.949   3.987   4.839  0.0577  1.5460 -0.7586
 6167TIP3    H239917   4.836   4.059   4.769 -0.2190 -0.1856 -2.1799
 6168TIP3   OH239918   1.909   2.965   1.875 -0.4996 -0.1535  0.5022
 6168TIP3    H139919   1.957   3.040   1.910 -0.3921  0.2543 -0.4853
 6168TIP3    H239920   1.819   2.979   1.903 -0.2309 -0.4130  1.5343
 6169TIP3   OH239921   0.129   6.136   3.462  0.5253 -0.1028 -0.1188
 6169TIP3    H139922   0.199   6.107   3.402 -0.3270  0.4753 -1.4284
 6169TIP3    H239923   0.117   6.228   3.441 -1.6776 -0.5468 -1.0209
 6170TIP3   OH239924   2.868   1.709  11.907 -0.6676  0.2596 -0.3083
 6170TIP3    H139925   2.842   1.799  11.927 -0.8611 -0.1240  1.3513
 6170TIP3    H239926   2.964   1.711  11.910 -0.6294  0.6592 -1.5314
 6171TIP3   OH239927   2.950   4.551   0.311 -0.3552  0.5958 -0.3598
 6171TIP3    H139928   3.040   4.528   0.333 -0.3856 -2.1085 -2.6291
 6171TIP3    H239929   2.958   4.619   0.244 -0.1171  1.7907  0.8302
 6172TIP3   OH239930   3.824   1.762   5.575 -0.2433  0.0798  0.3224
 6172TIP3    H139931   3.879   1.791   5.648 -0.5111 -0.5977  0.8035
 6172TIP3    H239932   3.887   1.728   5.510  0.0839  1.7724 -0.2992
 6173TIP3   OH239933   4.482   2.925   1.215  0.2618  0.0508 -0.0486
 6173TIP3    H139934   4.414   2.979   1.256 -0.4970 -1.3528  0.6031
 6173TIP3    H239935   4.547   2.989   1.184 -1.1573  1.4133 -0.3828
 6174TIP3   OH239936   3.504   6.405  15.157 -0.2859 -0.6481  0.3409
 6174TIP3    H139937   3.543   6.426  15.242 -1.8023  1.6069  0.5868
 6174TIP3    H239938   3.578   6.380  15.101  1.3721  2.1011  1.1211
 6175TIP3   OH239939   1.392   1.556  14.946 -0.4405 -0.9612  0.1785
 6175TIP3    H139940   1.299   1.578  14.943 -0.0502  0.8151 -0.9342
 6175TIP3    H239941   1.396   1.464  14.919 -1.8066 -0.7687 -0.8251
 6176TIP3   OH239942   2.573   5.652  12.940  0.3450 -0.0340 -0.3255
 6176TIP3    H139943   2.630   5.577  12.921  0.9519  0.8046 -1.9555
 6176TIP3    H239944   2.618   5.697  13.012  1.0187 -0.1569 -0.6579
 6177TIP3   OH239945   6.464   2.346   4.717 -0.8431 -0.0064  0.0772
 6177TIP3    H139946   6.559   2.353   4.706 -0.9584  0.7958 -0.4677
 6177TIP3    H239947   6.451   2.259   4.756  0.1724  0.1965  0.9192
 6178TIP3   OH239948   4.917   2.523   1.495  0.7396 -0.4129  0.2366
 6178TIP3    H139949   4.969   2.603   1.500  0.1816 -0.0894  1.1413
 6178TIP3    H239950   4.883   2.522   1.406  1.4919 -0.1250 -0.0628
 6179TIP3   OH239951   2.017   3.278   1.660 -0.3650  0.4156 -0.1133
 6179TIP3    H139952   1.949   3.265   1.593 -1.5503  0.8360  0.9704
 6179TIP3    H239953   2.092   3.229   1.627 -1.4522 -0.7599 -0.9629
 6180TIP3   OH239954   2.608   3.085   3.057 -0.1812  0.3944  0.0234
 6180TIP3    H139955   2.700   3.109   3.067  0.4483 -1.6036 -0.5066
 6180TIP3    H239956   2.587   3.036   3.137 -0.1381 -0.9411 -0.7526
 6181TIP3   OH239957   4.444   3.977  15.889  0.5881  0.0209 -0.0053
 6181TIP3    H139958   4.515   3.915  15.872  1.8462  1.3816  0.1158
 6181TIP3    H239959   4.449   4.040  15.817  1.6059  1.9409  1.6347
 6182TIP3   OH239960   4.618   4.823  10.983 -0.3646  0.3143  0.0830
 6182TIP3    H139961   4.608   4.913  10.953 -1.3561 -0.3694 -1.8363
 6182TIP3    H239962   4.693   4.789  10.933 -1.1087 -0.4221 -0.5591
 6183TIP3   OH239963   1.234   0.529   2.382 -0.6754  0.1165 -0.4229
 6183TIP3    H139964   1.249   0.615   2.421 -1.7422  0.3311 -0.4419
 6183TIP3    H239965   1.230   0.469   2.456  2.7646 -0.4233 -0.5269
 6184TIP3   OH239966   0.504   2.515  10.349 -0.6114 -0.5382 -0.3733
 6184TIP3    H139967   0.472   2.601  10.377  1.5138 -0.3593  1.8482
 6184TIP3    H239968   0.567   2.535  10.280  0.1114 -0.2526  0.3540
 6185TIP3   OH239969   0.524   1.801   2.288 -0.5115 -0.2997 -0.3754
 6185TIP3    H139970   0.590   1.827   2.353 -0.4860  1.5066 -1.0610
 6185TIP3    H239971   0.575   1.760   2.218 -0.4473 -1.4693  0.3320
 6186TIP3   OH239972   1.965   0.703   3.386  0.3893 -0.0502  0.0556
 6186TIP3    H139973   2.035   0.643   3.358 -0.9106 -1.0990 -1.1434
 6186TIP3    H239974   1.886   0.649   3.381 -0.5792  1.2797  0.7668
 6187TIP3   OH239975   6.481   5.789   5.477 -0.6385  0.1395 -0.5640
 6187TIP3    H139976   6.429   5.725   5.527 -0.0841 -0.7982 -1.1617
 6187TIP3    H239977   6.509   5.741   5.399  1.2741  0.5623 -0.1768
 6188TIP3   OH239978   6.575   1.228   1.060  0.2213 -0.4883 -0.4575
 6188TIP3    H139979   6.585   1.139   1.094  1.1089 -0.5597 -0.8956
 6188TIP3    H239980   6.563   1.282   1.138 -0.2354 -0.9726 -0.1837
 6189TIP3   OH239981   3.825   6.314   3.109 -0.0389  0.9163 -0.3797
 6189TIP3    H139982   3.770   6.255   3.161  0.3776  1.4076  0.6569
 6189TIP3    H239983   3.762   6.367   3.059 -0.4637  0.6146 -0.1782
 6190TIP3   OH239984   6.018   5.733  13.305 -0.0845  0.7939  0.7192
 6190TIP3    H139985   6.088   5.669  13.315 -0.6389 -0.0646 -0.5264
 6190TIP3    H239986   5.937   5.682  13.315 -0.5347  1.2585 -0.3246
 6191TIP3   OH239987   1.927   2.278  11.518  0.2357 -0.2238  0.4320
 6191TIP3    H139988   1.978   2.262  11.597  0.9024  0.6946  0.2123
 6191TIP3    H239989   1.967   2.356  11.480 -2.1279  1.3454  0.9246
 6192TIP3   OH239990   2.146   5.801  17.013 -0.5939 -0.0649 -0.0099
 6192TIP3    H139991   2.170   5.723  16.964 -1.2544  0.7522 -1.7387
 6192TIP3    H239992   2.057   5.821  16.985 -0.9863  0.5009  1.5092
 6193TIP3   OH239993   4.683   6.334   5.065 -0.0344  0.4751 -0.2079
 6193TIP3    H139994   4.682   6.351   4.971 -0.0824  0.0907 -0.2745
 6193TIP3    H239995   4.657   6.418   5.104 -1.9431  0.1280 -0.6120
 6194TIP3   OH239996   0.116   1.451   5.320 -0.6533  0.0774 -0.0428
 6194TIP3    H139997   0.151   1.516   5.260 -2.1249 -1.2078 -2.4904
 6194TIP3    H239998   0.091   1.501   5.398  1.7337  1.7537 -0.2427
 6195TIP3   OH239999   5.561   1.408  16.269  0.3840 -0.4681  0.6480
 6195TIP3    H140000   5.527   1.378  16.354  0.8948  0.0459  1.0391
 6195TIP3    H240001   5.656   1.399  16.277  0.4022 -1.1169 -0.1438
 6196TIP3   OH240002   0.948   1.311   1.445  0.1712 -0.0617  0.5109
 6196TIP3    H140003   0.909   1.350   1.366 -1.5225 -0.1965  1.2373
 6196TIP3    H240004   1.020   1.370   1.467  1.1236 -0.3827 -1.5004
 6197TIP3   OH240005   4.042   0.341   4.911 -0.1573  0.7836 -0.5104
 6197TIP3    H140006   3.953   0.364   4.882  0.5264  1.5337 -2.1196
 6197TIP3    H240007   4.074   0.281   4.845  0.9633  1.4618 -0.6027
 6198TIP3   OH240008   4.748   2.467  13.392 -0.0036 -0.6483  0.4448
 6198TIP3    H140009   4.691   2.542  13.372 -0.5228 -0.6226  1.8939
 6198TIP3    H240010   4.819   2.474  13.328 -0.7586  0.2817 -0.3383
 6199TIP3   OH240011   1.643   3.893  16.757  0.7370  0.0298  0.0000
 6199TIP3    H140012   1.714   3.847  16.713  0.6388 -0.2208  0.1040
 6199TIP3    H240013   1.633   3.848  16.841 -1.2575 -1.6161 -1.0346
 6200TIP3   OH240014   2.457   3.405  14.279 -0.5331  0.5525  0.0893
 6200TIP3    H140015   2.495   3.318  14.266  3.1068  1.5630  2.4967
 6200TIP3    H240016   2.372   3.388  14.320 -0.3724 -1.8393 -0.4079
 6201TIP3   OH240017   1.435   3.779   4.377  0.0295 -0.3881 -0.2880
 6201TIP3    H140018   1.521   3.755   4.342  2.0284  0.1650  3.6696
 6201TIP3    H240019   1.435   3.875   4.376 -1.8107 -0.3297 -2.7294
 6202TIP3   OH240020   4.282   3.951   2.102  0.9375  0.3638  0.0108
 6202TIP3    H140021   4.213   3.947   2.169  0.2729  0.5184 -0.6446
 6202TIP3    H240022   4.257   4.025   2.048  1.9589  0.7887  0.1061
 6203TIP3   OH240023   0.810   1.059   4.295 -0.4980 -0.8425 -0.3635
 6203TIP3    H140024   0.796   0.966   4.316  1.3705 -0.8814  1.0036
 6203TIP3    H240025   0.896   1.061   4.254 -0.4508  0.2959 -0.2282
 6204TIP3   OH240026   4.812   1.209  14.079  0.1530 -0.0408  0.0512
 6204TIP3    H140027   4.757   1.155  14.136  0.1382  0.9277  0.9877
 6204TIP3    H240028   4.857   1.146  14.023 -0.6430 -0.9565  0.4046
 6205TIP3   OH240029   1.262   6.474   3.808  0.1539 -0.4228 -0.3789
 6205TIP3    H140030   1.259   6.421   3.728 -1.1606 -0.0006 -0.6306
 6205TIP3    H240031   1.232   6.560   3.780  0.0794 -0.1623  0.4928
 6206TIP3   OH240032   6.657   0.745   5.766  0.6565 -0.0150  0.0049
 6206TIP3    H140033   6.611   0.808   5.821  0.9352  0.6901 -0.5522
 6206TIP3    H240034   6.600   0.733   5.690  1.4213  0.9766 -0.7595
 6207TIP3   OH240035   0.128   0.486  16.898  0.4172  0.5538  0.6217
 6207TIP3    H140036   0.069   0.438  16.956  1.2697  1.1971  2.0512
 6207TIP3    H240037   0.208   0.433  16.896  0.5855  0.8158  0.4603
 6208TIP3   OH240038   3.141   0.294  14.332  0.2520  0.5361 -0.2492
 6208TIP3    H140039   3.059   0.273  14.287  1.1091 -1.8758 -0.8304
 6208TIP3    H240040   3.193   0.215  14.325  2.8115  2.1030 -0.1964
 6209TIP3   OH240041   1.145   3.007   2.840  0.1817  0.1560  0.3335
 6209TIP3    H140042   1.130   2.941   2.774 -0.7639  0.3663  0.3294
 6209TIP3    H240043   1.225   3.052   2.811  0.8240 -0.9430  0.3274
 6210TIP3   OH240044   1.891   3.938  10.554  0.1406 -0.2588 -0.2782
 6210TIP3    H140045   1.963   3.990  10.590  1.2280 -1.5599 -0.5037
 6210TIP3    H240046   1.830   4.003  10.519  0.8149  0.9018  0.6172
 6211TIP3   OH240047   2.047   1.918   5.066 -0.3155  0.2580 -0.3630
 6211TIP3    H140048   1.974   1.949   5.120  0.8142  0.6693  0.9911
 6211TIP3    H240049   2.118   1.979   5.085  0.6177 -0.5924 -1.0370
 6212TIP3   OH240050   0.274   3.806   1.484  0.2916 -0.0612  1.4237
 6212TIP3    H140051   0.275   3.711   1.490 -2.2215 -0.1912  1.1998
 6212TIP3    H240052   0.255   3.824   1.392 -0.4470  0.5962  1.6906
 6213TIP3   OH240053   2.915   5.275  11.470 -0.1863 -0.1402  0.1605
 6213TIP3    H140054   2.960   5.261  11.553  1.2982 -0.5356 -0.6729
 6213TIP3    H240055   2.955   5.211  11.410  0.9273  2.0748 -1.6257
 6214TIP3   OH240056   0.580   4.824  12.138 -0.1000 -0.3251  0.2528
 6214TIP3    H140057   0.614   4.738  12.114  0.1779 -0.0919 -0.1848
 6214TIP3    H240058   0.649   4.886  12.114 -0.3561  0.0375  0.4305
 6215TIP3   OH240059   0.725   3.556   4.583 -0.2023  0.1502  0.0849
 6215TIP3    H140060   0.704   3.649   4.583 -0.5239  0.0762 -0.0790
 6215TIP3    H240061   0.695   3.525   4.669 -2.5277 -0.3509 -0.8344
 6216TIP3   OH240062   5.439   1.685  12.046 -0.4563 -0.1419 -0.3743
 6216TIP3    H140063   5.358   1.706  12.092  0.8555 -0.9473  2.6198
 6216TIP3    H240064   5.451   1.591  12.061  1.8576  0.2697  0.9648
 6217TIP3   OH240065   3.011   3.315   2.500  0.4485 -0.7093 -0.1952
 6217TIP3    H140066   2.953   3.384   2.531 -0.2460 -1.0059 -0.7904
 6217TIP3    H240067   3.026   3.336   2.408  1.1116 -0.7600 -0.1022
 6218TIP3   OH240068   3.229   4.837  10.785  0.4623 -0.7911  0.6840
 6218TIP3    H140069   3.264   4.763  10.736  4.2722  0.8272  0.6228
 6218TIP3    H240070   3.300   4.862  10.844 -1.7858  1.0360  2.8235
 6219TIP3   OH240071   0.285   6.163  16.505 -0.1508  0.0263  0.3471
 6219TIP3    H140072   0.379   6.148  16.506 -0.2771 -0.8466  0.1888
 6219TIP3    H240073   0.249   6.090  16.454 -0.9278  0.2435  0.5598
 6220TIP3   OH240074   2.103   5.568   2.275 -0.2611 -0.1574  0.1980
 6220TIP3    H140075   2.072   5.506   2.210 -1.1005 -2.4051  2.5859
 6220TIP3    H240076   2.044   5.557   2.350  0.0880  2.9336  1.0870
 6221TIP3   OH240077   3.827   5.897   1.515 -0.1311 -0.2740  0.3388
 6221TIP3    H140078   3.873   5.943   1.444 -0.9115  0.4169  0.2638
 6221TIP3    H240079   3.805   5.811   1.478 -2.4672  0.8382 -1.0872
 6222TIP3   OH240080   0.196   0.202   3.917  0.7183  0.3850  0.0010
 6222TIP3    H140081   0.278   0.220   3.965  0.1402 -0.1064  1.2167
 6222TIP3    H240082   0.158   0.128   3.963 -0.4947  0.7123 -0.4587
 6223TIP3   OH240083   3.936   1.716   2.998  0.5660 -0.1158  0.1297
 6223TIP3    H140084   3.977   1.629   2.989  0.0736 -0.2643 -0.8088
 6223TIP3    H240085   3.848   1.698   3.031  1.1911  0.2017  2.0880
 6224TIP3   OH240086   1.786   0.318  13.194 -0.1554 -0.3553  0.0480
 6224TIP3    H140087   1.832   0.257  13.137  0.6737 -0.0337  0.3521
 6224TIP3    H240088   1.839   0.398  13.191  0.9597 -0.8937  2.6691
 6225TIP3   OH240089   3.776   6.172   5.763 -0.3862 -0.6015  0.0566
 6225TIP3    H140090   3.836   6.112   5.718  1.0744 -0.6923  2.0273
 6225TIP3    H240091   3.831   6.245   5.791 -0.9847 -1.0418  2.5879
 6226TIP3   OH240092   5.230   4.227  11.972  0.2698  0.2765  0.0781
 6226TIP3    H140093   5.134   4.225  11.966  0.3370  0.3203 -1.4073
 6226TIP3    H240094   5.256   4.136  11.961  0.3572 -0.0250  2.3169
 6227TIP3   OH240095   2.742   6.156   5.355  0.6367 -0.3856  0.0903
 6227TIP3    H140096   2.722   6.146   5.262 -2.4444 -0.5581  0.6624
 6227TIP3    H240097   2.763   6.067   5.385  2.9426 -0.1502 -0.5945
 6228TIP3   OH240098   4.124   4.016  16.993 -0.1629  0.4763 -0.1143
 6228TIP3    H140099   4.135   4.043  17.084 -0.7160  0.6995 -0.1040
 6228TIP3    H240100   4.173   4.081  16.942  0.0360  0.4275  0.0156
 6229TIP3   OH240101   1.520   6.709   5.873  0.4565  0.2473  0.2966
 6229TIP3    H140102   1.470   6.648   5.928  0.3261  1.2209  1.2994
 6229TIP3    H240103   1.455   6.768   5.837  0.3785 -1.0734 -1.9399
 6230TIP3   OH240104   3.283   2.677  15.111  0.0079 -0.5385 -0.4944
 6230TIP3    H140105   3.318   2.661  15.198  0.1988  0.1574 -0.4347
 6230TIP3    H240106   3.341   2.743  15.073  0.0226 -0.9487 -1.2086
 6231TIP3   OH240107   5.862   0.419   1.160 -0.4824 -0.5951  0.3295
 6231TIP3    H140108   5.810   0.464   1.093 -1.9226 -0.8175  1.2516
 6231TIP3    H240109   5.945   0.398   1.116 -0.6330  0.9511 -0.7908
 6232TIP3   OH240110   1.786   6.537  13.111 -0.3956  0.2444  0.5432
 6232TIP3    H140111   1.774   6.442  13.099  1.7566  0.1931 -2.1637
 6232TIP3    H240112   1.741   6.577  13.036  1.1066  1.1240  0.0741
 6233TIP3   OH240113   6.362   1.116   3.830  0.2679  0.3084 -0.4643
 6233TIP3    H140114   6.401   1.029   3.841  1.1216  0.7305  0.0488
 6233TIP3    H240115   6.393   1.165   3.907 -2.2221  0.3697  0.6043
 6234TIP3   OH240116   2.811   4.425  16.471 -0.1703  0.1085 -0.0803
 6234TIP3    H140117   2.725   4.460  16.496  0.5662  2.0693 -0.0742
 6234TIP3    H240118   2.796   4.332  16.458 -2.2422  0.3464  0.1761
 6235TIP3   OH240119   2.719   2.255  16.236  0.3914  0.5508  0.2078
 6235TIP3    H140120   2.629   2.279  16.260 -0.1613 -0.9072 -0.2593
 6235TIP3    H240121   2.771   2.277  16.313 -0.8106 -0.9384  1.5348
 6236TIP3   OH240122   6.380   2.243  12.708  0.3990 -0.0877 -0.2565
 6236TIP3    H140123   6.347   2.265  12.796  0.4438 -0.5269 -0.1243
 6236TIP3    H240124   6.456   2.187  12.725 -0.8758 -2.0243 -0.5580
 6237TIP3   OH240125   2.357   2.231  16.780 -0.1614 -0.4443  0.3890
 6237TIP3    H140126   2.302   2.203  16.707 -0.2133  0.3547  0.1120
 6237TIP3    H240127   2.440   2.255  16.740 -0.6146  1.2674  0.3934
 6238TIP3   OH240128   3.273   5.863   4.675  0.2743 -0.4618 -0.2228
 6238TIP3    H140129   3.287   5.770   4.687  2.1083 -0.2928 -0.8062
 6238TIP3    H240130   3.347   5.905   4.720 -0.0597  0.6780 -0.6930
 6239TIP3   OH240131   0.621   1.204  16.859  0.4045  0.3559  0.6995
 6239TIP3    H140132   0.550   1.173  16.915  0.3879 -2.3048 -0.6142
 6239TIP3    H240133   0.694   1.219  16.919 -0.7449  1.5123  1.8612
 6240TIP3   OH240134   2.901   2.628   0.747 -0.0703  0.3525 -0.2382
 6240TIP3    H140135   2.907   2.544   0.703  1.4824  1.1434 -1.6859
 6240TIP3    H240136   2.951   2.616   0.828 -0.4131 -0.2880 -0.1160
 6241TIP3   OH240137   6.419   1.545   6.075 -0.0777 -0.4090  0.2566
 6241TIP3    H140138   6.365   1.621   6.097  2.2637  1.7437 -0.9474
 6241TIP3    H240139   6.438   1.503   6.158 -0.9606  0.6628  1.0244
 6242TIP3   OH240140   0.604   3.597  13.328 -0.0991 -0.4018 -0.1594
 6242TIP3    H140141   0.594   3.577  13.235 -0.3731 -0.2688 -0.1602
 6242TIP3    H240142   0.545   3.671  13.343  1.8232  1.2963 -0.4421
 6243TIP3   OH240143   1.121   1.692  13.530  0.5201  0.0784 -0.0146
 6243TIP3    H140144   1.198   1.721  13.481  0.4023 -0.0713 -0.2855
 6243TIP3    H240145   1.051   1.750  13.500  0.9640  1.6217  1.7450
 6244TIP3   OH240146   6.070   0.148  16.043 -0.2588  0.3744 -0.0868
 6244TIP3    H140147   6.048   0.071  16.096  2.0051 -0.2431  0.0522
 6244TIP3    H240148   5.991   0.202  16.045 -1.1703 -0.9302  1.6108
 6245TIP3   OH240149   2.506   1.390  14.742  0.0021  0.1849  0.0287
 6245TIP3    H140150   2.542   1.345  14.818 -1.6237 -1.1737  0.0560
 6245TIP3    H240151   2.549   1.348  14.667 -1.0652 -1.0989  0.0832
 6246TIP3   OH240152   1.825   5.697  14.869 -0.5796 -0.5135 -0.5394
 6246TIP3    H140153   1.916   5.669  14.877 -0.7993 -1.9965 -2.5102
 6246TIP3    H240154   1.777   5.643  14.931 -0.2470 -0.3316 -0.1166
 6247TIP3   OH240155   3.167   3.363   2.013 -0.0456 -0.0024  0.3678
 6247TIP3    H140156   3.147   3.357   1.920 -1.3137  1.5113  0.4964
 6247TIP3    H240157   3.175   3.457   2.030 -0.3192 -0.2148  1.8713
 6248TIP3   OH240158   5.597   4.076   3.453 -0.6801 -0.6918  0.3932
 6248TIP3    H140159   5.514   4.114   3.481 -1.9184 -2.9495  0.0396
 6248TIP3    H240160   5.588   3.983   3.470  0.5952 -1.4470 -2.3841
 6249TIP3   OH240161   1.267   4.872   0.140 -0.0939  0.1492  0.4563
 6249TIP3    H140162   1.179   4.872   0.180 -0.6719  1.3713 -0.7553
 6249TIP3    H240163   1.309   4.950   0.174  0.3641 -0.1691  0.6350
 6250TIP3   OH240164   1.209   1.370   3.217  0.0424  0.1148 -0.0717
 6250TIP3    H140165   1.248   1.383   3.303  0.1966  0.3869 -0.1819
 6250TIP3    H240166   1.257   1.429   3.159 -1.0481  1.0178 -0.0767
 6251TIP3   OH240167   6.801   2.322  14.337 -0.3714  0.0396  0.8177
 6251TIP3    H140168   6.731   2.357  14.392  0.5843  0.1135  2.0318
 6251TIP3    H240169   6.825   2.394  14.279 -0.6285  0.3377  1.0821
 6252TIP3   OH240170   1.551   5.917   0.508 -0.4298  0.1799 -0.0585
 6252TIP3    H140171   1.569   5.985   0.444  1.2613 -0.9076 -0.8025
 6252TIP3    H240172   1.534   5.965   0.590  0.3187  1.4980 -0.6458
 6253TIP3   OH240173   2.445   0.603  16.864  0.1584 -0.1454  0.7514
 6253TIP3    H140174   2.501   0.677  16.888  0.7036  0.3085 -1.6884
 6253TIP3    H240175   2.504   0.528  16.860 -0.3384 -0.7258  2.9036
 6254TIP3   OH240176   4.213   1.250   2.503  0.3241  0.1849 -0.2724
 6254TIP3    H140177   4.198   1.343   2.519 -0.6915  0.3494 -1.8505
 6254TIP3    H240178   4.177   1.206   2.579 -0.7576  1.0192 -0.2786
 6255TIP3   OH240179   1.891   1.225   0.958  0.3403 -0.0634 -0.2417
 6255TIP3    H140180   1.943   1.261   0.885 -1.0002 -0.8437 -1.6430
 6255TIP3    H240181   1.871   1.301   1.012  0.9901  0.6202 -0.9326
 6256TIP3   OH240182   5.817   5.630  13.923 -0.2753  0.2226 -0.4191
 6256TIP3    H140183   5.811   5.709  13.869  2.1369  1.2441  0.6294
 6256TIP3    H240184   5.864   5.567  13.868 -0.9035  0.0290 -0.7372
 6257TIP3   OH240185   4.240   5.243   3.493 -0.3355 -0.6114 -0.3922
 6257TIP3    H140186   4.238   5.157   3.451 -1.5306  0.3214 -2.4242
 6257TIP3    H240187   4.151   5.255   3.526 -0.2729 -0.0026 -0.4414
 6258TIP3   OH240188   0.642   6.157  15.639  0.2907 -0.4900  0.5210
 6258TIP3    H140189   0.738   6.164  15.642  0.1683  1.4519  1.9344
 6258TIP3    H240190   0.614   6.183  15.727 -1.5578 -0.5072 -0.0347
 6259TIP3   OH240191   3.666   5.126   6.252  0.0585  0.5960 -0.1912
 6259TIP3    H140192   3.631   5.214   6.270 -0.0005  0.4674  0.3412
 6259TIP3    H240193   3.691   5.092   6.338 -2.5410 -1.0166  0.0560
 6260TIP3   OH240194   1.410   3.318  11.242  0.1434  0.1083  0.3969
 6260TIP3    H140195   1.378   3.233  11.272 -0.9263  0.8159  1.3500
 6260TIP3    H240196   1.373   3.328  11.154 -1.4200  0.4266  1.0517
 6261TIP3   OH240197   0.620   1.618   0.173  0.0723  0.2120 -0.0069
 6261TIP3    H140198   0.662   1.594   0.091 -0.0662  3.1689 -1.0699
 6261TIP3    H240199   0.652   1.554   0.236 -0.8400 -2.9855 -2.5403
 6262TIP3   OH240200   0.847   3.384  13.864 -0.9124  0.1519 -0.1413
 6262TIP3    H140201   0.828   3.301  13.821 -2.2936  0.0481  0.6203
 6262TIP3    H240202   0.832   3.450  13.795  0.6542 -0.2099 -0.8854
 6263TIP3   OH240203   0.344   2.994   3.195  0.1637 -0.0474  0.1981
 6263TIP3    H140204   0.391   3.026   3.118  0.0681 -0.2845  0.0399
 6263TIP3    H240205   0.393   2.916   3.222  0.4443  0.2758  0.6310
 6264TIP3   OH240206   3.225   5.874   3.615  0.2373 -0.1803 -0.2263
 6264TIP3    H140207   3.286   5.822   3.669 -0.0238  0.4606  0.7138
 6264TIP3    H240208   3.278   5.902   3.540  0.6807 -0.8733 -0.1877
 6265TIP3   OH240209   5.369   5.503   0.892  0.6765  0.2696  0.7557
 6265TIP3    H140210   5.389   5.581   0.840  1.2262  1.0371  2.0564
 6265TIP3    H240211   5.311   5.451   0.836  2.6735  0.1447 -1.3720
 6266TIP3   OH240212   2.842   6.668  13.653 -0.5967 -0.8571  0.0062
 6266TIP3    H140213   2.758   6.633  13.623 -0.0594 -2.6190  0.4006
 6266TIP3    H240214   2.834   6.672  13.748 -0.6417  0.1288 -0.0342
 6267TIP3   OH240215   4.433   3.096  11.584 -0.1497  0.3465 -0.8261
 6267TIP3    H140216   4.510   3.127  11.537  0.3358 -0.1261 -0.3650
 6267TIP3    H240217   4.364   3.157  11.560  0.4773  1.0459 -0.9054
 6268TIP3   OH240218   5.418   5.894  12.470  0.1163  0.1945  0.4734
 6268TIP3    H140219   5.349   5.845  12.425 -1.4792  2.3603  0.4302
 6268TIP3    H240220   5.434   5.970  12.414  1.5370  0.4719  1.2192
 6269TIP3   OH240221   5.490   2.335  17.019 -0.1930 -0.6022  0.2465
 6269TIP3    H140222   5.540   2.317  16.939 -0.5841 -1.6948  0.2424
 6269TIP3    H240223   5.555   2.339  17.088  0.1160  0.0683 -0.0685
 6270TIP3   OH240224   0.677   3.977   0.974 -0.1359  0.3123 -0.2799
 6270TIP3    H140225   0.686   4.041   1.044 -0.4009 -0.1860  0.2198
 6270TIP3    H240226   0.763   3.975   0.931  0.2349  0.1110  0.4711
 6271TIP3   OH240227   2.658   6.278  14.945 -0.3509  0.0979 -0.2271
 6271TIP3    H140228   2.598   6.315  15.010 -2.5223 -0.8399 -1.5992
 6271TIP3    H240229   2.724   6.231  14.998 -0.9292  0.9579  1.3255
 6272TIP3   OH240230   1.567   3.314   2.973 -0.4897 -0.1431 -0.4164
 6272TIP3    H140231   1.589   3.267   3.053  0.7497 -0.7355 -1.0932
 6272TIP3    H240232   1.566   3.406   2.999 -0.7711 -0.3752  0.4259
 6273TIP3   OH240233   0.640   4.368  13.037 -0.4555 -0.1107 -0.3395
 6273TIP3    H140234   0.652   4.392  13.128 -1.6106 -0.6318 -0.0225
 6273TIP3    H240235   0.582   4.292  13.040 -1.0178  0.2429 -1.5277
 6274TIP3   OH240236   6.701   4.818   5.262 -0.3341 -0.4554 -0.7215
 6274TIP3    H140237   6.668   4.798   5.349  1.2206 -0.8346 -0.1840
 6274TIP3    H240238   6.796   4.820   5.272 -0.1625  0.4718 -2.2104
 6275TIP3   OH240239   5.373   4.767   6.374  0.1506  0.2522 -0.1374
 6275TIP3    H140240   5.418   4.784   6.457 -0.6143  0.2444  0.2874
 6275TIP3    H240241   5.303   4.832   6.371 -0.4062 -0.3540 -0.3278
 6276TIP3   OH240242   6.782   6.066  15.171 -0.7886  0.7784  0.2386
 6276TIP3    H140243   6.748   6.091  15.085  0.3491  0.4861 -0.3158
 6276TIP3    H240244   6.850   6.001  15.152 -2.0557 -1.0239  1.4860
 6277TIP3   OH240245   6.736   3.531   2.489 -0.0211 -0.6711 -0.3926
 6277TIP3    H140246   6.666   3.477   2.452 -0.2253  1.3146 -3.2416
 6277TIP3    H240247   6.691   3.609   2.523  0.4933 -1.1647  1.5952
 6278TIP3   OH240248   1.018   6.695   0.275 -0.2236 -0.3984  0.2361
 6278TIP3    H140249   1.069   6.735   0.345  0.2049 -0.0165 -0.2917
 6278TIP3    H240250   0.929   6.728   0.289 -0.5642 -1.8230  1.7360
 6279TIP3   OH240251   0.208   4.217  10.504 -0.7158  0.0820 -0.1142
 6279TIP3    H140252   0.255   4.136  10.526  1.7747  0.9551 -1.7931
 6279TIP3    H240253   0.185   4.206  10.411  0.0037  1.4276 -0.4714
 6280TIP3   OH240254   0.272   2.956   2.057 -0.6648 -0.0766  0.2630
 6280TIP3    H140255   0.355   2.974   2.101 -0.5695 -0.4312  0.2303
 6280TIP3    H240256   0.236   3.043   2.038  0.1405  0.0832 -0.5742
 6281TIP3   OH240257   4.153   1.726   6.502  0.0930 -0.1503 -0.7794
 6281TIP3    H140258   4.188   1.638   6.486  0.1647 -0.2754  0.0232
 6281TIP3    H240259   4.227   1.775   6.536  0.0765  0.2542 -1.3170
 6282TIP3   OH240260   2.868   3.040  11.083 -0.4289  0.4608 -0.2140
 6282TIP3    H140261   2.853   3.025  10.990  1.3107 -0.6750 -0.3619
 6282TIP3    H240262   2.963   3.037  11.093 -0.5295  1.6746  1.4367
 6283TIP3   OH240263   3.030   4.401   0.791  0.0532 -0.1071  0.0833
 6283TIP3    H140264   3.041   4.319   0.742 -0.1244  0.1399 -0.3766
 6283TIP3    H240265   3.051   4.469   0.727 -0.6311  0.2386  0.2192
 6284TIP3   OH240266   0.935   0.953  11.109 -0.8491 -0.1783  0.6070
 6284TIP3    H140267   0.984   0.928  11.187 -0.2361 -0.6959  0.0674
 6284TIP3    H240268   0.918   0.870  11.063 -1.0113  0.1391  0.0801
 6285TIP3   OH240269   2.524   0.483  12.026 -0.4770  0.0336 -0.2003
 6285TIP3    H140270   2.431   0.461  12.022 -0.2764 -0.9159  0.0505
 6285TIP3    H240271   2.569   0.401  12.003  0.2810  0.8875 -1.9345
 6286TIP3   OH240272   3.647   2.901   0.387 -0.3523 -0.1433  0.1576
 6286TIP3    H140273   3.582   2.831   0.392  1.0314 -1.5553 -0.7235
 6286TIP3    H240274   3.707   2.884   0.459 -0.3886  0.5534  0.3584
 6287TIP3   OH240275   4.643   4.795   3.529 -0.5236  0.2968 -1.0464
 6287TIP3    H140276   4.603   4.710   3.545 -2.0363  0.9961 -0.9707
 6287TIP3    H240277   4.570   4.857   3.528  0.5877  1.6706 -0.6151
 6288TIP3   OH240278   5.841   6.741   2.868  0.3470  0.0996  0.0087
 6288TIP3    H140279   5.868   6.773   2.782 -0.1034  0.1805 -0.1065
 6288TIP3    H240280   5.823   6.821   2.918 -1.1215  0.0498 -0.3886
 6289TIP3   OH240281   4.922   2.029  13.969 -0.2471 -0.4875 -0.2090
 6289TIP3    H140282   4.939   2.119  13.941 -1.9623 -0.8605 -2.7971
 6289TIP3    H240283   4.828   2.017  13.955  0.1710 -3.0980 -1.4150
 6290TIP3   OH240284   2.726   3.703   2.369  0.3731  0.4416 -0.7145
 6290TIP3    H140285   2.666   3.696   2.295 -1.0468  1.4978  0.2944
 6290TIP3    H240286   2.757   3.794   2.367  4.5072 -0.7643 -3.0586
 6291TIP3   OH240287   1.723   0.482   1.882  0.2997 -0.1359  0.1069
 6291TIP3    H140288   1.657   0.417   1.905 -0.8578  0.5856 -1.0454
 6291TIP3    H240289   1.679   0.566   1.896  1.1857  0.3758 -0.1192
 6292TIP3   OH240290   5.676   5.689   5.599 -0.2569 -0.3512  0.2078
 6292TIP3    H140291   5.615   5.616   5.588 -2.2127  0.8815  2.0347
 6292TIP3    H240292   5.740   5.678   5.528 -3.2913 -1.0410 -2.6781
 6293TIP3   OH240293   3.033   4.554  11.765  0.0710 -0.0786  0.3155
 6293TIP3    H140294   3.017   4.589  11.677 -1.9979 -1.0586  0.2295
 6293TIP3    H240295   3.120   4.516  11.761  0.3604  0.6660 -1.0361
 6294TIP3   OH240296   0.541   1.962  13.065  0.1967  0.5023 -0.3506
 6294TIP3    H140297   0.571   1.975  12.975  1.1986  0.3772 -0.0539
 6294TIP3    H240298   0.618   1.982  13.119 -0.3803  0.5470  0.4768
 6295TIP3   OH240299   4.002   2.371  14.498  0.1994  0.2337  0.4934
 6295TIP3    H140300   4.013   2.382  14.593 -0.8802  2.6905  0.4184
 6295TIP3    H240301   4.068   2.430  14.460  0.4286 -0.5197 -0.2949
 6296TIP3   OH240302   0.950   3.780  14.527  0.9692  0.3825  0.1350
 6296TIP3    H140303   1.017   3.849  14.519 -0.0040  1.7671  2.7922
 6296TIP3    H240304   0.876   3.813  14.476  0.9180  0.7545  0.4454
 6297TIP3   OH240305   4.852   4.321  12.658 -0.1594 -0.7906 -0.5387
 6297TIP3    H140306   4.856   4.385  12.587  0.2815  0.2551  0.3966
 6297TIP3    H240307   4.937   4.278  12.657  0.3602  0.1884  0.2056
 6298TIP3   OH240308   1.511   6.609  11.452  0.6185 -0.5815 -0.4232
 6298TIP3    H140309   1.471   6.530  11.487 -0.7630  0.8573  1.4153
 6298TIP3    H240310   1.599   6.581  11.426 -0.0631 -2.8491 -0.5203
 6299TIP3   OH240311   6.441   0.566  12.385  0.2161 -0.6734 -0.5794
 6299TIP3    H140312   6.450   0.579  12.291 -0.1376 -1.3580 -0.7083
 6299TIP3    H240313   6.347   0.556  12.400  0.3425 -1.4468 -0.2724
 6300TIP3   OH240314   3.147   2.391  15.285  0.4172 -0.5288 -0.8483
 6300TIP3    H140315   3.169   2.483  15.301  2.7041 -0.8057 -1.9071
 6300TIP3    H240316   3.226   2.343  15.313  0.6422 -1.8233 -3.4474
 6301TIP3   OH240317   2.504   2.030   4.631 -0.2499 -0.0049  0.2446
 6301TIP3    H140318   2.447   1.993   4.698 -2.4233  0.6204 -1.1366
 6301TIP3    H240319   2.532   2.114   4.668  2.4338 -1.6142  2.2172
 6302TIP3   OH240320   6.020   5.118  16.226  0.1134 -0.1355 -0.8377
 6302TIP3    H140321   6.068   5.043  16.190 -0.5049 -1.2421  0.5243
 6302TIP3    H240322   5.955   5.079  16.285 -0.2447  1.4841 -0.0951
 6303TIP3   OH240323   1.088   4.480  11.042  0.0958 -0.0076 -0.2171
 6303TIP3    H140324   1.131   4.398  11.018 -0.7181  0.0350 -1.9634
 6303TIP3    H240325   1.149   4.548  11.014  0.1483  0.0071 -0.0670
 6304TIP3   OH240326   4.894   0.203   5.854  0.0489  0.4435 -0.2782
 6304TIP3    H140327   4.860   0.272   5.911  0.2966  0.1567  0.2155
 6304TIP3    H240328   4.843   0.211   5.774 -1.9320 -0.6595  0.8113
 6305TIP3   OH240329   1.150   1.033  15.851  0.2068 -0.3373 -0.3796
 6305TIP3    H140330   1.184   1.054  15.939 -0.7707 -0.5256  0.0501
 6305TIP3    H240331   1.200   1.091  15.793  2.5000 -1.7657  0.0176
 6306TIP3   OH240332   4.756   6.216  16.217  0.5948  0.3837 -0.3394
 6306TIP3    H140333   4.686   6.189  16.276  0.5580  0.1223 -0.5012
 6306TIP3    H240334   4.715   6.279  16.157  0.0559 -1.0578 -1.5332
 6307TIP3   OH240335   0.835   3.498  16.098 -0.7859  0.1364 -0.4227
 6307TIP3    H140336   0.919   3.458  16.075 -1.5344 -1.5027 -0.4623
 6307TIP3    H240337   0.812   3.461  16.183 -0.2658  2.6004  0.8870
 6308TIP3   OH240338   2.684   0.990  12.692  0.3174  0.3082 -0.6641
 6308TIP3    H140339   2.675   1.084  12.674  1.6181  0.5852 -0.0279
 6308TIP3    H240340   2.734   0.987  12.773  0.1703 -0.9476 -0.6111
 6309TIP3   OH240341   3.612   5.182   2.021  0.3196  0.3469 -0.0800
 6309TIP3    H140342   3.595   5.219   1.934  1.2557 -0.4197 -0.6123
 6309TIP3    H240343   3.629   5.090   2.004 -0.8946 -0.1223  1.1001
 6310TIP3   OH240344   2.477   6.237  13.420  0.1192  0.2758  0.4959
 6310TIP3    H140345   2.452   6.329  13.411 -0.5176 -0.0411 -1.6224
 6310TIP3    H240346   2.443   6.211  13.506 -1.8046  1.4179  0.1454
 6311TIP3   OH240347   6.098   3.707  13.109  0.5659  1.4723 -0.0969
 6311TIP3    H140348   6.046   3.709  13.189  1.8119  1.0707  0.7539
 6311TIP3    H240349   6.046   3.757  13.045 -0.8370  1.0837  0.7007
 6312TIP3   OH240350   6.511   5.053   4.720  0.5379  0.0516 -0.1228
 6312TIP3    H140351   6.561   5.020   4.645  0.8445 -0.2138  0.1929
 6312TIP3    H240352   6.558   5.020   4.796 -0.8375 -1.2807  0.1866
 6313TIP3   OH240353   1.713   6.675   3.967 -0.1427 -0.1552  0.3558
 6313TIP3    H140354   1.690   6.584   3.951 -2.8844  0.2423  1.4719
 6313TIP3    H240355   1.774   6.697   3.896  0.8892 -2.9065  0.2855
 6314TIP3   OH240356   0.009   3.234  12.883  0.0596  0.1450 -0.4286
 6314TIP3    H140357   0.073   3.224  12.812  0.7840 -0.4768  0.2943
 6314TIP3    H240358  -0.036   3.150  12.887  1.5239 -0.6378  1.2414
 6315TIP3   OH240359   4.855   4.557  16.814  0.3645 -0.0237  0.8287
 6315TIP3    H140360   4.931   4.500  16.806  0.0570 -0.6523  2.1269
 6315TIP3    H240361   4.784   4.508  16.772  0.7404  0.7694 -0.8172
 6316TIP3   OH240362   0.023   3.715  15.717  0.0367  0.8804 -0.5231
 6316TIP3    H140363   0.092   3.650  15.724 -0.8277 -0.0897 -0.6938
 6316TIP3    H240364   0.058   3.793  15.759  0.5018 -0.1872  1.1486
 6317TIP3   OH240365   2.993   1.481  14.468 -0.0372  0.1636  0.9223
 6317TIP3    H140366   2.995   1.427  14.389  0.6722 -0.2282  1.1924
 6317TIP3    H240367   2.903   1.476  14.499 -0.3377  0.3912  0.0933
 6318TIP3   OH240368   3.159   1.435  14.687  0.5561 -0.3455 -0.0610
 6318TIP3    H140369   3.093   1.444  14.756  0.4042  1.1405 -0.3567
 6318TIP3    H240370   3.108   1.415  14.608  0.3281  1.4610 -0.4286
 6319TIP3   OH240371   1.495   4.060  12.491 -0.0455  0.0061  0.0555
 6319TIP3    H140372   1.464   4.123  12.426 -0.1229 -0.1595 -0.0704
 6319TIP3    H240373   1.570   4.103  12.532 -0.9160  0.7229  0.9128
 6320TIP3   OH240374   0.129   0.164  15.606  0.5425  0.8244  0.6024
 6320TIP3    H140375   0.052   0.184  15.658  0.0764 -1.1243  0.7255
 6320TIP3    H240376   0.183   0.109  15.663  1.6707  1.5063  0.2354
 6321TIP3   OH240377   5.215   3.139  14.037 -0.7852  0.5262 -0.4921
 6321TIP3    H140378   5.255   3.221  14.008 -0.2588  0.5393  0.2329
 6321TIP3    H240379   5.276   3.071  14.011 -1.7557  0.2280 -2.1046
 6322TIP3   OH240380   5.565   0.152   1.875  0.4115 -0.8635 -0.1080
 6322TIP3    H140381   5.506   0.140   1.801  1.9928 -1.6935 -1.3044
 6322TIP3    H240382   5.587   0.245   1.875  1.1683 -1.0327 -1.3148
 6323TIP3   OH240383   3.675   0.004   1.234  0.0685  0.2751  0.0041
 6323TIP3    H140384   3.667  -0.074   1.290  0.2636 -0.2302 -0.6657
 6323TIP3    H240385   3.589   0.046   1.240  0.0161  0.1111  0.5125
 6324TIP3   OH240386   4.936   4.005   0.429 -0.1268 -0.1380  0.8812
 6324TIP3    H140387   5.003   4.048   0.375  0.8302 -0.3360  1.8826
 6324TIP3    H240388   4.856   4.053   0.410  0.4928  0.7252  0.3716
 6325TIP3   OH240389   6.533   2.714  12.791 -0.2362 -0.3788 -0.3443
 6325TIP3    H140390   6.505   2.729  12.881 -0.1995  3.5405 -0.7717
 6325TIP3    H240391   6.628   2.701  12.796 -0.2336 -0.1611  0.2002
 6326TIP3   OH240392   3.940   6.782  15.182 -0.3948  0.2822 -0.3505
 6326TIP3    H140393   4.002   6.715  15.152 -0.0649  1.6818 -3.0381
 6326TIP3    H240394   3.959   6.791  15.276  1.0131 -1.8154 -0.3552
 6327TIP3   OH240395   5.746   0.230   5.589  0.0570  0.3711  0.4785
 6327TIP3    H140396   5.823   0.214   5.534  0.2734 -0.5043  1.0230
 6327TIP3    H240397   5.778   0.287   5.658  0.3750 -0.4564  1.0313
 6328TIP3   OH240398   6.271   0.772   2.943  0.0125  0.1731  0.4444
 6328TIP3    H140399   6.262   0.767   2.847 -0.2937  1.2197  0.3977
 6328TIP3    H240400   6.354   0.728   2.962  0.7170  1.0453 -0.4558
 6329TIP3   OH240401   1.093   6.756   4.905 -0.1170  0.2796 -0.8804
 6329TIP3    H140402   1.108   6.682   4.964 -0.8926  0.3190 -0.6289
 6329TIP3    H240403   1.176   6.803   4.905  0.0469  0.0038 -0.2054
 6330TIP3   OH240404   2.496   3.074  14.239 -0.2910 -0.1278 -0.7232
 6330TIP3    H140405   2.415   3.065  14.190 -1.7336 -1.4160  1.7070
 6330TIP3    H240406   2.523   2.984  14.258  0.8507  0.3142 -0.1351
 6331TIP3   OH240407   4.985   0.786  16.339 -0.1445 -0.1191 -0.0188
 6331TIP3    H140408   5.074   0.821  16.332 -0.8833  2.2469  1.3504
 6331TIP3    H240409   4.930   0.849  16.293 -1.6697  1.3387  3.4321
 6332TIP3   OH240410   4.079   0.727  16.017 -0.2676  0.1650  0.5500
 6332TIP3    H140411   4.140   0.655  16.001 -0.9188 -0.0051 -1.3813
 6332TIP3    H240412   4.130   0.791  16.067  0.4864 -1.3683  1.8355
 6333TIP3   OH240413   0.742   1.003   4.588 -0.3838 -0.0934 -0.0298
 6333TIP3    H140414   0.827   1.046   4.581 -1.0029  1.2349  0.3206
 6333TIP3    H240415   0.755   0.917   4.547  1.1398  0.0380  0.1062
 6334TIP3   OH240416   1.928   5.137  15.986 -0.2149  0.5238 -0.3030
 6334TIP3    H140417   1.868   5.212  15.984 -0.4404  0.4058  1.1757
 6334TIP3    H240418   1.925   5.106  16.076  0.7025 -0.6126 -0.6400
 6335TIP3   OH240419   1.686   6.273  13.097 -0.2288  0.0480 -0.4971
 6335TIP3    H140420   1.649   6.279  13.009  0.8617  1.1075 -0.9110
 6335TIP3    H240421   1.769   6.228  13.085  0.7405  1.7061 -0.3110
 6336TIP3   OH240422   1.707   4.609   4.160 -0.4440 -0.0694  0.1519
 6336TIP3    H140423   1.757   4.690   4.161 -0.5111 -0.0297  0.3558
 6336TIP3    H240424   1.617   4.636   4.141 -0.5791 -0.0299  0.8166
 6337TIP3   OH240425   5.305   6.348   2.444 -0.3077 -0.3810  0.1513
 6337TIP3    H140426   5.387   6.308   2.471  0.0872 -0.3892 -0.9756
 6337TIP3    H240427   5.243   6.275   2.441 -0.8204 -0.1100  2.6078
 6338TIP3   OH240428   6.313   2.938  12.878 -0.7475 -0.2418 -0.0905
 6338TIP3    H140429   6.259   2.870  12.837  1.2987 -0.4943 -2.7054
 6338TIP3    H240430   6.380   2.958  12.812  0.0552  2.7818  1.4381
 6339TIP3   OH240431   1.726   3.610   0.971  0.1660  0.1834  0.5873
 6339TIP3    H140432   1.670   3.532   0.972  2.5787 -1.7904 -2.5545
 6339TIP3    H240433   1.786   3.597   1.044 -0.4954  0.0184  1.1198
 6340TIP3   OH240434   4.146   4.491   0.935 -0.3982  0.2278  0.0206
 6340TIP3    H140435   4.051   4.482   0.932 -0.6404  2.4202 -0.1075
 6340TIP3    H240436   4.174   4.430   1.003 -1.8685 -0.4625  0.0387
 6341TIP3   OH240437   6.026   3.715   3.158  0.4820 -0.4545 -0.0679
 6341TIP3    H140438   6.014   3.657   3.082  0.9374 -0.5572 -0.0647
 6341TIP3    H240439   6.115   3.748   3.148  1.2188 -1.8843  1.3914
 6342TIP3   OH240440   5.734   4.247   6.486  0.4234 -0.2198 -0.1194
 6342TIP3    H140441   5.712   4.204   6.569 -0.2952 -0.4104 -0.4084
 6342TIP3    H240442   5.662   4.225   6.427 -1.1913  3.2010  0.3484
 6343TIP3   OH240443   5.463   6.253  13.958 -0.0956 -0.1149 -0.2414
 6343TIP3    H140444   5.504   6.288  13.879 -3.6706  0.5621 -2.0131
 6343TIP3    H240445   5.454   6.329  14.016  0.9571 -0.2494  0.1190
 6344TIP3   OH240446   5.656   3.282  15.146 -0.2919 -0.6750  0.3335
 6344TIP3    H140447   5.610   3.360  15.117  1.6137 -0.2656 -1.8841
 6344TIP3    H240448   5.660   3.291  15.241 -0.3214  1.8320  0.1664
 6345TIP3   OH240449   3.291   5.032  13.984  0.6012 -0.0550  0.3739
 6345TIP3    H140450   3.272   4.954  13.931  0.3917  1.9695 -2.8139
 6345TIP3    H240451   3.386   5.032  13.994  0.6576 -0.4448 -0.1246
 6346TIP3   OH240452   5.173   6.505   1.251  0.0088  0.2591  0.2566
 6346TIP3    H140453   5.246   6.519   1.311  0.4681 -0.9941  0.0203
 6346TIP3    H240454   5.150   6.593   1.220 -0.3964  0.9796  2.3962
 6347TIP3   OH240455   2.597   4.872  12.361  0.5618  0.2930  0.4701
 6347TIP3    H140456   2.560   4.791  12.327  0.8217  0.4916 -0.3111
 6347TIP3    H240457   2.686   4.874  12.325  0.1364  1.5439 -0.5861
 6348TIP3   OH240458   0.572   0.425   4.067 -0.4882 -0.2767 -0.0755
 6348TIP3    H140459   0.595   0.420   4.159  0.1307 -1.5565 -0.2832
 6348TIP3    H240460   0.496   0.367   4.057 -2.1406  1.7135  0.0515
 6349TIP3   OH240461   5.307   1.522  15.194 -0.3621 -0.2028  0.4492
 6349TIP3    H140462   5.401   1.526  15.211 -0.1446 -1.8838 -0.1970
 6349TIP3    H240463   5.269   1.491  15.276  0.0037 -2.3307 -0.1334
 6350TIP3   OH240464   5.115   0.184   2.504  0.3369  0.7831 -0.5819
 6350TIP3    H140465   5.068   0.161   2.423  1.1961  1.7886 -1.3956
 6350TIP3    H240466   5.115   0.280   2.505 -0.5408  0.7925  1.1579
 6351TIP3   OH240467   1.913   1.510   3.838  0.0364  0.5318 -0.0857
 6351TIP3    H140468   1.988   1.533   3.894  0.2215  2.3637 -1.0108
 6351TIP3    H240469   1.837   1.548   3.881 -0.0703  0.4787 -0.2246
 6352TIP3   OH240470   1.703   0.930  15.890  0.4068 -0.3563  0.9927
 6352TIP3    H140471   1.629   0.903  15.835 -1.6952  0.4707  3.2261
 6352TIP3    H240472   1.748   0.996  15.838 -1.7214  0.6802  0.3299
 6353TIP3   OH240473   5.316   4.850  15.155 -0.0364  0.7590  0.8689
 6353TIP3    H140474   5.299   4.838  15.248 -0.7028 -1.0589  0.5396
 6353TIP3    H240475   5.230   4.873  15.118 -0.0728 -0.0031  0.4802
 6354TIP3   OH240476   4.555   4.068   3.057  0.0218 -0.2262 -0.1210
 6354TIP3    H140477   4.567   4.145   3.003  0.6483 -0.1513  0.1128
 6354TIP3    H240478   4.472   4.082   3.102  0.2361  0.4140  0.0806
 6355TIP3   OH240479   1.308   2.407  16.280 -0.7499  0.0703  0.2379
 6355TIP3    H140480   1.303   2.445  16.368 -0.9021  0.6759 -0.0258
 6355TIP3    H240481   1.370   2.334  16.289  0.9262  1.4463  0.3767
 6356TIP3   OH240482   1.646   3.065  11.869  0.8995 -0.5306  0.2719
 6356TIP3    H140483   1.690   3.106  11.795 -0.9939 -0.6334 -0.9733
 6356TIP3    H240484   1.600   3.138  11.913 -0.3173 -0.8728 -0.3887
 6357TIP3   OH240485   6.365   5.041  15.676  0.5158  0.7309  0.0252
 6357TIP3    H140486   6.375   4.971  15.611 -0.5727  0.8075 -0.2364
 6357TIP3    H240487   6.284   5.020  15.722  0.5820  1.4040  0.4561
 6358TIP3   OH240488   6.330   0.710  14.618 -0.5216 -0.2789  0.1937
 6358TIP3    H140489   6.255   0.655  14.599 -0.4738  0.2370 -1.6996
 6358TIP3    H240490   6.293   0.798  14.628 -0.4243 -0.3779  1.7633
 6359TIP3   OH240491   3.708   2.527   1.667  0.7233  0.2099  0.5033
 6359TIP3    H140492   3.627   2.551   1.624  2.6382  0.4290 -3.3650
 6359TIP3    H240493   3.724   2.598   1.730 -0.8896  1.3609 -0.3208
 6360TIP3   OH240494   4.744   0.589   4.786 -0.0765  0.1539  0.1430
 6360TIP3    H140495   4.689   0.613   4.860 -2.1731 -1.1482 -0.9265
 6360TIP3    H240496   4.688   0.603   4.709  1.3897 -0.3868 -1.0656
 6361TIP3   OH240497   3.347   0.979  12.791 -0.2548 -0.0916  0.3276
 6361TIP3    H140498   3.398   0.918  12.738 -0.8848 -1.7211  1.5012
 6361TIP3    H240499   3.410   1.045  12.820  0.8863 -1.2534  0.5689
 6362TIP3   OH240500   1.493   1.751  11.850  0.4662  0.2260  0.4014
 6362TIP3    H140501   1.516   1.747  11.757 -0.5560 -1.2899  0.1804
 6362TIP3    H240502   1.566   1.708  11.894  0.2365 -0.4290  0.1481
 6363TIP3   OH240503   6.065   4.391  11.654  0.2975 -0.3242  0.2679
 6363TIP3    H140504   6.135   4.430  11.603  0.3866  0.2150  0.7942
 6363TIP3    H240505   6.030   4.322  11.597  0.9826 -0.3361 -0.1566
 6364TIP3   OH240506   0.349   2.193   4.868 -0.4116 -0.1527 -0.5769
 6364TIP3    H140507   0.306   2.116   4.831 -0.9680 -0.3365  0.4140
 6364TIP3    H240508   0.280   2.238   4.917  0.5281 -0.5515  1.1981
 6365TIP3   OH240509   1.459   5.160   3.949  0.2728 -0.3661 -0.0518
 6365TIP3    H140510   1.411   5.088   3.989  2.4899 -1.3492  1.0456
 6365TIP3    H240511   1.467   5.225   4.018  1.0417 -0.5095  0.0064
 6366TIP3   OH240512   4.921   3.749  15.300  0.1436 -0.3949 -0.0027
 6366TIP3    H140513   4.836   3.730  15.262  0.3688 -2.2755  0.3305
 6366TIP3    H240514   4.904   3.762  15.394 -0.2010  2.7513 -0.3852
 6367TIP3   OH240515   2.191   3.989   4.167 -0.3796  0.0855 -0.1241
 6367TIP3    H140516   2.121   3.944   4.213 -0.4232 -0.7596 -0.9907
 6367TIP3    H240517   2.271   3.941   4.191  0.0162  1.4054  1.3361
 6368TIP3   OH240518   0.309   6.189  13.442  0.1980 -0.3676  0.3469
 6368TIP3    H140519   0.223   6.147  13.440 -0.7921  1.5250  0.4050
 6368TIP3    H240520   0.332   6.203  13.350  0.1838 -0.3894  0.3402
 6369TIP3   OH240521   3.974   5.572  10.869 -0.4566  0.0208 -0.1108
 6369TIP3    H140522   3.885   5.565  10.834  0.0185  0.1905 -1.4098
 6369TIP3    H240523   4.017   5.492  10.841 -0.4543 -0.5254  1.3647
 6370TIP3   OH240524   3.942   4.513  16.629 -0.0249 -0.3856  0.7933
 6370TIP3    H140525   3.966   4.592  16.677  1.2043 -1.0876  1.3779
 6370TIP3    H240526   3.997   4.515  16.550 -2.2722  0.9400 -0.8472
 6371TIP3   OH240527   2.253   3.273   0.036 -0.1111 -0.1017  0.0891
 6371TIP3    H140528   2.256   3.231   0.122 -1.3113 -3.2108 -1.2432
 6371TIP3    H240529   2.310   3.219  -0.019  0.4428  1.6817 -1.1619
 6372TIP3   OH240530   1.850   0.922   0.017 -0.1029 -0.3587 -0.6678
 6372TIP3    H140531   1.826   1.013   0.036  2.2028  0.2991 -0.6451
 6372TIP3    H240532   1.938   0.928  -0.021  0.5900 -2.6616  0.4118
 6373TIP3   OH240533   2.372   6.528   1.852  0.3992  0.0652 -0.3454
 6373TIP3    H140534   2.447   6.470   1.847 -0.4529 -1.0821 -0.2562
 6373TIP3    H240535   2.401   6.600   1.907  0.6119 -1.6761  1.9859
 6374TIP3   OH240536   4.724   3.060   1.166  0.4103 -0.4969 -0.0236
 6374TIP3    H140537   4.816   3.082   1.154  0.6357  0.3079  2.5546
 6374TIP3    H240538   4.677   3.138   1.139  0.4388 -0.9133 -1.3557
 6375TIP3   OH240539   2.450   3.871   4.253 -0.3728 -0.2224 -0.3353
 6375TIP3    H140540   2.410   3.879   4.340  0.1936 -1.5927  0.0776
 6375TIP3    H240541   2.443   3.777   4.232  0.5142 -0.0923 -1.2741
 6376TIP3   OH240542   3.283   2.992  11.644 -0.1462 -1.0905  0.5344
 6376TIP3    H140543   3.322   2.909  11.616 -0.2900 -0.9335 -0.1562
 6376TIP3    H240544   3.190   2.981  11.625  0.0339 -0.2133 -1.0335
 6377TIP3   OH240545   2.818   4.357  14.681  0.4518 -0.5062 -0.3801
 6377TIP3    H140546   2.844   4.289  14.744 -2.5050 -0.2018  1.3461
 6377TIP3    H240547   2.732   4.328  14.649 -0.3581  1.8468 -0.4876
 6378TIP3   OH240548   0.761   5.034   1.791 -0.5158  0.0439 -0.5363
 6378TIP3    H140549   0.808   5.118   1.787  2.8804 -1.6991 -0.5931
 6378TIP3    H240550   0.763   5.001   1.701  2.0517 -1.9358  0.1366
 6379TIP3   OH240551   0.010   4.833  11.324 -0.2918 -0.0172  0.4864
 6379TIP3    H140552   0.099   4.797  11.323 -0.3442 -0.1444  0.0391
 6379TIP3    H240553  -0.046   4.757  11.337 -0.2800  0.2092  2.0521
 6380TIP3   OH240554   2.471   4.650   3.748 -0.2396  0.1564 -0.5750
 6380TIP3    H140555   2.401   4.680   3.689 -0.5879 -0.7678 -0.6505
 6380TIP3    H240556   2.547   4.640   3.691 -0.2859  0.3029 -0.6633
 6381TIP3   OH240557   6.701   1.929  11.706 -0.0216  0.4659 -0.0106
 6381TIP3    H140558   6.683   1.882  11.625 -0.6959  1.7983 -0.6699
 6381TIP3    H240559   6.633   1.901  11.766  0.4621 -0.5029  0.1075
 6382TIP3   OH240560   5.463   4.535  12.034 -0.3275 -0.2830  0.4827
 6382TIP3    H140561   5.521   4.465  12.064 -2.1594 -1.3829  1.5901
 6382TIP3    H240562   5.379   4.517  12.075 -0.3889  3.8577  2.7035
 6383TIP3   OH240563   6.687   4.704   3.704  0.2622  0.2677  0.3322
 6383TIP3    H140564   6.595   4.720   3.727  0.4399  0.8104  0.6727
 6383TIP3    H240565   6.700   4.611   3.724 -0.4565 -0.0432 -0.5723
 6384TIP3   OH240566   5.180   1.147   3.634 -0.0448  0.6840 -0.3513
 6384TIP3    H140567   5.249   1.213   3.638  1.8156 -1.1475 -0.4619
 6384TIP3    H240568   5.170   1.117   3.724  0.8495 -0.5145 -0.6240
 6385TIP3   OH240569   2.954   4.695  16.293 -0.1297 -0.3985  0.2612
 6385TIP3    H140570   2.985   4.680  16.204 -1.8522 -1.5441 -0.1887
 6385TIP3    H240571   3.009   4.640  16.348  0.3455 -0.3878 -0.1997
 6386TIP3   OH240572   4.802   5.511  11.091  0.5446  0.8339  0.0954
 6386TIP3    H140573   4.893   5.532  11.068  1.4805 -2.4463  0.2820
 6386TIP3    H240574   4.764   5.476  11.011  0.2323 -0.0708  0.6206
 6387TIP3   OH240575   3.925   1.324   3.401  0.2427 -0.0269 -0.3310
 6387TIP3    H140576   3.986   1.385   3.359 -0.0258  0.5150  0.0647
 6387TIP3    H240577   3.972   1.295   3.480 -0.0847  0.5439  0.0796
 6388TIP3   OH240578   3.342   3.599   2.579 -0.4667 -0.1838 -0.1080
 6388TIP3    H140579   3.357   3.532   2.513 -1.3717  0.8755 -1.4407
 6388TIP3    H240580   3.258   3.638   2.555  0.4675  2.0820  0.0360
 6389TIP3   OH240581   2.157   2.819  13.153  0.8030  0.3597 -0.2113
 6389TIP3    H140582   2.114   2.734  13.153  1.6189 -0.1324  1.9483
 6389TIP3    H240583   2.237   2.805  13.103 -0.4497  0.7243 -2.4430
 6390TIP3   OH240584   3.856   5.116  14.092  0.2009 -0.7266 -0.5613
 6390TIP3    H140585   3.921   5.057  14.130  0.1135 -1.5755 -1.6870
 6390TIP3    H240586   3.774   5.067  14.098  0.2189 -0.9785 -2.0172
 6391TIP3   OH240587   4.050   1.592   1.187  0.2494 -0.5301  0.0439
 6391TIP3    H140588   4.016   1.516   1.235 -3.0997 -1.3387 -3.1356
 6391TIP3    H240589   4.089   1.555   1.108  0.5479  0.9675 -0.5425
 6392TIP3   OH240590   1.779   6.508  11.330 -0.1253 -0.3185 -0.0576
 6392TIP3    H140591   1.864   6.552  11.340  0.0011 -0.6257  0.2244
 6392TIP3    H240592   1.786   6.429  11.383 -0.9870  0.2089  0.9013
 6393TIP3   OH240593   0.755   1.433   5.814  0.0341  0.0604 -0.0489
 6393TIP3    H140594   0.739   1.526   5.798  0.7406  0.1609 -0.2041
 6393TIP3    H240595   0.740   1.391   5.729 -0.4760  0.0030  0.0666
 6394TIP3   OH240596   1.481   4.000   4.673  0.6027 -0.2115 -0.4744
 6394TIP3    H140597   1.551   4.059   4.644 -0.7494  2.0562  0.6176
 6394TIP3    H240598   1.402   4.054   4.670 -0.5882 -1.7656  1.2755
 6395TIP3   OH240599   2.045   2.054  13.236 -0.0773 -0.0328  0.0322
 6395TIP3    H140600   2.019   2.041  13.327 -0.3447  1.1878  0.1495
 6395TIP3    H240601   2.136   2.026  13.233 -0.3190 -0.8869  0.4715
 6396TIP3   OH240602   5.783   5.538   5.118  0.0341  0.1029 -1.3081
 6396TIP3    H140603   5.790   5.610   5.181  1.1982 -0.2021 -1.0614
 6396TIP3    H240604   5.733   5.470   5.164  2.3271 -0.8088  0.0044
 6397TIP3   OH240605   4.513   0.975   3.224  0.5083  0.7027  0.9127
 6397TIP3    H140606   4.552   0.963   3.138  0.9211  0.0600  1.1806
 6397TIP3    H240607   4.450   1.045   3.212  0.7213  0.7734  0.1391
 6398TIP3   OH240608   1.535   2.271   4.496  0.1541 -0.5199  0.8432
 6398TIP3    H140609   1.597   2.221   4.548 -1.3020 -2.0817  1.1705
 6398TIP3    H240610   1.511   2.212   4.424 -2.1342 -0.6315  1.6184
 6399TIP3   OH240611   2.782   5.750  16.763 -0.8281 -0.0607  0.0781
 6399TIP3    H140612   2.721   5.732  16.692 -0.9192  2.0054 -0.4295
 6399TIP3    H240613   2.841   5.674  16.764 -2.3140 -1.2774 -0.5530
 6400TIP3   OH240614   4.620   1.702   5.825 -0.1667 -0.7354  0.3759
 6400TIP3    H140615   4.545   1.748   5.788  0.2314 -0.2125  0.2012
 6400TIP3    H240616   4.694   1.762   5.812  0.0995 -0.7908  1.4739
 6401TIP3   OH240617   5.807   4.514  11.002  0.3985 -1.1817  0.3067
 6401TIP3    H140618   5.809   4.418  10.994 -0.7855 -1.0657 -2.0646
 6401TIP3    H240619   5.870   4.545  10.938 -0.6889 -0.3556 -0.4032
 6402TIP3   OH240620   6.416   0.410  14.835 -0.0709  0.2856  0.0125
 6402TIP3    H140621   6.448   0.363  14.912  0.5369  0.0783 -0.3583
 6402TIP3    H240622   6.436   0.502  14.853  0.3553  0.2036 -0.0291
 6403TIP3   OH240623   4.108   1.411  11.417 -0.6368 -0.0566  0.0794
 6403TIP3    H140624   4.045   1.392  11.348 -1.1673 -0.5973  0.7047
 6403TIP3    H240625   4.056   1.418  11.497  0.1733 -1.4596  0.7712
 6404TIP3   OH240626   2.415   5.703  11.678 -0.4551  0.5177  0.3722
 6404TIP3    H140627   2.340   5.757  11.701  0.0645  0.8650  1.2756
 6404TIP3    H240628   2.483   5.765  11.651  1.1008  0.6263  4.0265
 6405TIP3   OH240629   2.167   0.346   0.554 -0.0429 -0.2256  0.1880
 6405TIP3    H140630   2.120   0.263   0.564 -0.5731  0.1182  0.6174
 6405TIP3    H240631   2.135   0.401   0.626 -0.3891  0.6713 -0.6168
 6406TIP3   OH240632   4.901   4.597  14.033 -0.1477  0.0954 -0.1262
 6406TIP3    H140633   4.980   4.649  14.051  1.5239 -2.2351 -0.2361
 6406TIP3    H240634   4.933   4.507  14.029 -2.4603 -0.7348 -2.5223
 6407TIP3   OH240635   0.772   5.092  11.185 -0.0296 -0.1582  0.2384
 6407TIP3    H140636   0.796   5.042  11.107  0.1365 -2.2834  1.5714
 6407TIP3    H240637   0.694   5.048  11.219  0.6362 -0.0830  1.9582
 6408TIP3   OH240638   3.328   6.785   0.714 -0.4541  0.3044  0.0040
 6408TIP3    H140639   3.287   6.870   0.703 -1.1972 -0.0519 -0.0573
 6408TIP3    H240640   3.422   6.803   0.715 -0.6084  1.1256  0.0735
 6409TIP3   OH240641   0.960   2.362   1.722  0.9593  0.1815  0.4414
 6409TIP3    H140642   0.935   2.292   1.662  0.0530  0.8862 -0.0347
 6409TIP3    H240643   0.956   2.441   1.669 -0.2245  0.8704  1.5042
 6410TIP3   OH240644   5.349   1.953   2.240 -0.5735  0.1548  0.8916
 6410TIP3    H140645   5.268   1.999   2.221 -0.4047 -0.6580 -2.2820
 6410TIP3    H240646   5.324   1.886   2.303 -2.1640  0.4609  0.6321
 6411TIP3   OH240647   3.849   2.843   4.904  0.1917  0.0242  0.4000
 6411TIP3    H140648   3.810   2.857   4.818  1.6152 -0.2279 -0.3103
 6411TIP3    H240649   3.795   2.774   4.944 -0.6299  0.3254 -0.1605
 6412TIP3   OH240650   2.824   3.319   5.691  0.4296  0.0954 -0.0923
 6412TIP3    H140651   2.898   3.336   5.749 -0.4393  1.2191  0.7389
 6412TIP3    H240652   2.826   3.390   5.628  1.8935 -1.5908 -2.0801
 6413TIP3   OH240653   5.991   4.245   2.325  0.2498 -0.3532  0.2448
 6413TIP3    H140654   5.960   4.206   2.407  1.4226 -1.2984  0.2733
 6413TIP3    H240655   5.963   4.337   2.330 -0.8321 -0.7035  1.0941
 6414TIP3   OH240656   1.259   6.730  11.577 -0.4698  0.6892 -0.0013
 6414TIP3    H140657   1.233   6.642  11.549 -1.5644  1.2458 -0.7961
 6414TIP3    H240658   1.181   6.783  11.564 -0.0719  1.6254  1.2491
 6415TIP3   OH240659   2.040   1.537  12.852 -0.3555 -0.8958 -0.1547
 6415TIP3    H140660   1.954   1.559  12.887 -0.3059 -2.1746  0.8191
 6415TIP3    H240661   2.039   1.572  12.762 -1.9241 -1.0046 -0.2051
 6416TIP3   OH240662   5.976   6.732  13.457  0.1714  0.7785 -0.3184
 6416TIP3    H140663   5.937   6.689  13.381  1.4628 -3.3615  1.1076
 6416TIP3    H240664   5.904   6.782  13.495 -1.6374 -0.4537 -1.9168
 6417TIP3   OH240665   6.571   4.421  11.583  0.2353  0.6635  0.5484
 6417TIP3    H140666   6.567   4.339  11.532  0.6161  0.1352  1.3504
 6417TIP3    H240667   6.608   4.395  11.667 -1.7020  1.2621  1.6332
 6418TIP3   OH240668   3.680   3.845  13.550  0.2850  0.4963 -0.2465
 6418TIP3    H140669   3.687   3.907  13.622  0.7223  0.9484 -0.6727
 6418TIP3    H240670   3.770   3.825  13.525  0.1571 -0.4165 -0.0347
 6419TIP3   OH240671   5.417   4.871  16.582  0.4392 -0.2712  0.0130
 6419TIP3    H140672   5.404   4.906  16.494  0.7735 -2.1850 -0.8589
 6419TIP3    H240673   5.498   4.820  16.575  0.4558 -0.4661  1.4346
 6420TIP3   OH240674   1.341   3.841  17.064  0.1503 -0.2038 -0.3640
 6420TIP3    H140675   1.375   3.757  17.033  0.3705 -0.1573 -0.2548
 6420TIP3    H240676   1.418   3.898  17.068  0.4122 -0.6388  1.7550
 6421TIP3   OH240677   1.920   6.102  15.446  0.2922 -0.1808 -0.5212
 6421TIP3    H140678   1.835   6.135  15.416  0.7650  0.9418 -0.6744
 6421TIP3    H240679   1.976   6.105  15.368  0.2993 -1.5888 -0.5979
 6422TIP3   OH240680   0.889   6.203   3.483  0.2726  0.3811  0.4327
 6422TIP3    H140681   0.865   6.293   3.459 -1.3985 -0.1817 -0.1667
 6422TIP3    H240682   0.892   6.156   3.400 -1.1625 -0.5970  0.8851
 6423TIP3   OH240683   5.287   1.925   0.376 -0.7823 -0.0069 -0.4227
 6423TIP3    H140684   5.345   1.945   0.303  0.0159  5.4289  1.2259
 6423TIP3    H240685   5.200   1.913   0.336 -0.1451  1.4640 -2.4050
 6424TIP3   OH240686   6.580   6.479   6.059 -0.2018 -0.4881  0.4831
 6424TIP3    H140687   6.557   6.539   6.129  0.0763  0.3686 -0.1457
 6424TIP3    H240688   6.676   6.473   6.063 -0.2067 -0.6532  0.3505
 6425TIP3   OH240689   3.409   1.048  13.671 -0.3565  0.0339 -0.1401
 6425TIP3    H140690   3.353   1.121  13.696 -0.8025 -0.3571  0.0172
 6425TIP3    H240691   3.357   0.998  13.608 -0.3426 -0.5406  0.2927
 6426TIP3   OH240692   0.348   0.914   2.271  0.2523 -0.0819  0.3499
 6426TIP3    H140693   0.371   0.956   2.354 -0.1990  1.2514 -0.1579
 6426TIP3    H240694   0.281   0.972   2.234 -1.9411 -2.3417  0.5283
 6427TIP3   OH240695   5.126   4.719  11.929 -0.3001 -0.2957 -0.2534
 6427TIP3    H140696   5.070   4.784  11.971  0.7516  0.7194 -0.3511
 6427TIP3    H240697   5.210   4.728  11.973  0.2465 -0.6312 -1.1959
 6428TIP3   OH240698   0.125   6.539  12.901 -0.0001 -0.3310 -0.2714
 6428TIP3    H140699   0.193   6.596  12.864  0.6569 -0.9187  0.0013
 6428TIP3    H240700   0.173   6.478  12.957 -0.6441 -1.3389 -0.7823
 6429TIP3   OH240701   4.839   6.800  13.305 -0.0013 -0.5341 -0.2539
 6429TIP3    H140702   4.931   6.775  13.302 -0.0053 -0.6473  0.3975
 6429TIP3    H240703   4.813   6.808  13.214  0.5851 -0.7557 -0.4431
 6430TIP3   OH240704   4.456   5.391  16.208  0.0313 -0.1381  0.4325
 6430TIP3    H140705   4.433   5.303  16.178 -1.0509 -0.3653  1.8238
 6430TIP3    H240706   4.437   5.390  16.302  0.4947  1.4349  0.5727
 6431TIP3   OH240707   0.444   0.276  15.351 -0.4452  0.3806  0.1696
 6431TIP3    H140708   0.500   0.343  15.389 -1.4061  2.0512 -1.1989
 6431TIP3    H240709   0.501   0.225  15.294  0.1825  0.4282  0.7519
 6432TIP3   OH240710   5.937   6.237  11.462 -0.2140  0.6209  0.3117
 6432TIP3    H140711   5.983   6.320  11.450  0.0225  0.4237 -0.2219
 6432TIP3    H240712   5.978   6.178  11.397 -0.6404  0.2017  0.4187
 6433TIP3   OH240713   0.041   5.426   3.619  0.2253 -0.4512  0.1705
 6433TIP3    H140714   0.055   5.488   3.548 -0.6191  1.3368  1.4835
 6433TIP3    H240715  -0.007   5.354   3.580  0.6246  0.0310 -1.2541
 6434TIP3   OH240716   1.555   2.984   1.839 -0.1222  0.3675  0.5255
 6434TIP3    H140717   1.559   3.074   1.807 -1.4725  0.2810  0.0356
 6434TIP3    H240718   1.484   2.985   1.904  0.0153 -0.2900  0.6916
 6435TIP3   OH240719   2.690   3.258   5.418 -0.3992 -0.1120  0.0113
 6435TIP3    H140720   2.739   3.314   5.358 -1.1369  0.2482 -0.2671
 6435TIP3    H240721   2.614   3.230   5.368  0.2157 -1.8201 -0.0354
 6436TIP3   OH240722   5.795   1.883  16.091  0.1115  0.2360 -0.2680
 6436TIP3    H140723   5.735   1.810  16.109  0.2024  0.0055 -0.8579
 6436TIP3    H240724   5.769   1.914  16.004 -0.7052  1.6899  0.4615
 6437TIP3   OH240725   2.670   5.864  15.688 -0.0038  1.0356 -0.2513
 6437TIP3    H140726   2.693   5.806  15.614 -4.8185 -1.5301 -0.1238
 6437TIP3    H240727   2.668   5.951  15.649 -0.4341  0.0421 -2.6844
 6438TIP3   OH240728   4.133   5.883   0.216  0.3473 -0.3520 -0.3104
 6438TIP3    H140729   4.043   5.907   0.194 -0.4197 -0.7237  2.1620
 6438TIP3    H240730   4.187   5.934   0.156 -1.4197  2.1098  0.0607
 6439TIP3   OH240731   0.433   0.449  13.543 -0.3904  0.7591 -0.4170
 6439TIP3    H140732   0.353   0.411  13.581  0.1501 -0.2107 -0.2220
 6439TIP3    H240733   0.486   0.474  13.619  0.0656  0.1667 -0.5398
 6440TIP3   OH240734   0.618   2.236   3.846 -0.0611  0.1040  0.2695
 6440TIP3    H140735   0.679   2.308   3.862  0.0570  0.1164 -0.2266
 6440TIP3    H240736   0.623   2.221   3.752  0.6757 -1.2378  0.5105
 6441TIP3   OH240737   4.608   1.193  12.954  0.5006  0.4505 -0.3977
 6441TIP3    H140738   4.677   1.155  12.900 -0.8777  0.3771 -2.1954
 6441TIP3    H240739   4.528   1.183  12.902 -0.5823  2.1435  0.8224
 6442TIP3   OH240740   3.824   1.082   3.258  0.0744 -0.8981  0.1950
 6442TIP3    H140741   3.787   1.130   3.184  3.0756 -0.1260 -0.9492
 6442TIP3    H240742   3.857   1.150   3.316  0.8009 -1.5185  0.5241
 6443TIP3   OH240743   4.267   6.208   3.499 -0.0912 -0.2893  0.5639
 6443TIP3    H140744   4.228   6.223   3.413  1.0966 -0.1492  0.0234
 6443TIP3    H240745   4.194   6.216   3.561 -0.9409 -0.2863 -0.4163
 6444TIP3   OH240746   1.718   5.000  12.019 -0.2076  0.2617  0.2398
 6444TIP3    H140747   1.644   4.962  11.973 -0.7208  0.6149  0.7555
 6444TIP3    H240748   1.795   4.962  11.977 -0.6695  0.2138 -0.5764
 6445TIP3   OH240749   1.034   6.336   2.171  0.0497 -0.0360 -0.1748
 6445TIP3    H140750   0.999   6.285   2.244 -1.6705 -0.1833 -1.0650
 6445TIP3    H240751   0.987   6.419   2.174  0.6374  0.3251 -0.5792
 6446TIP3   OH240752   4.246   0.644  12.678 -0.0063  0.2190  0.9136
 6446TIP3    H140753   4.285   0.670  12.762  0.6054 -1.7381  1.2771
 6446TIP3    H240754   4.171   0.589  12.703 -0.2188  0.1683  0.1779
 6447TIP3   OH240755   6.562   2.043  15.055 -0.6218 -0.7443 -0.0316
 6447TIP3    H140756   6.474   2.022  15.086 -1.0114  0.3507 -0.3346
 6447TIP3    H240757   6.561   2.018  14.962 -0.2439 -1.7470  0.2186
 6448TIP3   OH240758   5.996   3.719  14.037 -0.1314 -0.0036 -0.1129
 6448TIP3    H140759   6.056   3.766  14.095 -1.1068 -1.0042  1.8084
 6448TIP3    H240760   6.052   3.659  13.988  0.5313 -0.4112  1.1178
 6449TIP3   OH240761   0.517   5.597   3.266  0.6842  0.2507 -0.3585
 6449TIP3    H140762   0.483   5.567   3.182 -0.8769  0.5855  0.1361
 6449TIP3    H240763   0.469   5.677   3.285  1.1157  0.2587  0.8015
 6450TIP3   OH240764   2.315   0.996   4.979 -0.3329 -0.3884  0.0593
 6450TIP3    H140765   2.370   1.021   5.054 -2.5227 -1.6970  2.2738
 6450TIP3    H240766   2.318   0.900   4.978  0.5434 -0.4052 -2.3344
 6451TIP3   OH240767   0.590   4.206  14.266  0.1737  0.2932  0.2477
 6451TIP3    H140768   0.516   4.263  14.288  0.2920  0.0446  1.3246
 6451TIP3    H240769   0.559   4.155  14.191 -1.0303 -0.3411  1.1345
 6452TIP3   OH240770   5.162   0.543  13.065 -0.0550  0.1950  0.4370
 6452TIP3    H140771   5.067   0.542  13.069 -0.0565  1.3664  3.4266
 6452TIP3    H240772   5.182   0.582  12.980 -2.0610 -2.9066 -1.6766
 6453TIP3   OH240773   2.269   6.536  12.481  0.0803 -0.1008 -0.4556
 6453TIP3    H140774   2.303   6.466  12.426  2.1045  0.8028 -0.4660
 6453TIP3    H240775   2.289   6.509  12.570  0.6551  0.3251 -0.4461
 6454TIP3   OH240776   4.702   5.037  14.518 -0.2157 -0.1667  0.2365
 6454TIP3    H140777   4.696   5.111  14.457  0.0908 -0.3793 -0.0610
 6454TIP3    H240778   4.618   4.992  14.510  0.1575 -0.7373 -0.7547
 6455TIP3   OH240779   5.146   2.057   4.266  0.2970  0.0722 -0.1071
 6455TIP3    H140780   5.058   2.030   4.294  0.1534 -0.3728 -0.9649
 6455TIP3    H240781   5.189   2.084   4.347 -0.8562  0.9587  0.2320
 6456TIP3   OH240782   2.616   5.146   6.424 -0.0310 -0.4294 -0.3440
 6456TIP3    H140783   2.655   5.086   6.487 -1.7223 -0.3430  0.8490
 6456TIP3    H240784   2.669   5.135   6.345  0.9590 -1.9573  0.4731
 6457TIP3   OH240785   4.992   2.124  15.895 -0.3927 -0.2280 -0.6083
 6457TIP3    H140786   5.038   2.151  15.815 -0.0737 -0.8322 -0.6323
 6457TIP3    H240787   4.915   2.182  15.898  0.2773  0.6945 -0.6414
 6458TIP3   OH240788   2.283   0.692  11.047  0.1262 -0.4625  0.0710
 6458TIP3    H140789   2.330   0.756  11.102 -0.2059 -1.4246  1.5344
 6458TIP3    H240790   2.208   0.741  11.014  0.7625  0.3681 -0.1973
 6459TIP3   OH240791   1.903   0.571  13.153 -0.0370 -0.6170  0.9572
 6459TIP3    H140792   1.990   0.565  13.113  1.1362  2.0217  2.8135
 6459TIP3    H240793   1.849   0.612  13.086  0.5713 -0.7259  0.3816
 6460TIP3   OH240794   5.919   3.505  15.709 -0.0826 -0.3710 -0.2902
 6460TIP3    H140795   5.980   3.520  15.637  1.1875 -1.8844  0.4201
 6460TIP3    H240796   5.972   3.508  15.788 -1.6709  2.6871  0.8228
 6461TIP3   OH240797   1.356   0.074  17.115 -0.1602 -0.2450 -0.0600
 6461TIP3    H140798   1.403  -0.008  17.125 -1.0061 -0.8704 -1.0423
 6461TIP3    H240799   1.417   0.130  17.066  1.2850  0.5154  2.4442
 6462TIP3   OH240800   3.108   5.585   0.846  0.3414 -0.5123  0.2700
 6462TIP3    H140801   3.047   5.653   0.874 -0.0953 -0.7583 -0.0594
 6462TIP3    H240802   3.180   5.633   0.805 -0.4174 -0.2781 -0.8303
 6463TIP3   OH240803   4.099   0.030   2.039  0.2002  0.6373 -0.0072
 6463TIP3    H140804   4.063   0.111   2.076  0.5319  0.9493 -0.3638
 6463TIP3    H240805   4.152   0.058   1.965  1.1905  0.1856  0.5106
 6464TIP3   OH240806   1.776   0.487   2.514 -0.2132 -0.1007  0.2549
 6464TIP3    H140807   1.746   0.576   2.495  1.8032  0.5442 -0.1690
 6464TIP3    H240808   1.701   0.431   2.492 -0.7067  1.2903 -1.8480
 6465TIP3   OH240809   5.507   5.340  14.170  0.3524 -0.2489 -0.0481
 6465TIP3    H140810   5.423   5.298  14.150  0.9293 -1.5123  0.0752
 6465TIP3    H240811   5.544   5.361  14.084  0.2104 -0.3260 -0.1295
 6466TIP3   OH240812   0.834   1.600   0.987  0.3524 -0.5184  0.2219
 6466TIP3    H140813   0.789   1.532   0.938 -1.2757 -1.7278  3.1575
 6466TIP3    H240814   0.779   1.678   0.976  0.1583 -0.6891 -0.0204
 6467TIP3   OH240815   5.488   3.271   3.180 -0.7030  0.2760 -0.1935
 6467TIP3    H140816   5.516   3.211   3.111  1.2568 -2.6178  2.8152
 6467TIP3    H240817   5.401   3.240   3.206 -0.9924  0.7125 -0.6136
 6468TIP3   OH240818   0.672   1.930   4.620 -0.0940 -0.5042 -0.5198
 6468TIP3    H140819   0.746   1.913   4.678  0.3630 -0.2261 -1.0153
 6468TIP3    H240820   0.647   2.021   4.638 -0.2777 -0.5763 -0.4016
 6469TIP3   OH240821   6.339   4.410   5.142  1.0094 -0.2581  0.5910
 6469TIP3    H140822   6.261   4.355   5.138  0.7140 -0.3201  4.0161
 6469TIP3    H240823   6.412   4.349   5.146  1.1257 -0.2333 -0.7483
 6470TIP3   OH240824   5.004   5.787  12.518 -0.1052  0.2669  0.0482
 6470TIP3    H140825   4.991   5.700  12.480  1.2130 -0.5742  1.4299
 6470TIP3    H240826   5.092   5.811  12.492 -0.1650  0.8388  0.3728
 6471TIP3   OH240827   4.327   6.282  16.809  0.2437  0.2288  0.6246
 6471TIP3    H140828   4.249   6.335  16.793  0.1964  0.2016  0.7643
 6471TIP3    H240829   4.389   6.309  16.741  0.2951  0.6082  0.8227
 6472TIP3   OH240830   2.881   5.565   5.672  0.4175  0.2912  0.0697
 6472TIP3    H140831   2.905   5.631   5.737 -2.4652  0.7080  0.8422
 6472TIP3    H240832   2.786   5.572   5.664  0.2327 -2.3867 -1.3655
 6473TIP3   OH240833   2.937   1.687   1.219 -0.7213 -0.2958 -0.1758
 6473TIP3    H140834   2.904   1.598   1.228 -0.7468 -0.1949  0.8873
 6473TIP3    H240835   2.872   1.731   1.164 -0.0162 -1.2585 -1.8619
 6474TIP3   OH240836   1.398   6.433   3.328  0.4105  0.2230  0.4868
 6474TIP3    H140837   1.324   6.415   3.270  0.4627 -1.7208  0.9456
 6474TIP3    H240838   1.434   6.516   3.296 -0.5799  0.0580 -1.1759
 6475TIP3   OH240839   0.048   4.526  16.075 -0.0185  0.2281  0.1001
 6475TIP3    H140840   0.095   4.606  16.099  1.7852  0.3106 -3.2051
 6475TIP3    H240841  -0.032   4.556  16.032  0.3199  0.2246 -0.5257
 6476TIP3   OH240842   3.504   1.182  16.873 -0.0086  0.1862 -0.3945
 6476TIP3    H140843   3.553   1.162  16.793  1.8353  1.1845  0.3957
 6476TIP3    H240844   3.416   1.148  16.857 -0.4696  2.4201 -3.7983
 6477TIP3   OH240845   0.614   4.104   0.669 -0.2308  0.2802 -0.3207
 6477TIP3    H140846   0.642   4.067   0.753 -0.0816  0.2676 -0.3755
 6477TIP3    H240847   0.557   4.177   0.693 -0.3162  0.1772 -0.2102
 6478TIP3   OH240848   5.858   0.683  11.475  0.2139  0.6321 -0.6072
 6478TIP3    H140849   5.903   0.660  11.394 -0.2705  1.6564 -1.1848
 6478TIP3    H240850   5.864   0.605  11.529  1.2717  0.2147 -1.3045
 6479TIP3   OH240851   3.797   3.920  15.144 -0.1095  0.5128 -0.1933
 6479TIP3    H140852   3.756   4.000  15.113 -1.7705 -0.1201  0.2039
 6479TIP3    H240853   3.739   3.890  15.215  2.2990  0.7344  2.0204
 6480TIP3   OH240854   5.403   1.431   3.404  0.1969 -0.4521  0.2102
 6480TIP3    H140855   5.375   1.420   3.495  1.9826 -1.4006  0.6899
 6480TIP3    H240856   5.426   1.342   3.376  2.1818  0.1743 -0.2891
 6481TIP3   OH240857   3.022   0.954   6.293 -0.3099  0.2321 -0.7441
 6481TIP3    H140858   3.100   1.008   6.306 -0.4742  0.1022  1.1362
 6481TIP3    H240859   2.948   1.012   6.312 -0.6816  0.2459 -2.1109
 6482TIP3   OH240860   2.721   4.500   1.713 -0.1420  0.4901  0.5473
 6482TIP3    H140861   2.695   4.541   1.630  0.0769  0.2174  0.3409
 6482TIP3    H240862   2.648   4.443   1.736  1.4046 -2.6376 -1.5912
 6483TIP3   OH240863   2.202   2.055   0.133  0.1177 -0.2037  0.0307
 6483TIP3    H140864   2.170   2.141   0.108 -1.5307 -0.7181  0.2731
 6483TIP3    H240865   2.232   2.066   0.223  0.6753  0.2873 -0.2058
 6484TIP3   OH240866   4.508   4.106  13.808  0.0603 -0.8141  0.5058
 6484TIP3    H140867   4.451   4.036  13.778 -0.9368  0.4756 -0.7387
 6484TIP3    H240868   4.463   4.144  13.883 -0.0184 -0.7221  0.4131
 6485TIP3   OH240869   1.776   2.799   5.470 -0.1173 -0.0569 -0.3031
 6485TIP3    H140870   1.820   2.714   5.466  0.8447  0.1730  2.9520
 6485TIP3    H240871   1.823   2.853   5.406 -0.0270 -1.6003 -1.6159
 6486TIP3   OH240872   3.117   1.234  13.267  0.5479  0.6063  0.4645
 6486TIP3    H140873   3.082   1.322  13.251 -1.6300 -0.4913 -1.3120
 6486TIP3    H240874   3.042   1.176  13.259  1.4351 -1.3353  3.8149
 6487TIP3   OH240875   1.254   5.783   4.160  0.6075 -0.1019 -0.1211
 6487TIP3    H140876   1.310   5.826   4.096  0.5867 -1.7094 -1.2986
 6487TIP3    H240877   1.314   5.728   4.211  0.3762 -0.2207  0.0236
 6488TIP3   OH240878   2.175   2.124  16.146  0.0376  0.0725  0.2062
 6488TIP3    H140879   2.257   2.145  16.191  0.3416 -0.9750  0.1564
 6488TIP3    H240880   2.162   2.197  16.085  0.2871  0.8675  1.0704
 6489TIP3   OH240881   6.533   5.740  13.758  0.8083 -0.1666 -0.0086
 6489TIP3    H140882   6.560   5.655  13.722  0.5172  0.3601 -1.5562
 6489TIP3    H240883   6.606   5.767  13.813  1.4206 -0.8804 -0.4426
 6490TIP3   OH240884   4.460   3.913  14.152 -0.0471  0.3865  0.2493
 6490TIP3    H140885   4.368   3.934  14.164 -0.2746  1.1379 -2.3138
 6490TIP3    H240886   4.505   3.960  14.222 -1.5441  0.3365  1.2749
 6491TIP3   OH240887   6.519   1.459  15.088 -0.2744  0.7019 -0.3790
 6491TIP3    H140888   6.588   1.449  15.022  1.1269  1.1344  0.9585
 6491TIP3    H240889   6.546   1.535  15.140 -2.0883  1.2451 -0.1749
 6492TIP3   OH240890   1.949   4.408  12.294  0.8183  0.2195 -0.3953
 6492TIP3    H140891   1.979   4.322  12.323 -1.7448 -0.0444  1.8002
 6492TIP3    H240892   1.938   4.459  12.374 -1.4493  1.2674 -1.2731
 6493TIP3   OH240893   2.896   6.653   1.592  0.0316 -0.0164 -0.1008
 6493TIP3    H140894   2.897   6.647   1.687 -1.1624 -1.5338 -0.1531
 6493TIP3    H240895   2.940   6.572   1.563 -0.3517  0.0362 -0.8418
 6494TIP3   OH240896   2.290   4.631  13.513 -0.0691 -0.3509 -0.0745
 6494TIP3    H140897   2.204   4.655  13.547  1.0841 -0.0706  2.9396
 6494TIP3    H240898   2.274   4.554  13.458 -2.0724 -1.3147  1.7346
 6495TIP3   OH240899   5.368   2.599   2.781  0.0721  0.5638  0.4366
 6495TIP3    H140900   5.425   2.661   2.737  0.7299  0.8038  1.5992
 6495TIP3    H240901   5.416   2.516   2.779 -0.3468  0.3216 -0.1764
 6496TIP3   OH240902   4.591   2.179  15.657 -0.4077 -0.2184 -0.0812
 6496TIP3    H140903   4.669   2.233  15.669 -0.8737  0.5836 -0.6027
 6496TIP3    H240904   4.523   2.240  15.628 -1.3433 -0.8320  0.7325
 6497TIP3   OH240905   5.827   5.418  14.375  0.1992 -0.6139 -0.0401
 6497TIP3    H140906   5.819   5.498  14.323  0.1268  0.0169  0.9266
 6497TIP3    H240907   5.899   5.370  14.333  1.7040  0.9502  0.6241
 6498TIP3   OH240908   2.353   5.575   2.152  0.0196 -0.0538 -0.5137
 6498TIP3    H140909   2.258   5.587   2.150  0.1272  0.7857 -0.8354
 6498TIP3    H240910   2.377   5.585   2.244 -0.1309  0.3442 -0.5159
 6499TIP3   OH240911   4.828   3.346   5.075 -0.3005 -0.9258  0.4798
 6499TIP3    H140912   4.881   3.414   5.117  0.2267  0.2860 -1.9633
 6499TIP3    H240913   4.798   3.386   4.993 -1.3766 -3.0908 -0.2676
 6500TIP3   OH240914   3.584   4.027   3.580  0.4761  0.0952  0.2164
 6500TIP3    H140915   3.532   4.053   3.656  0.7318 -0.3368  0.5407
 6500TIP3    H240916   3.523   3.976   3.527  0.0064  1.2179 -0.3631
 6501TIP3   OH240917   6.140   1.111  12.459  0.1704 -0.4011 -0.0242
 6501TIP3    H140918   6.137   1.206  12.459  1.1453 -0.3558 -0.4224
 6501TIP3    H240919   6.090   1.085  12.382 -1.0176 -0.2737  0.6744
 6502TIP3   OH240920   6.154   3.958   5.525 -0.1003  0.2299  0.4495
 6502TIP3    H140921   6.142   4.013   5.603 -0.6786  0.6015  0.1109
 6502TIP3    H240922   6.239   3.984   5.490 -0.9631  1.9744 -0.5018
 6503TIP3   OH240923   3.281   4.874  14.522  0.0980 -0.6497 -0.2363
 6503TIP3    H140924   3.231   4.936  14.575 -0.4908 -1.3188  0.0009
 6503TIP3    H240925   3.221   4.846  14.454  0.7098 -0.1398 -1.0131
 6504TIP3   OH240926   6.314   2.262  15.878 -0.7198 -0.1511  0.3942
 6504TIP3    H140927   6.237   2.214  15.909 -2.1507  2.3917  1.1316
 6504TIP3    H240928   6.337   2.320  15.950  2.3715 -1.2682  0.4202
 6505TIP3   OH240929   5.356   2.594  15.429  0.1469 -0.5305  0.0784
 6505TIP3    H140930   5.422   2.533  15.398 -1.1267 -2.4062  0.8541
 6505TIP3    H240931   5.380   2.611  15.520  0.0575 -0.5178  0.1002
 6506TIP3   OH240932   1.233   5.775  13.365 -0.2904  0.2397 -0.0746
 6506TIP3    H140933   1.222   5.843  13.298 -1.3989  0.0637 -0.0931
 6506TIP3    H240934   1.302   5.718  13.330 -0.1354  0.7250 -0.5827
 6507TIP3   OH240935   2.663   3.630   1.562  0.4500  0.1090 -0.5127
 6507TIP3    H140936   2.633   3.604   1.649  0.6431 -2.5614 -1.1429
 6507TIP3    H240937   2.753   3.660   1.576  0.9452 -1.5283  0.1056
 6508TIP3   OH240938   6.029   2.556  16.851  0.0314  0.2527  0.0734
 6508TIP3    H140939   6.001   2.504  16.776  0.8325 -0.9345  0.5733
 6508TIP3    H240940   5.973   2.527  16.923  0.0659  0.5329  0.2158
 6509TIP3   OH240941   0.070   5.933  16.133 -0.2516  0.4620  0.3699
 6509TIP3    H140942   0.047   5.843  16.108 -3.0650  1.5684 -1.4196
 6509TIP3    H240943   0.162   5.927  16.161  0.2325 -2.6282 -1.4406
 6510TIP3   OH240944   4.698   1.721   4.345 -0.0222 -0.0128  0.6154
 6510TIP3    H140945   4.665   1.777   4.275 -0.4421  0.9492  1.5601
 6510TIP3    H240946   4.779   1.684   4.310  0.7864  1.9405  0.3280
 6511TIP3   OH240947   2.410   1.097  17.120  0.2627  0.1972 -0.2951
 6511TIP3    H140948   2.440   1.187  17.130  0.5056  0.2115 -1.0520
 6511TIP3    H240949   2.429   1.055  17.204 -0.3803  0.9951  0.2701
 6512TIP3   OH240950   2.608   3.223   0.868  0.3484  0.1826 -0.4364
 6512TIP3    H140951   2.693   3.216   0.911  1.2774  0.9549 -2.0588
 6512TIP3    H240952   2.586   3.316   0.875  0.0226  0.1283 -0.7381
 6513TIP3   OH240953   3.311   1.911   1.414  0.1350 -0.4316  0.2390
 6513TIP3    H140954   3.324   1.830   1.365 -1.0609 -0.2211 -0.4852
 6513TIP3    H240955   3.381   1.969   1.383 -0.7996 -0.1812 -1.5565
 6514TIP3   OH240956   5.246   2.431   2.144 -0.3100  0.5608  0.1924
 6514TIP3    H140957   5.307   2.457   2.213 -0.1498 -0.0085  0.2752
 6514TIP3    H240958   5.164   2.414   2.191  0.5118 -2.5803  0.7284
 6515TIP3   OH240959   1.262   3.837  14.777 -0.0818 -0.7136 -0.3057
 6515TIP3    H140960   1.184   3.885  14.806 -0.2742  0.2966 -2.3237
 6515TIP3    H240961   1.274   3.769  14.843 -0.5556  1.3056  2.0167
 6516TIP3   OH240962   6.036   3.058  14.126 -0.5034 -0.4805  0.4023
 6516TIP3    H140963   6.029   3.117  14.051  0.4294  1.1758  1.5732
 6516TIP3    H240964   6.004   3.109  14.200  0.0936 -1.5395  1.4190
 6517TIP3   OH240965   1.325   4.020  15.548 -0.2687 -0.1604  0.0011
 6517TIP3    H140966   1.276   4.070  15.614  0.0742  0.3653 -0.1370
 6517TIP3    H240967   1.402   4.074  15.530  0.1850 -0.8194 -0.0414
 6518TIP3   OH240968   2.884   1.720  10.793 -0.3784  0.0031  0.7809
 6518TIP3    H140969   2.804   1.773  10.793 -1.8437 -2.0539 -1.1382
 6518TIP3    H240970   2.944   1.767  10.735 -0.9752  0.4415  0.5140
 6519TIP3   OH240971   1.479   2.279  13.596  0.1702 -0.4069  0.3414
 6519TIP3    H140972   1.431   2.196  13.599  0.9360 -0.8511  0.5178
 6519TIP3    H240973   1.501   2.290  13.503  0.4094 -0.6078  0.3722
 6520TIP3   OH240974   3.576   4.857   2.575  0.5178 -0.6004  0.4362
 6520TIP3    H140975   3.585   4.889   2.485  0.9821 -1.8158  0.0234
 6520TIP3    H240976   3.650   4.895   2.622  0.9965 -0.9569 -0.0151
 6521TIP3   OH240977   1.215   3.664  14.069  0.3838 -0.9317  0.6308
 6521TIP3    H140978   1.214   3.688  14.162 -1.1143  0.4879  0.2898
 6521TIP3    H240979   1.156   3.589  14.063  0.9545 -1.4077  0.9097
 6522TIP3   OH240980   1.345   0.492   2.937 -0.2899  0.1511 -0.4127
 6522TIP3    H140981   1.398   0.419   2.906 -0.1321  0.5120 -1.0049
 6522TIP3    H240982   1.324   0.469   3.028 -3.7362 -2.6005 -1.7163
 6523TIP3   OH240983   1.880   1.059   0.568  0.0651 -0.6630 -0.8412
 6523TIP3    H140984   1.902   0.988   0.508  1.2931 -1.2616  0.2572
 6523TIP3    H240985   1.785   1.066   0.564 -0.2018 -3.0308 -0.2998
 6524TIP3   OH240986   0.207   3.096   2.309 -0.2042 -0.4712 -0.4344
 6524TIP3    H140987   0.285   3.047   2.283 -0.4766 -0.4061 -1.4462
 6524TIP3    H240988   0.137   3.061   2.254 -0.2891  1.4322 -1.6514
 6525TIP3   OH240989   6.154   0.844   2.294  0.3265 -0.5666 -0.3455
 6525TIP3    H140990   6.142   0.910   2.362 -0.0823  2.5027 -3.1372
 6525TIP3    H240991   6.248   0.829   2.291  0.3946 -0.3374  0.5002
 6526TIP3   OH240992   6.765   2.774  15.978  0.1123 -0.1330 -0.3248
 6526TIP3    H140993   6.715   2.845  16.018  1.0671 -0.3212  1.2741
 6526TIP3    H240994   6.763   2.794  15.884 -1.4740  0.7852 -0.1375
 6527TIP3   OH240995   2.498   1.027  11.704  0.1456  0.8748  0.4113
 6527TIP3    H140996   2.554   1.054  11.777  0.5430  1.6482 -0.1663
 6527TIP3    H240997   2.446   1.105  11.683  1.1031  1.1431 -1.0891
 6528TIP3   OH240998   0.355   5.079   4.920  0.2438  0.2778  0.0866
 6528TIP3    H140999   0.380   5.127   4.998 -0.5080 -2.3390  2.1021
 6528TIP3    H241000   0.437   5.045   4.884  0.6245  1.7777 -0.5175
 6529TIP3   OH241001   2.067   5.512   5.565  0.3956  0.0072  0.4242
 6529TIP3    H141002   2.085   5.508   5.659 -0.1664 -0.7268  0.5068
 6529TIP3    H241003   2.147   5.548   5.527 -0.2778  2.9175  1.4341
 6530TIP3   OH241004   3.938   3.811  13.850 -0.3447  0.1532  0.1487
 6530TIP3    H141005   3.929   3.777  13.760  0.5824 -2.0356  0.8210
 6530TIP3    H241006   3.985   3.742  13.897 -0.5887  1.3645  2.2790
 6531TIP3   OH241007   0.495   1.377   3.568  0.0311 -0.7225  0.2862
 6531TIP3    H141008   0.433   1.353   3.498  0.3894 -0.4446 -0.1292
 6531TIP3    H241009   0.577   1.396   3.522  0.1458 -0.0934  0.7375
 6532TIP3   OH241010   0.967   4.391   3.195  0.7686  0.1923 -0.0062
 6532TIP3    H141011   0.901   4.443   3.240  0.5546 -0.4366  0.4148
 6532TIP3    H241012   0.923   4.358   3.117  0.5924 -0.1755  0.2424
 6533TIP3   OH241013   1.028   3.506  11.976 -0.4391  0.0790  0.1349
 6533TIP3    H141014   0.934   3.511  11.960 -0.6213 -0.2153  1.0246
 6533TIP3    H241015   1.061   3.449  11.907 -0.7683  0.8643 -0.6956
 6534TIP3   OH241016   1.892   5.811   4.164 -0.3111 -0.0031  0.1332
 6534TIP3    H141017   1.880   5.729   4.212  2.5507 -1.1452 -0.9312
 6534TIP3    H241018   1.803   5.842   4.148 -1.4774 -2.5130  1.1782
 6535TIP3   OH241019   6.298   5.727   0.595 -0.2938  0.0227  0.2543
 6535TIP3    H141020   6.285   5.729   0.501 -0.8912  0.0657  0.3382
 6535TIP3    H241021   6.347   5.808   0.614 -1.2468  0.6427  0.1395
 6536TIP3   OH241022   5.468   2.470  12.954 -1.0389 -0.4031  0.3516
 6536TIP3    H141023   5.411   2.484  13.030 -0.2942 -0.5248  0.9383
 6536TIP3    H241024   5.429   2.524  12.885 -1.6411 -0.1777  0.8601
 6537TIP3   OH241025   3.724   3.788  12.014  0.0185 -0.3064 -0.2218
 6537TIP3    H141026   3.762   3.852  11.953  1.9509  0.7136  1.9319
 6537TIP3    H241027   3.639   3.768  11.976  1.4788 -0.5422 -3.8198
 6538TIP3   OH241028   1.484   1.291  14.271 -0.2742  0.1187 -0.2839
 6538TIP3    H141029   1.465   1.253  14.356  1.9859  0.8763  0.6310
 6538TIP3    H241030   1.494   1.216  14.212 -0.1994 -0.4847  0.4930
 6539TIP3   OH241031   2.806   6.283   3.687 -0.1704 -0.4715  0.0034
 6539TIP3    H141032   2.821   6.322   3.601  0.5195  1.3417  0.8884
 6539TIP3    H241033   2.871   6.214   3.694 -1.0146 -1.4629 -1.3708
 6540TIP3   OH241034   1.004   1.256   2.228  0.6271  0.9471 -0.5931
 6540TIP3    H141035   1.050   1.220   2.304  1.1306  1.6665 -0.5454
 6540TIP3    H241036   0.912   1.239   2.246  0.7805  0.6142 -0.0862
 6541TIP3   OH241037   6.766   0.198   2.717  0.1610  0.0621 -0.0543
 6541TIP3    H141038   6.724   0.258   2.655  1.2834  0.8691 -0.0754
 6541TIP3    H241039   6.795   0.255   2.789  1.8293 -0.3308 -0.3770
 6542TIP3   OH241040   2.459   5.327   2.109  0.2801  0.0421  0.0750
 6542TIP3    H141041   2.374   5.285   2.097  0.6197 -0.4987 -0.4643
 6542TIP3    H241042   2.437   5.412   2.148 -0.5095 -0.0728 -0.0884
 6543TIP3   OH241043   6.635   6.026  12.155  0.1732 -0.0230  0.3811
 6543TIP3    H141044   6.682   6.107  12.137  0.9116 -0.1835  1.5044
 6543TIP3    H241045   6.699   5.970  12.199 -0.9978 -0.2938  1.8281
 6544TIP3   OH241046   2.971   5.003   0.295 -0.1585 -0.1482  0.0127
 6544TIP3    H141047   2.906   4.996   0.225 -2.1779 -0.5441  1.7898
 6544TIP3    H241048   2.979   5.097   0.311 -0.3290 -0.0947 -0.2011
 6545TIP3   OH241049   3.302   5.629  16.613  0.7387  0.1145  0.4062
 6545TIP3    H141050   3.349   5.548  16.593  2.5260  0.6964  1.9884
 6545TIP3    H241051   3.342   5.661  16.694 -1.2563  1.5728  0.9151
 6546TIP3   OH241052   1.549   2.967  14.471  0.2165  0.0585  0.2040
 6546TIP3    H141053   1.458   2.943  14.451  1.3459 -2.3453 -2.7162
 6546TIP3    H241054   1.573   3.029  14.402  1.1424 -0.2352  0.2538
 6547TIP3   OH241055   1.921   0.667  14.992  0.1115 -0.0718  0.7878
 6547TIP3    H141056   1.956   0.730  14.929 -0.5320  0.8963  1.3719
 6547TIP3    H241057   1.975   0.678  15.070  0.1576 -0.4329  0.8092
 6548TIP3   OH241058   0.578   2.793  10.997 -0.5905 -0.5920 -0.0609
 6548TIP3    H141059   0.636   2.805  11.072 -0.7967 -1.8042  0.2970
 6548TIP3    H241060   0.591   2.873  10.945 -0.0461  0.0174  0.9767
 6549TIP3   OH241061   5.567   5.621   3.371 -0.2713  0.1032  0.6940
 6549TIP3    H141062   5.631   5.567   3.326 -0.7853  0.8016 -0.9379
 6549TIP3    H241063   5.612   5.703   3.387 -0.4926  0.3079  0.2788
 6550TIP3   OH241064   1.435   6.247  13.200  0.1226  0.1423 -0.0573
 6550TIP3    H141065   1.436   6.326  13.255  0.2346 -0.3948  0.7231
 6550TIP3    H241066   1.524   6.240  13.165  0.1986  0.1764  0.1317
 6551TIP3   OH241067   5.469   0.398  13.291 -0.6899  0.6725  0.6518
 6551TIP3    H141068   5.544   0.371  13.239 -1.7360  0.7730 -1.0036
 6551TIP3    H241069   5.449   0.322  13.346 -0.1418  0.1861  0.1918
 6552TIP3   OH241070   6.546   6.697  16.812  0.3580  0.0880  0.2043
 6552TIP3    H141071   6.501   6.782  16.809  0.7298  0.3283  1.3076
 6552TIP3    H241072   6.485   6.638  16.768  1.5913  1.5339 -3.9310
 6553TIP3   OH241073   5.455   6.231  15.519 -0.1288 -0.1252  0.0974
 6553TIP3    H141074   5.442   6.324  15.499 -1.4366 -0.5700 -1.2794
 6553TIP3    H241075   5.433   6.224  15.612 -0.2798  0.8946  0.1576
 6554TIP3   OH241076   3.492   4.231  15.255 -0.2741 -0.0199 -0.5551
 6554TIP3    H141077   3.397   4.223  15.258 -0.2773  0.1526 -0.0864
 6554TIP3    H241078   3.511   4.305  15.313  0.2818 -1.1901  0.8100
 6555TIP3   OH241079   4.388   1.590  14.438  0.5044 -0.0255  0.0878
 6555TIP3    H141080   4.338   1.520  14.395  0.3155  0.4704 -0.5267
 6555TIP3    H241081   4.402   1.559  14.527 -0.5963 -0.3420  0.1649
 6556TIP3   OH241082   0.915   2.675   2.239  0.3817  0.7297 -0.0981
 6556TIP3    H141083   0.846   2.733   2.272  1.2723  0.5394  2.3710
 6556TIP3    H241084   0.876   2.587   2.243 -0.3868  0.9173 -2.2007
 6557TIP3   OH241085   2.299   6.111  11.405 -0.4018 -0.3775  0.5701
 6557TIP3    H141086   2.290   6.169  11.329  1.9680 -0.2327  0.3187
 6557TIP3    H241087   2.249   6.154  11.474 -1.2463  0.3316 -0.4372
 6558TIP3   OH241088   5.247   0.521  14.909 -0.5426 -0.2677 -0.3322
 6558TIP3    H141089   5.264   0.427  14.919  0.3020  0.0639  1.8615
 6558TIP3    H241090   5.233   0.552  14.998 -3.7729  1.2101 -1.2034
 6559TIP3   OH241091   1.622   0.643   3.750 -0.5397 -0.1485 -0.0174
 6559TIP3    H141092   1.644   0.723   3.702  1.8772  0.0480  1.2267
 6559TIP3    H241093   1.552   0.669   3.810  0.7698  1.3303  0.9533
 6560TIP3   OH241094   4.339   5.587  12.848 -0.0727 -0.3436  0.1485
 6560TIP3    H141095   4.433   5.569  12.848 -0.0191 -0.0570 -0.2768
 6560TIP3    H241096   4.299   5.501  12.863  0.2348 -0.5674 -0.3002
 6561TIP3   OH241097   6.025   6.675   3.772 -0.2327 -0.0243  0.0455
 6561TIP3    H141098   6.077   6.657   3.693 -0.5351  1.5893 -0.5542
 6561TIP3    H241099   6.065   6.621   3.840  0.9233 -0.3821 -0.8852
 6562TIP3   OH241100   1.668   3.034  11.442 -0.0710 -0.0458  0.0491
 6562TIP3    H141101   1.734   3.063  11.506  0.9770  0.0500 -1.0526
 6562TIP3    H241102   1.617   2.967  11.489  0.5775  0.1323  1.0323
 6563TIP3   OH241103   3.479   2.992   0.931  0.1890  0.0261 -0.2141
 6563TIP3    H141104   3.457   2.932   0.859  0.6211  0.3307 -0.6048
 6563TIP3    H241105   3.556   2.953   0.972 -0.1913 -0.2696  0.2413
 6564TIP3   OH241106   2.186   2.217  14.871 -0.1465 -0.4570 -0.2680
 6564TIP3    H141107   2.107   2.189  14.918  0.3109  1.2179  1.6872
 6564TIP3    H241108   2.173   2.187  14.781 -2.0834 -1.9556  0.4341
 6565TIP3   OH241109   1.211   1.799   4.575 -0.0237  0.0274  0.2036
 6565TIP3    H141110   1.258   1.815   4.657 -3.2346  0.8658  2.0526
 6565TIP3    H241111   1.207   1.704   4.567  0.7497 -0.0568  0.7252
 6566TIP3   OH241112   1.547   1.597  11.363 -0.0132 -0.0681  0.2648
 6566TIP3    H141113   1.503   1.667  11.411 -1.4543 -2.2176  2.3038
 6566TIP3    H241114   1.637   1.598  11.397 -0.6406 -0.6391  2.0469
 6567TIP3   OH241115   4.582   3.398  11.600 -0.1846 -0.4239  0.7055
 6567TIP3    H141116   4.676   3.414  11.609  0.0233 -0.3425 -1.1599
 6567TIP3    H241117   4.545   3.484  11.581  0.1020 -0.9977 -3.3532
 6568TIP3   OH241118   2.264   4.390   2.131 -0.7736  0.6804  0.4596
 6568TIP3    H141119   2.323   4.371   2.204  0.8459  0.9318 -0.7364
 6568TIP3    H241120   2.254   4.306   2.086  1.9087  1.3291 -1.5962
 6569TIP3   OH241121   0.019   2.886  12.686  0.1615  0.2235  0.0366
 6569TIP3    H141122  -0.039   2.919  12.754 -0.8218  0.1055 -0.7119
 6569TIP3    H241123   0.017   2.791  12.697  0.0153  0.2050 -0.1389
 6570TIP3   OH241124   3.377   0.348  12.821  0.0645  0.0610  0.2553
 6570TIP3    H141125   3.352   0.411  12.888  1.6005  3.1457 -1.8075
 6570TIP3    H241126   3.427   0.281  12.868 -1.6540  0.2846  2.5659
 6571TIP3   OH241127   6.420   3.501  15.927  0.0944  0.5681 -0.2297
 6571TIP3    H141128   6.408   3.521  15.835  0.2746  0.5821 -0.2501
 6571TIP3    H241129   6.491   3.436  15.929 -1.4662 -1.2262 -0.2883
 6572TIP3   OH241130   5.722   2.959  14.383 -0.6605 -0.3828  0.3352
 6572TIP3    H141131   5.800   3.012  14.368 -0.7176 -0.6358 -0.9872
 6572TIP3    H241132   5.670   3.010  14.445  1.5159 -1.2267  2.9974
 6573TIP3   OH241133   0.749   2.469  11.278  0.0338 -0.0036  0.3213
 6573TIP3    H141134   0.831   2.479  11.231 -0.2523 -1.4654 -0.5419
 6573TIP3    H241135   0.682   2.465  11.210 -0.3991 -2.0121  0.7968
 6574TIP3   OH241136   0.246   6.194   2.899 -0.3547 -0.0751 -0.2003
 6574TIP3    H141137   0.256   6.129   2.829 -1.2512 -0.1247 -0.3005
 6574TIP3    H241138   0.321   6.180   2.956  0.7298  0.3867 -1.4838
 6575TIP3   OH241139   4.365   1.840   6.639  0.1397  0.2698 -0.0362
 6575TIP3    H141140   4.365   1.934   6.624  1.5336  0.2437 -0.3290
 6575TIP3    H241141   4.417   1.829   6.719 -0.1218 -0.2493  0.0665
 6576TIP3   OH241142   0.189   0.348   6.048 -0.0848  0.2882  0.1519
 6576TIP3    H141143   0.170   0.366   6.140  1.0679  1.3596  0.2003
 6576TIP3    H241144   0.156   0.424   6.000 -1.8660 -0.8313 -0.5145
 6577TIP3   OH241145   2.951   1.320   4.632 -0.0215  0.3373  0.5358
 6577TIP3    H141146   2.981   1.274   4.553  0.4770 -0.2834  1.0759
 6577TIP3    H241147   2.904   1.253   4.682  0.7369  0.3884  1.3464
 6578TIP3   OH241148   6.594   0.945  16.530 -0.3360  0.0057  0.7274
 6578TIP3    H141149   6.526   0.957  16.596 -0.7555 -1.9394  0.7146
 6578TIP3    H241150   6.547   0.957  16.447 -1.5131 -4.0920  0.5747
 6579TIP3   OH241151   3.214   0.861   0.963 -0.5510 -0.1973 -0.9559
 6579TIP3    H141152   3.119   0.853   0.951 -0.7588  0.0533  0.4170
 6579TIP3    H241153   3.224   0.915   1.041  0.7348 -0.6106 -0.8169
 6580TIP3   OH241154   2.661   6.083  13.720  0.0211  0.3438 -0.1052
 6580TIP3    H141155   2.692   6.041  13.640  2.2512 -0.4183  1.0457
 6580TIP3    H241156   2.577   6.042  13.738  1.1083 -2.1384 -0.2060
 6581TIP3   OH241157   2.707   6.197   3.365 -0.3746 -0.2675 -0.2268
 6581TIP3    H141158   2.652   6.260   3.410  0.2276 -0.1173  0.3184
 6581TIP3    H241159   2.653   6.118   3.359 -2.1503  0.9911 -3.2592
 6582TIP3   OH241160   4.041   2.103  12.979 -0.1898  0.5753  0.3211
 6582TIP3    H141161   4.005   2.024  13.019 -0.8173  1.0878  0.7858
 6582TIP3    H241162   4.110   2.071  12.921 -2.1888 -0.5530 -1.5605
 6583TIP3   OH241163   0.030   0.341   1.133  0.2075 -0.1274  0.3712
 6583TIP3    H141164  -0.014   0.367   1.052  2.0850 -0.3474 -0.7962
 6583TIP3    H241165   0.022   0.246   1.136 -1.2097 -0.0151  1.3229
 6584TIP3   OH241166   4.956   6.470  11.990 -0.2790  0.2071 -0.5887
 6584TIP3    H141167   5.029   6.477  12.051  0.0021  1.3706 -1.0328
 6584TIP3    H241168   4.935   6.561  11.967 -2.6991  0.0178  0.4924
 6585TIP3   OH241169   0.205   6.777   1.622 -0.4483 -0.2795 -0.5081
 6585TIP3    H141170   0.287   6.818   1.592 -0.5645 -0.4346 -1.0581
 6585TIP3    H241171   0.200   6.798   1.715 -0.0107  0.1192 -0.5704
 6586TIP3   OH241172   4.539   4.546   3.946  0.4346  0.1329  0.3949
 6586TIP3    H141173   4.541   4.631   3.990  1.3120 -0.7271  2.1210
 6586TIP3    H241174   4.572   4.485   4.011 -0.3742 -1.5861 -0.7351
 6587TIP3   OH241175   2.024   3.920  16.227 -0.4945  0.0963  0.2542
 6587TIP3    H141176   1.935   3.952  16.238 -0.3942  1.1223 -1.5028
 6587TIP3    H241177   2.045   3.938  16.135  0.9293 -1.6660  0.1625
 6588TIP3   OH241178   0.001   5.384  12.753  0.0996  0.6988 -0.1777
 6588TIP3    H141179  -0.051   5.310  12.784 -1.1264  1.6562  0.1330
 6588TIP3    H241180   0.027   5.430  12.832 -0.7029  1.6062 -0.4232
 6589TIP3   OH241181   1.375   4.284   1.531 -0.0374 -0.1676  0.4499
 6589TIP3    H141182   1.428   4.334   1.593 -1.5766  1.6680  0.3907
 6589TIP3    H241183   1.316   4.232   1.586 -0.4861  0.4376  0.5611
 6590TIP3   OH241184   1.964   4.391   0.746 -0.1415  0.3084 -0.0490
 6590TIP3    H141185   1.911   4.460   0.786 -1.6738 -1.3500  0.9469
 6590TIP3    H241186   1.900   4.325   0.718  1.3001 -1.1074 -0.1502
 6591TIP3   OH241187   5.116   3.586  16.942 -0.5747 -0.1398 -0.4300
 6591TIP3    H141188   5.139   3.494  16.956  1.7713  0.1896 -1.6145
 6591TIP3    H241189   5.142   3.604  16.852 -1.5827  1.5356 -0.4316
 6592TIP3   OH241190   2.089   2.295   2.506 -0.1969 -0.1875  0.3842
 6592TIP3    H141191   2.041   2.334   2.578 -0.0178 -2.4396  1.8249
 6592TIP3    H241192   2.022   2.266   2.444 -0.4351  0.4348  0.3507
 6593TIP3   OH241193   3.576   5.098   4.828  0.3287 -0.2933 -0.0277
 6593TIP3    H141194   3.532   5.181   4.845  0.3472 -0.3069  0.0877
 6593TIP3    H241195   3.601   5.066   4.915 -0.7149 -0.9955  0.0256
 6594TIP3   OH241196   0.287   2.374  13.343  0.5953  1.0130 -0.3579
 6594TIP3    H141197   0.225   2.304  13.325  2.8481 -1.9079  2.2339
 6594TIP3    H241198   0.240   2.434  13.401 -0.4666  0.0818 -0.2294
 6595TIP3   OH241199   1.176   3.665   3.292 -0.5296 -0.0557 -0.7530
 6595TIP3    H141200   1.092   3.685   3.251 -1.8064 -2.9312  0.1677
 6595TIP3    H241201   1.215   3.599   3.235  0.4307  0.2324 -0.4373
 6596TIP3   OH241202   6.654   0.626  15.619  0.2435 -0.5334  0.2345
 6596TIP3    H141203   6.568   0.586  15.624 -1.2367  2.2457 -0.7968
 6596TIP3    H241204   6.707   0.578  15.683 -2.5184 -1.2149  2.1553
 6597TIP3   OH241205   0.892   6.763   4.612 -0.6790  0.0662 -0.0937
 6597TIP3    H141206   0.930   6.781   4.698 -2.6313  2.4003  0.3915
 6597TIP3    H241207   0.814   6.711   4.631 -0.7874  0.0712 -0.5226
 6598TIP3   OH241208   0.507   2.546  16.227 -0.0487 -0.0034 -0.3922
 6598TIP3    H141209   0.415   2.521  16.238  0.4292 -1.5223  0.5795
 6598TIP3    H241210   0.517   2.562  16.133 -1.7214  2.1492 -0.2972
 6599TIP3   OH241211   4.426   2.999   2.196 -0.1346  0.1770  0.2560
 6599TIP3    H141212   4.456   3.077   2.150  0.5704 -1.2926 -1.9438
 6599TIP3    H241213   4.447   2.927   2.137 -0.9540 -1.6778  2.1015
 6600TIP3   OH241214   3.256   5.539   0.571  0.2266 -0.0493  0.2205
 6600TIP3    H141215   3.201   5.591   0.513  0.4013 -0.3839 -0.2447
 6600TIP3    H241216   3.202   5.526   0.649 -0.9284 -1.5915 -0.7918
 6601TIP3   OH241217   6.574   5.365  15.282  0.9175 -0.7549 -0.1427
 6601TIP3    H141218   6.558   5.288  15.338 -1.5746 -3.1042 -3.6764
 6601TIP3    H241219   6.639   5.334  15.218  1.1741  0.7080 -0.6202
 6602TIP3   OH241220   3.060   5.276  16.735  0.0008  0.3355  0.4639
 6602TIP3    H141221   3.155   5.273  16.739 -0.0298  0.1249  1.7836
 6602TIP3    H241222   3.034   5.190  16.703  0.2569  0.5796 -0.4244
 6603TIP3   OH241223   3.096   4.958  11.992  0.2026  0.3039 -0.3159
 6603TIP3    H141224   3.149   4.890  12.033  1.2619  1.3008  0.0210
 6603TIP3    H241225   3.123   4.958  11.900 -0.8745 -0.7084 -0.6604
 6604TIP3   OH241226   6.160   4.869  14.268  0.5142 -0.2834 -0.1082
 6604TIP3    H141227   6.121   4.868  14.355  0.4802  0.1620 -0.1197
 6604TIP3    H241228   6.090   4.896  14.210  0.6066 -0.3263 -0.2402
 6605TIP3   OH241229   3.063   3.273  13.309  0.0687 -0.6758  0.4371
 6605TIP3    H141230   3.140   3.258  13.254 -0.3217 -3.2230  0.4817
 6605TIP3    H241231   2.988   3.256  13.251 -0.4745  0.5795  0.7285
 6606TIP3   OH241232   1.456   5.618  17.006 -0.1265  0.3241 -0.0645
 6606TIP3    H141233   1.465   5.540  17.062 -2.0357  0.0638 -0.0796
 6606TIP3    H241234   1.533   5.615  16.949  1.5911  0.2831  2.1221
 6607TIP3   OH241235   4.418   3.365  15.015  0.0894  0.3928 -0.2257
 6607TIP3    H141236   4.384   3.430  15.077 -2.3420  1.4243 -2.4859
 6607TIP3    H241237   4.353   3.295  15.016 -1.2846  1.4478 -3.1008
 6608TIP3   OH241238   2.344   5.970  16.900 -0.2447  0.0882  0.0063
 6608TIP3    H141239   2.407   5.902  16.875  1.7772  1.5967  0.7079
 6608TIP3    H241240   2.269   5.922  16.935  0.8132 -1.7924 -0.1809
 6609TIP3   OH241241   2.391   3.814   5.432 -0.5907 -0.3846 -0.0379
 6609TIP3    H141242   2.319   3.777   5.381  0.6356  0.1245 -2.2425
 6609TIP3    H241243   2.442   3.866   5.370 -0.7988  3.0406  2.3599
 6610TIP3   OH241244   3.330   4.267   6.736  0.1556  0.0076  0.4218
 6610TIP3    H141245   3.345   4.197   6.672 -1.2001  0.6804 -0.6802
 6610TIP3    H241246   3.415   4.312   6.741  0.7234 -1.0102  0.2993
 6611TIP3   OH241247   6.556   6.672  10.902 -0.1045  0.2415  0.4091
 6611TIP3    H141248   6.549   6.756  10.947 -2.4284 -0.2378  1.1008
 6611TIP3    H241249   6.515   6.686  10.817  2.7696  0.6895 -1.0282
 6612TIP3   OH241250   2.427   0.413   0.227 -0.0099 -0.8847 -0.6148
 6612TIP3    H141251   2.514   0.413   0.267 -0.1745 -2.2133 -0.1988
 6612TIP3    H241252   2.441   0.445   0.138  0.9796 -1.4279 -0.6751
 6613TIP3   OH241253   5.894   6.634   0.897 -0.7433 -0.3079 -0.0781
 6613TIP3    H141254   5.822   6.653   0.956 -0.1669  2.0366 -0.0301
 6613TIP3    H241255   5.912   6.541   0.909 -0.8435  0.0032  3.2168
 6614TIP3   OH241256   2.400   0.301   4.545 -0.1889  0.2449 -0.4606
 6614TIP3    H141257   2.306   0.282   4.543 -0.0414 -0.9324  1.2938
 6614TIP3    H241258   2.441   0.221   4.513  0.2821 -0.9192  2.6567
 6615TIP3   OH241259   3.118   6.670  10.597 -0.3392  0.2893  0.2243
 6615TIP3    H141260   3.207   6.705  10.599 -0.3920  0.4020  1.1791
 6615TIP3    H241261   3.081   6.701  10.514 -0.2650  2.2351  0.8626
 6616TIP3   OH241262   3.917   0.594   4.391 -0.0481  0.0191 -0.6898
 6616TIP3    H141263   3.868   0.567   4.314 -0.0217 -0.3768 -0.5682
 6616TIP3    H241264   3.966   0.516   4.417  1.4764  0.6867 -1.4303
 6617TIP3   OH241265   2.205   4.664  14.335 -0.1092  0.1278 -0.2846
 6617TIP3    H141266   2.255   4.646  14.255 -0.1482 -2.4128  0.1675
 6617TIP3    H241267   2.242   4.605  14.400 -2.0190 -0.0017  0.7505
 6618TIP3   OH241268   2.516   2.492   6.335 -0.0264  0.1466 -0.0603
 6618TIP3    H141269   2.539   2.463   6.424 -0.4958 -0.9607 -0.2797
 6618TIP3    H241270   2.548   2.582   6.330 -0.8253  0.5621  1.5560
 6619TIP3   OH241271   6.501   3.144  14.908 -0.1013 -0.4800  0.6642
 6619TIP3    H141272   6.556   3.185  14.975 -0.1631 -0.4370  0.6888
 6619TIP3    H241273   6.508   3.050  14.924  1.9032 -0.6480 -0.8253
 6620TIP3   OH241274   6.634   5.326   2.642  0.1753 -0.4326  0.1429
 6620TIP3    H141275   6.644   5.363   2.555 -0.7818 -1.9340 -0.6456
 6620TIP3    H241276   6.683   5.385   2.699 -0.7248  1.6465 -1.1246
 6621TIP3   OH241277   0.880   4.048  12.762 -0.0343 -0.2146 -0.1792
 6621TIP3    H141278   0.907   4.103  12.835 -0.2061 -1.4729  0.8595
 6621TIP3    H241279   0.792   4.080  12.739  0.7506  1.4197 -1.1214
 6622TIP3   OH241280   2.511   4.272  11.302 -0.1840 -0.3072 -0.0666
 6622TIP3    H141281   2.535   4.189  11.261 -1.1934 -0.7141  0.1519
 6622TIP3    H241282   2.593   4.322  11.303  0.4680 -1.3364 -0.1001
 6623TIP3   OH241283   4.586   4.379   4.706  0.3195  0.2261  0.1714
 6623TIP3    H141284   4.646   4.445   4.670  0.6303  1.4611  2.7503
 6623TIP3    H241285   4.550   4.420   4.785  0.3128 -2.5719  1.7338
 6624TIP3   OH241286   4.407   4.267  12.515  0.2608  0.0918 -0.1807
 6624TIP3    H141287   4.348   4.281  12.440  1.0438  1.5021 -0.5684
 6624TIP3    H241288   4.469   4.201  12.484  0.3170  0.3477 -0.6340
 6625TIP3   OH241289   1.659   3.192   3.211  0.3391 -0.1728  0.0803
 6625TIP3    H141290   1.601   3.131   3.255 -1.4426  1.9971  0.9344
 6625TIP3    H241291   1.743   3.181   3.255  0.7521 -3.4492 -1.2430
 6626TIP3   OH241292   1.047   6.515   4.204  0.1074 -0.2747  0.0708
 6626TIP3    H141293   1.058   6.518   4.299  1.5396  0.3410 -0.0906
 6626TIP3    H241294   1.034   6.606   4.178  0.0661 -0.3994 -0.3594
 6627TIP3   OH241295   0.690   1.947   1.862 -0.2997 -0.1833  0.0915
 6627TIP3    H141296   0.783   1.969   1.866 -0.6513  1.2888  0.9654
 6627TIP3    H241297   0.674   1.895   1.941 -0.5266  0.9608  0.8247
 6628TIP3   OH241298   5.107   0.406  14.109 -0.3755  0.3940 -0.1959
 6628TIP3    H141299   5.057   0.423  14.029 -1.4212 -1.3473  0.0483
 6628TIP3    H241300   5.060   0.335  14.152  2.9343 -2.2263 -0.5236
 6629TIP3   OH241301   0.940   4.892   3.025 -0.0956 -0.2362 -0.3614
 6629TIP3    H141302   0.935   4.954   2.952  0.3724  0.9277  0.5687
 6629TIP3    H241303   0.944   4.947   3.103  1.8713 -1.4059  0.4268
 6630TIP3   OH241304   0.766   6.402  15.786 -0.3823 -0.7396 -0.4103
 6630TIP3    H141305   0.839   6.434  15.732 -0.0769 -1.7620 -0.6413
 6630TIP3    H241306   0.688   6.442  15.747 -0.0513 -0.5563 -0.8992
 6631TIP3   OH241307   1.555   0.383  15.375  0.2272 -0.2852  0.7470
 6631TIP3    H141308   1.498   0.364  15.450 -1.1290  1.3203  0.1940
 6631TIP3    H241309   1.495   0.416  15.308  1.6910  0.5075 -0.2243
 6632TIP3   OH241310   5.855   4.459   3.368  0.1228  0.0162 -0.5260
 6632TIP3    H141311   5.881   4.519   3.298 -1.7560  0.4448 -0.8980
 6632TIP3    H241312   5.847   4.514   3.445  4.0228 -0.7206  0.6515
 6633TIP3   OH241313   3.983   0.907   6.144  0.3388  0.4645  0.1744
 6633TIP3    H141314   3.910   0.887   6.204 -1.0976  1.5030 -1.1458
 6633TIP3    H241315   4.027   0.823   6.131  0.7476  0.2176  2.7036
 6634TIP3   OH241316   5.220   6.068  14.121 -0.0190  0.0885 -0.4433
 6634TIP3    H141317   5.291   6.082  14.183  0.1640  0.1184 -0.6605
 6634TIP3    H241318   5.172   5.993  14.156 -0.6149  0.8188  0.3722
 6635TIP3   OH241319   5.088   2.050   2.110 -0.0259 -0.7319 -0.3124
 6635TIP3    H141320   4.997   2.029   2.130 -0.4382  2.4232  1.8411
 6635TIP3    H241321   5.084   2.127   2.054  1.3120 -0.6166 -0.3021
 6636TIP3   OH241322   6.145   6.606   2.742  0.1535 -0.0086 -0.1269
 6636TIP3    H141323   6.126   6.537   2.679 -0.7933 -0.4016  0.5553
 6636TIP3    H241324   6.064   6.657   2.747 -0.6929 -1.3873  2.4572
 6637TIP3   OH241325   1.746   5.395   2.231  0.5261  0.1465 -0.6756
 6637TIP3    H141326   1.762   5.301   2.233 -0.1104  0.0339  0.5559
 6637TIP3    H241327   1.832   5.434   2.218  0.8666 -0.6003 -0.7025
 6638TIP3   OH241328   2.885   2.117  13.095  0.6529  0.4698 -0.3299
 6638TIP3    H141329   2.961   2.173  13.102  1.2605 -0.4493  0.7486
 6638TIP3    H241330   2.917   2.037  13.054  0.4387 -0.1703  0.6974
 6639TIP3   OH241331   6.771   4.656  12.139  0.0034 -0.2764  0.0318
 6639TIP3    H141332   6.841   4.607  12.096 -0.5183  0.7560 -2.1114
 6639TIP3    H241333   6.700   4.592  12.148  0.4237 -0.7323  0.1585
 6640TIP3   OH241334   4.856   1.419  13.011 -0.3050 -0.0921  0.2213
 6640TIP3    H141335   4.843   1.343  13.067  0.7285  1.2353  2.3976
 6640TIP3    H241336   4.777   1.472  13.025 -0.1928  0.0940  0.1494
 6641TIP3   OH241337   4.253   0.819  14.105 -0.0245  0.0539  0.4329
 6641TIP3    H141338   4.244   0.807  14.199 -0.1525 -1.0316  0.2924
 6641TIP3    H241339   4.336   0.778  14.083  0.1365  0.5426  0.1054
 6642TIP3   OH241340   0.275   4.816   0.432 -0.1634  0.4136 -0.0430
 6642TIP3    H141341   0.325   4.738   0.459 -0.1928  0.2182 -0.5454
 6642TIP3    H241342   0.341   4.883   0.415 -0.0556  0.1373 -0.7643
 6643TIP3   OH241343   4.201   6.219   0.581  0.1430  0.3719  0.3178
 6643TIP3    H141344   4.284   6.240   0.539  0.8905 -0.9797  1.0468
 6643TIP3    H241345   4.136   6.224   0.511  0.9609  0.6860 -0.4264
 6644TIP3   OH241346   5.167   2.706   0.107  0.1465 -0.2227  0.2679
 6644TIP3    H141347   5.160   2.697   0.202  1.5071 -0.9107  0.3142
 6644TIP3    H241348   5.221   2.784   0.094 -2.1502  1.4539 -0.0217
 6645TIP3   OH241349   0.329   0.549  12.640 -0.3395 -0.3638 -0.2226
 6645TIP3    H141350   0.321   0.529  12.547 -2.0560 -0.4947 -0.0913
 6645TIP3    H241351   0.317   0.464  12.684 -0.1516 -0.2124  0.1253
 6646TIP3   OH241352   0.159   5.165  15.221  0.3902 -0.2713 -0.1785
 6646TIP3    H141353   0.089   5.105  15.246 -0.4722  1.1358  0.9800
 6646TIP3    H241354   0.218   5.166  15.296  0.0641  0.7406  0.0941
 6647TIP3   OH241355   3.633   2.472   1.927 -0.0168  0.2990 -0.4053
 6647TIP3    H141356   3.635   2.414   2.004  2.1852  0.1026 -0.5705
 6647TIP3    H241357   3.562   2.436   1.873 -0.4244 -0.6445  0.7041
 6648TIP3   OH241358   5.929   2.854  14.961  0.7326 -0.0935  0.3059
 6648TIP3    H141359   5.985   2.794  14.911  0.6746  0.0256  0.0991
 6648TIP3    H241360   5.845   2.853  14.914  1.5687  2.4257 -1.4825
 6649TIP3   OH241361   1.279   3.247   2.500 -1.1063 -0.1125 -0.1826
 6649TIP3    H141362   1.280   3.322   2.559 -0.5430  1.4967 -2.1516
 6649TIP3    H241363   1.357   3.197   2.525 -0.7056  0.7109  0.2560
 6650TIP3   OH241364   2.176   5.977  10.377 -0.1971 -0.0413  0.2578
 6650TIP3    H141365   2.086   5.948  10.392 -0.2525  0.3013  0.5924
 6650TIP3    H241366   2.229   5.923  10.436  0.0194 -1.4379 -1.1286
 6651TIP3   OH241367   6.547   6.274  13.450  0.3955 -0.5435  0.2503
 6651TIP3    H141368   6.541   6.215  13.375 -3.9926 -0.2790  0.1741
 6651TIP3    H241369   6.506   6.226  13.522 -0.9683  1.4202  0.8570
 6652TIP3   OH241370   1.035   0.314  13.451  0.2827  0.4174  0.2396
 6652TIP3    H141371   0.940   0.298  13.452  0.1647  0.6200 -1.9909
 6652TIP3    H241372   1.043   0.403  13.415  1.2661  1.7242  3.3478
 6653TIP3   OH241373   3.971   3.082   3.965 -0.4730 -0.2852  0.0935
 6653TIP3    H141374   4.043   3.019   3.951 -0.6898 -0.1855 -1.7062
 6653TIP3    H241375   3.894   3.038   3.930 -0.7450  0.7307 -0.6086
 6654TIP3   OH241376   4.747   0.975   4.060  0.1437  0.2202 -0.0844
 6654TIP3    H141377   4.731   1.054   4.007 -0.1299  0.5759  0.5153
 6654TIP3    H241378   4.836   0.986   4.093 -0.0291  0.4636  0.3055
 6655TIP3   OH241379   0.080   2.827   0.987 -0.2661 -0.4127  0.1708
 6655TIP3    H141380   0.161   2.844   1.035  0.3855  0.0834 -1.0695
 6655TIP3    H241381   0.027   2.906   1.000  0.7463  0.6173 -1.5328
 6656TIP3   OH241382   2.333   5.249   2.477  0.1673  0.0603 -0.0782
 6656TIP3    H141383   2.271   5.195   2.526  1.1297  0.6767  1.9349
 6656TIP3    H241384   2.418   5.209   2.494  0.5864  0.5904 -0.8699
 6657TIP3   OH241385   4.394   5.839   6.184  0.3655 -0.3562 -0.1316
 6657TIP3    H141386   4.427   5.753   6.210 -1.7842 -0.4757  2.5877
 6657TIP3    H241387   4.464   5.900   6.206  0.2516 -0.9754  2.1530
 6658TIP3   OH241388   0.057   1.697  14.391  0.4367  0.2203  0.2914
 6658TIP3    H141389  -0.007   1.749  14.439  0.5403  0.5107  0.1160
 6658TIP3    H241390   0.027   1.699  14.300  1.3737  1.4350 -0.0316
 6659TIP3   OH241391   2.558   4.188   4.402  0.4111  0.7094  0.0464
 6659TIP3    H141392   2.574   4.274   4.439 -1.2327  1.3620 -0.6735
 6659TIP3    H241393   2.505   4.205   4.324 -1.6658 -1.0565  0.9653
 6660TIP3   OH241394   1.437   4.827  16.173 -0.1532  0.5474 -0.4394
 6660TIP3    H141395   1.435   4.862  16.084  0.5044  0.3244 -0.5473
 6660TIP3    H241396   1.345   4.818  16.197 -0.4142 -1.2509 -1.8313
 6661TIP3   OH241397   4.261   0.210   6.335  0.4343  0.1330  0.2768
 6661TIP3    H141398   4.356   0.212   6.341  0.4495  0.5680 -0.0379
 6661TIP3    H241399   4.237   0.299   6.308 -0.0272 -0.1152 -0.1412
 6662TIP3   OH241400   1.620   2.428   0.060 -0.2633  0.0951  0.3927
 6662TIP3    H141401   1.647   2.508   0.104  0.2532  0.2382 -0.1688
 6662TIP3    H241402   1.563   2.457  -0.011  1.3749  0.1522 -0.9649
 6663TIP3   OH241403   5.705   2.054  17.179  0.2328 -0.7305 -0.2992
 6663TIP3    H141404   5.667   1.969  17.158 -1.1038  0.4155 -2.9936
 6663TIP3    H241405   5.750   2.081  17.100  0.1569  1.3101  0.2929
 6664TIP3   OH241406   4.709   5.921   4.944  0.4793  0.0543 -0.4429
 6664TIP3    H141407   4.789   5.901   4.993  0.2586 -0.8726 -0.4403
 6664TIP3    H241408   4.716   5.867   4.865 -1.2990 -2.0243  0.7099
 6665TIP3   OH241409   4.257   6.047   3.141  0.7822 -0.0305  0.1380
 6665TIP3    H141410   4.318   6.114   3.111 -1.3167  1.6174 -0.8125
 6665TIP3    H241411   4.222   6.081   3.223  0.6200 -0.5894  0.3038
 6666TIP3   OH241412   1.238   5.511   2.245  0.3049  0.0839  0.4854
 6666TIP3    H141413   1.245   5.602   2.216  2.0732  1.0071  3.4292
 6666TIP3    H241414   1.293   5.462   2.183  0.4354  1.2106 -0.3149
 6667TIP3   OH241415   5.195   0.487   5.409 -0.0964 -0.4016 -0.3264
 6667TIP3    H141416   5.221   0.461   5.321 -0.5069 -0.6890 -0.3654
 6667TIP3    H241417   5.162   0.407   5.449 -1.4481  0.0391 -0.4820
 6668TIP3   OH241418   4.435   2.910   3.072 -0.0373  0.0591 -0.2539
 6668TIP3    H141419   4.517   2.861   3.064 -0.5611 -0.6182 -2.0508
 6668TIP3    H241420   4.437   2.946   3.160  1.2036 -1.6965  0.4898
 6669TIP3   OH241421   5.034   6.243  15.368 -0.1668  0.4805 -0.0022
 6669TIP3    H141422   5.078   6.177  15.313  0.6283  1.6266 -0.7823
 6669TIP3    H241423   5.050   6.214  15.457 -0.4665 -0.7774 -0.3234
 6670TIP3   OH241424   4.259   3.681   5.278  0.9267 -0.6448  0.4899
 6670TIP3    H141425   4.280   3.762   5.231 -2.5430  1.2206  1.8477
 6670TIP3    H241426   4.237   3.618   5.208  0.4281  0.6217 -0.5325
 6671TIP3   OH241427   0.150   0.943   2.492  0.2426  0.0836  0.4341
 6671TIP3    H141428   0.160   0.968   2.583  0.8492  1.4598  0.0108
 6671TIP3    H241429   0.178   1.019   2.442  1.4594 -1.1754 -0.9262
 6672TIP3   OH241430   1.066   5.580  11.904  0.1919 -0.3721 -0.1207
 6672TIP3    H141431   1.154   5.549  11.885  0.1740  0.4995 -1.9026
 6672TIP3    H241432   1.075   5.676  11.908 -0.5498 -0.3130  0.4778
 6673TIP3   OH241433   2.734   5.732  13.183 -0.1158  0.8290  0.6132
 6673TIP3    H141434   2.803   5.668  13.167 -0.0907  0.8695  0.5584
 6673TIP3    H241435   2.778   5.802  13.232  0.0677  1.2193 -0.0897
 6674TIP3   OH241436   3.207   1.505   2.734  0.2101 -0.1556 -0.0724
 6674TIP3    H141437   3.120   1.538   2.754  0.0116 -0.5432 -0.2862
 6674TIP3    H241438   3.265   1.580   2.748 -0.0772 -0.0669  0.6839
 6675TIP3   OH241439   5.664   1.032  15.156  0.4541  0.5261 -0.4800
 6675TIP3    H141440   5.639   1.124  15.148  0.6085  0.4680 -1.7841
 6675TIP3    H241441   5.760   1.034  15.159  0.4287  0.4955  0.9569
 6676TIP3   OH241442   4.127   3.875   2.983 -0.3769 -0.4716  0.3550
 6676TIP3    H141443   4.135   3.787   2.946  1.3173 -0.1847 -0.0131
 6676TIP3    H241444   4.150   3.934   2.911 -0.2591  0.2212  0.9498
 6677TIP3   OH241445   1.829   0.166   1.663  0.6586 -0.3636  0.2278
 6677TIP3    H141446   1.878   0.087   1.640  1.2986 -0.3675  1.5100
 6677TIP3    H241447   1.869   0.197   1.744 -2.1271 -0.9755  1.9993
 6678TIP3   OH241448   2.674   5.037   5.184 -0.3349  0.1905  0.2565
 6678TIP3    H141449   2.626   5.111   5.145 -0.1568 -0.0939 -0.5293
 6678TIP3    H241450   2.658   5.045   5.278  1.1582  2.3057  0.4078
 6679TIP3   OH241451   4.554   5.683   3.342  0.3429 -0.2015  0.3278
 6679TIP3    H141452   4.460   5.692   3.329  0.2340 -0.9962  0.5155
 6679TIP3    H241453   4.586   5.646   3.260  0.3971 -0.5252  0.4942
 6680TIP3   OH241454   4.497   4.371  16.950 -0.0494 -0.0221 -0.5281
 6680TIP3    H141455   4.557   4.443  16.969 -0.9262  0.4185  0.7142
 6680TIP3    H241456   4.496   4.319  17.031  0.3499 -1.2773 -1.3042
 6681TIP3   OH241457   4.566   0.619  15.967 -0.5429  0.3380 -0.0942
 6681TIP3    H141458   4.643   0.566  15.988 -0.2606  0.7737 -0.0196
 6681TIP3    H241459   4.544   0.665  16.048 -0.5182  0.6737 -0.2742
 6682TIP3   OH241460   4.439   5.733  14.161 -0.3718  0.3788 -0.3179
 6682TIP3    H141461   4.478   5.814  14.127 -0.7055  0.3637 -0.7329
 6682TIP3    H241462   4.414   5.755  14.251  1.2173  0.1926  0.2049
 6683TIP3   OH241463   5.871   2.355  13.173 -0.4293 -0.1730  0.3264
 6683TIP3    H141464   5.832   2.439  13.150 -0.4209 -0.1799  0.2872
 6683TIP3    H241465   5.956   2.355  13.130 -0.8418 -0.6237 -0.5106
 6684TIP3   OH241466   4.018   5.713  14.923 -0.4550 -0.5495  0.1654
 6684TIP3    H141467   4.068   5.792  14.946  0.0198 -0.8680  0.2344
 6684TIP3    H241468   3.974   5.736  14.842  0.3847 -0.5018 -0.2939
 6685TIP3   OH241469   0.166   4.083  13.121 -0.1409  0.0126  0.1016
 6685TIP3    H141470   0.260   4.097  13.116 -0.2757  0.9605  0.0668
 6685TIP3    H241471   0.154   4.018  13.190  0.5076  0.1262  0.3194
 6686TIP3   OH241472   2.478   5.781   0.822  0.2398 -0.2105 -0.5596
 6686TIP3    H141473   2.428   5.846   0.871  1.7829  0.6281  0.0019
 6686TIP3    H241474   2.424   5.702   0.824 -0.4138  0.2248  1.2535
 6687TIP3   OH241475   6.092   3.636  11.490 -0.0668  0.4186 -0.2859
 6687TIP3    H141476   6.085   3.541  11.487 -0.2954  0.3342  1.5837
 6687TIP3    H241477   6.184   3.654  11.468  0.7125 -0.4684  1.9497
 6688TIP3   OH241478   1.221   0.305  15.032  0.4589 -0.3269 -0.6576
 6688TIP3    H141479   1.254   0.394  15.039 -1.8917  0.8251 -2.8855
 6688TIP3    H241480   1.287   0.259  14.980  1.6301  0.0833  0.4040
 6689TIP3   OH241481   3.763   2.824   5.640 -0.5052 -0.6063  0.3735
 6689TIP3    H141482   3.844   2.812   5.589 -0.7260  0.1060 -0.1807
 6689TIP3    H241483   3.786   2.797   5.729 -0.0730 -1.7800 -0.0776
 6690TIP3   OH241484   2.288   6.525  14.116 -0.3438  0.0213  0.2240
 6690TIP3    H141485   2.306   6.592  14.050  0.8926  1.7551  2.2098
 6690TIP3    H241486   2.247   6.572  14.188  0.8579 -1.2821  1.8285
 6691TIP3   OH241487   5.640   6.280   3.878  0.6308 -0.5665 -0.1268
 6691TIP3    H141488   5.607   6.358   3.832  2.8415 -0.9291 -2.6020
 6691TIP3    H241489   5.563   6.242   3.919 -1.1979  0.9395 -1.9286
 6692TIP3   OH241490   2.852   1.115  13.963 -0.0623 -0.3726 -0.3350
 6692TIP3    H141491   2.798   1.184  14.003 -0.1725 -0.2366 -0.7089
 6692TIP3    H241492   2.808   1.096  13.880  0.7872  0.1639 -0.9341
 6693TIP3   OH241493   1.890   0.923   0.328  0.3789 -0.6013  0.0636
 6693TIP3    H141494   1.817   0.974   0.295  0.8306 -0.6531 -1.0433
 6693TIP3    H241495   1.904   0.855   0.262 -0.6955 -2.6745  1.8365
 6694TIP3   OH241496   5.737   2.512  14.131 -0.0826 -0.2059 -0.0824
 6694TIP3    H141497   5.802   2.564  14.179 -0.7106 -0.0316  0.5943
 6694TIP3    H241498   5.699   2.573  14.068  0.2071 -0.2392 -0.2952
 6695TIP3   OH241499   4.449   5.995  11.985  0.5874 -0.1175 -0.1757
 6695TIP3    H141500   4.467   6.082  11.950  1.8620  0.0277  0.7844
 6695TIP3    H241501   4.474   6.000  12.077  1.3818 -1.6926 -0.2732
 6696TIP3   OH241502   6.662   6.366   3.886  0.2960  0.1797 -0.6510
 6696TIP3    H141503   6.606   6.310   3.834 -1.2491 -0.6466  1.7502
 6696TIP3    H241504   6.604   6.434   3.920  1.2857  0.8201 -0.1821
 6697TIP3   OH241505   5.766   1.755   4.977  0.5047 -0.0145 -0.4487
 6697TIP3    H141506   5.821   1.685   4.942 -1.8423 -1.5821 -1.2399
 6697TIP3    H241507   5.752   1.732   5.068  2.3622  1.2587  0.2175
 6698TIP3   OH241508   3.827   0.555  14.647 -0.1670 -0.1506 -0.3859
 6698TIP3    H141509   3.762   0.580  14.713  0.1227  0.1114 -0.1981
 6698TIP3    H241510   3.777   0.507  14.582 -0.9601  1.7458 -1.2630
 6699TIP3   OH241511   5.752   0.168  14.023  0.3177 -0.2313 -0.4738
 6699TIP3    H141512   5.695   0.188  14.097  0.9949 -0.0608  0.0163
 6699TIP3    H241513   5.714   0.216  13.949 -0.5505 -0.6651 -0.3196
 6700TIP3   OH241514   0.016   2.185  17.094 -0.0036  0.6701 -0.0342
 6700TIP3    H141515   0.024   2.133  17.014  1.6795 -0.4443  0.7938
 6700TIP3    H241516   0.049   2.272  17.069 -0.1601  0.5403 -0.7225
 6701TIP3   OH241517   0.971   2.232   4.021  0.0001  0.1022 -0.0108
 6701TIP3    H141518   0.935   2.175   3.953 -0.4660  0.7791 -0.3490
 6701TIP3    H241519   1.000   2.173   4.089 -0.2810 -0.5514 -0.4488
 6702TIP3   OH241520   2.785   3.356   2.129 -0.6212  0.3979  0.1516
 6702TIP3    H141521   2.690   3.354   2.126 -0.7617  2.3523  1.4980
 6702TIP3    H241522   2.810   3.274   2.170 -1.6321 -0.6160 -1.1731
 6703TIP3   OH241523   6.601   3.441  11.859  0.0443 -0.1736 -0.1415
 6703TIP3    H141524   6.669   3.479  11.804  1.6536 -0.5658  1.4854
 6703TIP3    H241525   6.640   3.361  11.895 -0.9796 -0.0121  1.4480
 6704TIP3   OH241526   2.976   5.456   2.592  0.2710 -0.5624 -0.2253
 6704TIP3    H141527   2.954   5.517   2.662 -0.0106  0.7175 -1.3828
 6704TIP3    H241528   3.055   5.411   2.624  0.5926  0.5278  0.5967
 6705TIP3   OH241529   3.025   0.810  13.713  0.1968  0.3764  0.2317
 6705TIP3    H141530   3.022   0.888  13.657  1.1394  0.6403  0.5285
 6705TIP3    H241531   3.090   0.753  13.672 -1.8842 -1.1776 -1.1092
 6706TIP3   OH241532   0.175   0.059   0.510  0.1949 -0.4671  0.3151
 6706TIP3    H141533   0.210  -0.027   0.488 -0.2132 -1.4280  3.1191
 6706TIP3    H241534   0.114   0.079   0.439  0.1139 -2.5944 -0.2719
 6707TIP3   OH241535   3.666   2.031   2.671 -0.0842  0.4483 -0.1868
 6707TIP3    H141536   3.629   2.119   2.670  0.9499  1.0520  2.9024
 6707TIP3    H241537   3.716   2.027   2.753  1.7858 -2.2746 -1.3222
 6708TIP3   OH241538   5.716   5.116   3.637  0.2577  0.3061 -0.1741
 6708TIP3    H141539   5.650   5.169   3.593  1.2911  0.2606 -1.8652
 6708TIP3    H241540   5.731   5.042   3.579  2.3248  0.7188 -0.2574
 6709TIP3   OH241541   4.026   6.172   0.370  0.0921 -0.1694 -0.4846
 6709TIP3    H141542   3.997   6.096   0.321  0.8321  0.1717 -1.4991
 6709TIP3    H241543   3.988   6.247   0.323 -0.0389  0.1187  0.0722
 6710TIP3   OH241544   4.442   5.289  13.576 -0.4076  0.0857 -0.2528
 6710TIP3    H141545   4.500   5.220  13.543 -0.0789 -0.2656  0.9928
 6710TIP3    H241546   4.497   5.367  13.580  0.1505 -0.3507  1.3523
 6711TIP3   OH241547   1.453   0.890   1.115  0.0366 -0.1572  0.5587
 6711TIP3    H141548   1.364   0.874   1.083 -0.1612  1.3194  0.2630
 6711TIP3    H241549   1.470   0.982   1.091  1.4960 -0.3035  0.9502
 6712TIP3   OH241550   3.230   3.528  16.176 -0.4077  0.3211  0.8157
 6712TIP3    H141551   3.162   3.478  16.221 -1.9637  0.3119 -1.3670
 6712TIP3    H241552   3.184   3.605  16.142  0.8147  0.6396 -0.1810
 6713TIP3   OH241553   6.530   6.098   2.446 -0.4385 -0.2129  0.1781
 6713TIP3    H141554   6.455   6.059   2.401 -0.6272  0.4970 -0.1373
 6713TIP3    H241555   6.557   6.170   2.389  0.2112 -0.1956  0.5084
 6714TIP3   OH241556   3.440   3.736   1.285 -0.4217  0.5850 -0.2809
 6714TIP3    H141557   3.457   3.674   1.355 -0.6036  0.6299 -0.1962
 6714TIP3    H241558   3.440   3.822   1.328 -1.1377  0.5651 -0.2244
 6715TIP3   OH241559   6.158   2.072  16.004  0.0619 -0.4536 -0.4640
 6715TIP3    H141560   6.221   2.010  16.040 -0.4369  0.4320  2.1363
 6715TIP3    H241561   6.111   2.022  15.938  2.1878 -1.6790 -1.1368
 6716TIP3   OH241562   2.895   2.155  15.336 -0.1537  0.0872  0.0504
 6716TIP3    H141563   2.836   2.194  15.271  0.6073  1.5123  0.1693
 6716TIP3    H241564   2.931   2.230  15.384  0.8245 -0.8190  0.7851
 6717TIP3   OH241565   3.958   0.511   2.423 -0.1707 -0.2031 -0.4802
 6717TIP3    H141566   4.014   0.554   2.359  0.5004  0.5322  0.5804
 6717TIP3    H241567   3.891   0.575   2.444  0.2526 -0.0252  0.3634
 6718TIP3   OH241568   3.184   6.247   0.718  0.0284 -0.0586  0.4775
 6718TIP3    H141569   3.188   6.337   0.749  1.0004  0.5572 -1.2833
 6718TIP3    H241570   3.275   6.222   0.706 -0.2445 -0.1711 -1.9089
 6719TIP3   OH241571   2.041   3.754   0.583 -0.5489 -0.4099  0.1684
 6719TIP3    H141572   2.006   3.665   0.584 -0.0224 -0.6238  0.3987
 6719TIP3    H241573   2.127   3.745   0.543 -1.1009  0.2421 -1.2068
 6720TIP3   OH241574   2.776   0.166  14.545  0.2004 -0.0459 -0.4828
 6720TIP3    H141575   2.779   0.151  14.451  0.3165  3.0517 -1.0638
 6720TIP3    H241576   2.845   0.110  14.581  0.2321 -1.1862 -2.2252
 6721TIP3   OH241577   6.691   5.337  14.577  0.2579 -0.1445  0.4735
 6721TIP3    H141578   6.653   5.424  14.566 -0.3283 -0.4022  0.3884
 6721TIP3    H241579   6.764   5.334  14.515  0.1715  0.2237  0.3544
 6722TIP3   OH241580   0.929   2.110  10.632 -0.2007  0.4837 -0.0499
 6722TIP3    H141581   0.843   2.073  10.650  0.1697 -1.0958 -1.3208
 6722TIP3    H241582   0.917   2.162  10.553  0.0081  0.3294 -0.1811
 6723TIP3   OH241583   4.444   5.983   1.415 -0.6814  0.5932 -0.0290
 6723TIP3    H141584   4.525   5.995   1.366  0.6764  0.5189  2.0814
 6723TIP3    H241585   4.448   5.894   1.450 -3.4075 -0.7701 -2.7584
 6724TIP3   OH241586   1.317   5.834   5.825  0.6683 -0.5015 -0.2910
 6724TIP3    H141587   1.244   5.784   5.859 -0.4921  0.7998 -0.7882
 6724TIP3    H241588   1.382   5.833   5.896 -1.9070  2.6879  2.4567
 6725TIP3   OH241589   2.404   0.031   5.286  0.2996 -0.4737  0.0370
 6725TIP3    H141590   2.328   0.080   5.316  1.4916  2.2187 -1.0282
 6725TIP3    H241591   2.395  -0.055   5.327 -2.0729  0.5035  1.7691
 6726TIP3   OH241592   6.672   3.024  10.979  0.1803  0.6958  0.2892
 6726TIP3    H141593   6.631   3.049  10.896  1.2120  2.6933  0.3238
 6726TIP3    H241594   6.712   2.939  10.961 -1.5256  0.0099 -0.5547
 6727TIP3   OH241595   3.611   2.305   4.569 -0.1414 -0.0555  0.0036
 6727TIP3    H141596   3.569   2.369   4.512 -0.9172 -1.3010 -0.8625
 6727TIP3    H241597   3.705   2.314   4.550  0.1052  2.6448  1.8544
 6728TIP3   OH241598   1.628   6.704  10.822 -0.2214  0.1278  0.1376
 6728TIP3    H141599   1.589   6.765  10.760  0.2244 -0.5400 -0.8169
 6728TIP3    H241600   1.715   6.741  10.841  0.2746 -0.4925 -0.8805
 6729TIP3   OH241601   5.488   5.926  11.795 -0.1743  0.4118  0.3438
 6729TIP3    H141602   5.479   5.834  11.772  0.4470  0.5834 -0.6454
 6729TIP3    H241603   5.564   5.956  11.745 -0.6085  1.5594  0.3480
 6730TIP3   OH241604   2.774   4.575  11.349  0.0670  0.3373 -0.0844
 6730TIP3    H141605   2.728   4.536  11.424  0.7988  1.6656  1.1184
 6730TIP3    H241606   2.710   4.634  11.311 -0.6809 -1.1513 -1.2437
 6731TIP3   OH241607   2.447   1.798   5.185 -0.2958  0.7782 -0.4675
 6731TIP3    H141608   2.528   1.760   5.150  0.4899  0.4212  1.5865
 6731TIP3    H241609   2.420   1.737   5.253 -0.8389  2.2169  0.6536
 6732TIP3   OH241610   1.778   1.720   4.734 -0.6118  0.5865 -0.3791
 6732TIP3    H141611   1.694   1.711   4.780 -1.6001  0.2899 -2.1393
 6732TIP3    H241612   1.834   1.654   4.775 -1.5055  0.2014  0.2811
 6733TIP3   OH241613   0.659   4.800  15.024 -0.6296  0.0734  0.1293
 6733TIP3    H141614   0.719   4.794  15.099  0.0506 -1.8042 -0.5191
 6733TIP3    H241615   0.622   4.888  15.031  1.9184  1.1896  0.7551
 6734TIP3   OH241616   3.074   5.826   2.901  0.0063  0.1440  0.5568
 6734TIP3    H141617   3.128   5.879   2.960  0.5869  2.1913 -1.6700
 6734TIP3    H241618   3.130   5.752   2.877 -0.1274 -0.5584  2.2478
 6735TIP3   OH241619   3.569   4.805  14.512  0.1102 -0.3831  0.4294
 6735TIP3    H141620   3.601   4.850  14.590  0.2235  0.0268  0.1454
 6735TIP3    H241621   3.480   4.839  14.500  0.7984  1.0757 -0.7826
 6736TIP3   OH241622   6.760   1.632  17.114 -0.3284 -0.8234  0.4868
 6736TIP3    H141623   6.818   1.674  17.051 -1.0483  0.3648  0.6079
 6736TIP3    H241624   6.701   1.701  17.144 -0.1237 -1.3789  2.3370
 6737TIP3   OH241625   3.176   3.646   2.078 -0.1869 -0.0334  0.0570
 6737TIP3    H141626   3.159   3.661   2.170 -0.1749 -1.5289  0.3308
 6737TIP3    H241627   3.175   3.733   2.038 -1.9403  0.4861  1.1580
 6738TIP3   OH241628   0.759   0.816   3.718  0.3715  0.2127  0.3011
 6738TIP3    H141629   0.728   0.780   3.801  0.3410  0.1398  0.2578
 6738TIP3    H241630   0.853   0.797   3.718  0.5515  1.0865  0.7656
 6739TIP3   OH241631   3.828   0.123  11.765 -0.2371 -0.0694 -0.0011
 6739TIP3    H141632   3.882   0.099  11.689  0.2055 -0.6305  0.4848
 6739TIP3    H241633   3.785   0.204  11.738  1.1873  0.6405 -0.2415
 6740TIP3   OH241634   4.070   5.862  14.428  0.4568  0.1273 -0.2148
 6740TIP3    H141635   4.133   5.886  14.360  1.5472 -1.5329  0.1269
 6740TIP3    H241636   4.119   5.873  14.510  0.4467 -1.5021  0.0406
 6741TIP3   OH241637   4.263   6.089  16.588 -0.3708 -0.3240  1.2262
 6741TIP3    H141638   4.291   6.103  16.678  0.8079 -0.2858  0.8656
 6741TIP3    H241639   4.343   6.095  16.536 -0.7170 -2.2107  0.3707
 6742TIP3   OH241640   5.302   5.983  13.654  0.1025 -0.2552  0.4910
 6742TIP3    H141641   5.376   6.017  13.604 -0.5044 -0.5126 -0.6180
 6742TIP3    H241642   5.299   6.037  13.733  1.0226  0.2238  0.2103
 6743TIP3   OH241643   1.825   5.368   0.569  0.0050 -0.3743  0.9025
 6743TIP3    H141644   1.777   5.352   0.650  1.8283 -0.0196  2.1273
 6743TIP3    H241645   1.870   5.286   0.550 -2.0671 -1.1675 -1.0222
 6744TIP3   OH241646   5.525   0.210   3.129  0.1053  0.7776  0.5220
 6744TIP3    H141647   5.553   0.251   3.211 -0.8905  0.0619  1.2479
 6744TIP3    H241648   5.447   0.160   3.152 -0.2119  0.5684 -0.8761
 6745TIP3   OH241649   0.433   6.451   5.119  0.8199 -0.1349  0.2387
 6745TIP3    H141650   0.407   6.495   5.038  0.9246 -1.4467 -0.5215
 6745TIP3    H241651   0.427   6.520   5.186 -1.4269  0.4283 -0.4587
 6746TIP3   OH241652   2.690   4.744  14.048 -0.0911  0.0817 -0.6370
 6746TIP3    H141653   2.615   4.784  14.091 -0.0707 -0.2035 -0.3342
 6746TIP3    H241654   2.673   4.650  14.052  0.5045 -0.0136 -0.1345
 6747TIP3   OH241655   3.243   3.126  16.665 -0.6643  1.2300  0.6980
 6747TIP3    H141656   3.308   3.167  16.608  1.2782 -3.2236 -0.7532
 6747TIP3    H241657   3.288   3.114  16.748 -1.2203  2.0116  1.1193
 6748TIP3   OH241658   4.322   4.215  15.271 -0.3095  1.4073 -0.0999
 6748TIP3    H141659   4.373   4.288  15.304 -0.0584  1.7515 -1.1971
 6748TIP3    H241660   4.281   4.249  15.191 -0.9950  0.6578 -0.0777
 6749TIP3   OH241661   2.065   3.654  11.532 -0.1588  0.3944  0.5747
 6749TIP3    H141662   2.098   3.693  11.613  1.2422 -0.1637  0.3070
 6749TIP3    H241663   2.143   3.645  11.477 -1.1372  1.0658 -0.9784
 6750TIP3   OH241664   1.032   6.165  12.193  0.3689  0.0337  0.0603
 6750TIP3    H141665   0.964   6.173  12.259 -1.3765  1.5414 -1.7915
 6750TIP3    H241666   0.987   6.131  12.116  2.6099 -3.0320 -0.0880
 6751TIP3   OH241667   0.183   4.266  14.388 -0.3132 -0.1544 -0.3543
 6751TIP3    H141668   0.217   4.184  14.424 -1.3631  0.3355  1.9311
 6751TIP3    H241669   0.199   4.330  14.456 -2.4738  0.8512 -0.7211
 6752TIP3   OH241670   2.017   6.082   0.445  0.1359  0.1161  0.1851
 6752TIP3    H141671   1.992   6.163   0.400  1.7007  0.0196 -0.9211
 6752TIP3    H241672   2.055   6.111   0.528  2.6555  0.7380 -1.0900
 6753TIP3   OH241673   6.306   3.157  15.642 -0.3145 -0.6633  0.0051
 6753TIP3    H141674   6.307   3.068  15.608 -0.4154 -0.6422 -0.0545
 6753TIP3    H241675   6.331   3.211  15.567 -1.1086 -0.5641 -0.1923
 6754TIP3   OH241676   4.351   0.500  16.260  0.1538 -0.4376  0.0105
 6754TIP3    H141677   4.365   0.587  16.223 -0.6422  0.0285  0.7391
 6754TIP3    H241678   4.256   0.493  16.268  0.2537 -0.9051  1.0097
 6755TIP3   OH241679   1.534   5.932   1.397  0.0051 -0.5172 -0.1271
 6755TIP3    H141680   1.442   5.912   1.415  0.2260 -1.1492  0.3160
 6755TIP3    H241681   1.530   6.002   1.331 -0.7900 -0.5088 -0.0866
 6756TIP3   OH241682   5.435   3.492  16.516  0.1649  0.4231 -0.1437
 6756TIP3    H141683   5.417   3.424  16.451  1.6603 -1.5400  1.3659
 6756TIP3    H241684   5.425   3.574  16.468  1.8863 -0.9164 -3.0542
 6757TIP3   OH241685   2.225   6.333  15.331  0.5473 -0.4348 -0.6773
 6757TIP3    H141686   2.203   6.267  15.265  0.6411 -0.7024 -0.4396
 6757TIP3    H241687   2.182   6.303  15.411 -0.0151  0.1688 -0.7412
 6758TIP3   OH241688   3.488   3.232   0.353  0.1279  0.1711 -0.4210
 6758TIP3    H141689   3.485   3.146   0.310 -0.7539  0.4729 -0.9842
 6758TIP3    H241690   3.539   3.217   0.432 -0.2653 -0.9531 -0.3597
 6759TIP3   OH241691   0.126   2.628   5.082  0.3091  0.4063 -0.1431
 6759TIP3    H141692   0.145   2.604   5.172  0.4685 -3.4426 -1.0531
 6759TIP3    H241693   0.039   2.592   5.065  1.5721 -1.9152 -2.3730
 6760TIP3   OH241694   5.460   5.899   1.300 -0.3177 -0.0949 -0.1356
 6760TIP3    H141695   5.505   5.868   1.378 -2.8328 -1.7457  0.8025
 6760TIP3    H241696   5.487   5.838   1.231  1.2368  0.8379 -0.3871
 6761TIP3   OH241697   5.517   3.757   6.119  0.1005 -0.7471 -0.0574
 6761TIP3    H141698   5.543   3.794   6.035  1.1198 -1.0185  0.1278
 6761TIP3    H241699   5.533   3.827   6.183  0.7721 -1.0542  0.1135
 6762TIP3   OH241700   5.650   3.970   3.825 -0.2693 -0.0687 -0.3257
 6762TIP3    H141701   5.657   4.025   3.747 -2.0653  0.4768 -0.1632
 6762TIP3    H241702   5.559   3.982   3.854  0.4477  0.0588  2.0822
 6763TIP3   OH241703   2.148   3.043  13.291  0.3595  0.9595 -0.0771
 6763TIP3    H141704   2.136   2.960  13.244  1.7352  0.3807  0.5591
 6763TIP3    H241705   2.226   3.082  13.252  1.0210  0.8856  1.1339
 6764TIP3   OH241706   4.932   1.030  13.877  0.0446 -0.1576 -0.1853
 6764TIP3    H141707   4.969   0.951  13.916 -0.5223 -0.9291 -1.1586
 6764TIP3    H241708   5.000   1.096  13.887  0.5571 -0.7843  0.5816
 6765TIP3   OH241709   3.330   1.381   0.893  0.4960 -0.2737 -0.0461
 6765TIP3    H141710   3.247   1.333   0.887  0.8036 -0.8579  0.3125
 6765TIP3    H241711   3.329   1.440   0.818  0.5555 -1.5563 -1.0989
 6766TIP3   OH241712   0.903   0.621  14.307  0.7605  0.2017 -0.1502
 6766TIP3    H141713   0.898   0.635  14.402 -1.9270  0.7841 -0.3046
 6766TIP3    H241714   0.871   0.532  14.295 -0.7190  0.7678 -0.6071
 6767TIP3   OH241715   3.993   5.127  15.619  0.8418 -0.3350  0.0381
 6767TIP3    H141716   3.995   5.171  15.534  0.2312  0.8398  0.6132
 6767TIP3    H241717   4.043   5.047  15.605 -0.1697 -0.7152 -1.7346
 6768TIP3   OH241718   2.705   5.700   1.379  0.5679 -0.0741 -0.3626
 6768TIP3    H141719   2.779   5.760   1.378  2.1969 -1.9162 -3.3935
 6768TIP3    H241720   2.662   5.713   1.295 -0.7583 -1.1715  0.1031
 6769TIP3   OH241721   0.281   4.590  16.341  0.2071 -0.4654  0.5093
 6769TIP3    H141722   0.295   4.586  16.435 -0.2152  0.1097  0.6025
 6769TIP3    H241723   0.262   4.682  16.323  1.2272 -0.3775 -0.2764
 6770TIP3   OH241724   2.757   1.983  11.278  0.1303 -0.1856 -0.0087
 6770TIP3    H141725   2.823   1.915  11.269  0.7154  0.4292 -0.4642
 6770TIP3    H241726   2.749   1.997  11.372 -0.7300 -1.5702  0.1623
 6771TIP3   OH241727   4.930   0.926   1.579  0.0103  0.2587 -0.3120
 6771TIP3    H141728   4.897   0.885   1.499  1.5153 -1.0213 -0.3303
 6771TIP3    H241729   4.890   1.012   1.580 -0.9722 -0.1348 -1.8291
 6772TIP3   OH241730   4.127   3.682   0.964 -0.3829 -0.8720  0.1028
 6772TIP3    H141731   4.155   3.710   0.877  2.4196 -1.4691  0.7044
 6772TIP3    H241732   4.193   3.619   0.991 -0.4181  0.2190  3.1626
 6773TIP3   OH241733   6.371   2.327  10.845 -0.3702  0.6663 -1.0323
 6773TIP3    H141734   6.278   2.345  10.850 -0.7156 -1.0625 -0.5725
 6773TIP3    H241735   6.393   2.338  10.752 -0.5382  3.1057 -0.8499
 6774TIP3   OH241736   0.926   0.730  13.465 -0.0321 -0.1803 -0.1444
 6774TIP3    H141737   0.895   0.774  13.386  0.7059  1.3789  0.3953
 6774TIP3    H241738   0.846   0.699  13.508 -0.4610 -0.7203 -1.3137
 6775TIP3   OH241739   1.734   2.635  15.992 -0.7814 -0.2106  0.3280
 6775TIP3    H141740   1.786   2.585  15.929 -2.7364 -1.0547 -0.6743
 6775TIP3    H241741   1.646   2.637  15.955 -2.1392 -1.1782  3.2468
 6776TIP3   OH241742   4.836   5.597   5.468  0.5063  0.0463  0.0387
 6776TIP3    H141743   4.843   5.601   5.373  1.9778 -0.3057  0.1168
 6776TIP3    H241744   4.812   5.506   5.487  0.8504 -0.0454  0.0365
 6777TIP3   OH241745   3.977   1.019  16.811  0.5769 -0.4156  0.4837
 6777TIP3    H141746   4.010   1.072  16.739  0.9199 -0.0598  0.8944
 6777TIP3    H241747   3.909   0.964  16.772  0.3109  0.2324  0.0293
 6778TIP3   OH241748   5.146   6.758   5.156 -0.7023 -0.6314  0.0046
 6778TIP3    H141749   5.233   6.794   5.174 -0.8096 -0.2191 -0.2775
 6778TIP3    H241750   5.115   6.727   5.241 -0.6536  0.0545  0.2850
 6779TIP3   OH241751   5.734   6.377  16.783 -0.7417 -0.2795 -0.0460
 6779TIP3    H141752   5.810   6.411  16.736 -1.5157  0.2022 -0.9860
 6779TIP3    H241753   5.659   6.422  16.743 -1.4641 -0.1877  1.3635
 6780TIP3   OH241754   0.843   2.177  17.200  0.3915 -0.1782 -0.6920
 6780TIP3    H141755   0.778   2.108  17.192 -0.1726 -0.2643  2.8107
 6780TIP3    H241756   0.920   2.134  17.236  0.9584  0.5812 -0.9670
 6781TIP3   OH241757   5.329   6.264   6.849 -0.4308 -0.5678  0.0040
 6781TIP3    H141758   5.237   6.239   6.852 -0.5416 -0.6722 -2.1781
 6781TIP3    H241759   5.364   6.214   6.774  0.8463  1.0768 -0.5462
 6782TIP3   OH241760   6.531   2.762  15.623 -0.1689  0.3926 -0.0449
 6782TIP3    H141761   6.542   2.685  15.568 -2.6648 -1.3393  1.6892
 6782TIP3    H241762   6.619   2.783  15.653  0.6413 -1.3519 -1.0805
 6783TIP3   OH241763   1.555   0.760   0.283 -0.5895  0.2580  0.4031
 6783TIP3    H141764   1.488   0.827   0.289 -0.7617 -0.0501  2.7683
 6783TIP3    H241765   1.506   0.677   0.287 -0.2236  0.0048 -0.2481
 6784TIP3   OH241766   2.895   0.910  12.518 -0.0159  0.6556 -0.0866
 6784TIP3    H141767   2.821   0.936  12.573  1.4115  2.8332  0.9580
 6784TIP3    H241768   2.970   0.909  12.577  1.2232  1.0178 -1.5835
 6785TIP3   OH241769   0.915   4.705   2.103  0.0809  0.1817 -0.2484
 6785TIP3    H141770   0.962   4.666   2.176 -1.1512 -1.0470 -0.0697
 6785TIP3    H241771   0.976   4.703   2.030  0.2717 -1.5139 -0.0684
 6786TIP3   OH241772   1.401   3.302   3.629  0.3579  0.2323 -0.0045
 6786TIP3    H141773   1.435   3.216   3.654 -0.4970 -0.1538 -0.1185
 6786TIP3    H241774   1.373   3.291   3.538  1.0610  0.8916 -0.3090
 6787TIP3   OH241775   4.723   6.189  15.549 -0.0490  0.9891  0.1917
 6787TIP3    H141776   4.809   6.160  15.518  0.2029 -0.0461  1.7750
 6787TIP3    H241777   4.703   6.264  15.493  0.6978 -0.2965 -1.9406
 6788TIP3   OH241778   2.357   6.583   0.698  0.7988 -0.1718  0.2219
 6788TIP3    H141779   2.389   6.630   0.775  0.4320 -1.4403  1.1643
 6788TIP3    H241780   2.399   6.628   0.624  1.5718  0.7294  1.1748
 6789TIP3   OH241781   5.408   0.550   4.426  0.4784  0.3351 -0.1012
 6789TIP3    H141782   5.434   0.635   4.461 -0.5574  0.6678 -0.1250
 6789TIP3    H241783   5.365   0.506   4.500  0.5630  0.0255 -0.2343
 6790TIP3   OH241784   4.042   1.331  16.234  0.0010 -0.3442  0.1186
 6790TIP3    H141785   4.070   1.419  16.209  2.5493 -0.7068  1.3869
 6790TIP3    H241786   4.016   1.339  16.325 -0.5583 -0.7447 -0.0029
 6791TIP3   OH241787   2.288   3.349   2.574 -0.1738 -0.0230  0.0292
 6791TIP3    H141788   2.247   3.433   2.595 -2.1358 -1.0219  0.3469
 6791TIP3    H241789   2.220   3.298   2.531  1.0578 -1.3795 -0.3972
 6792TIP3   OH241790   6.090   6.147  13.746  0.1541 -0.0298  0.0148
 6792TIP3    H141791   6.002   6.168  13.715 -0.5554 -2.2122  0.4120
 6792TIP3    H241792   6.148   6.198  13.689 -1.3257  0.6693 -0.9142
 6793TIP3   OH241793   0.181   5.339  15.814 -0.4168 -0.0325 -1.1342
 6793TIP3    H141794   0.276   5.349  15.815 -0.0873 -2.4489  1.0910
 6793TIP3    H241795   0.148   5.426  15.791  2.2515  2.2466  2.6242
 6794TIP3   OH241796   2.572   2.575   5.312 -0.2346  0.4517  0.2186
 6794TIP3    H141797   2.658   2.609   5.339 -0.0975 -0.5192  1.0969
 6794TIP3    H241798   2.509   2.636   5.351  0.0479  2.1349 -1.8228
 6795TIP3   OH241799   2.065   0.612   3.050  0.0494 -0.2056 -0.2839
 6795TIP3    H141800   2.029   0.531   3.086  1.0875 -0.0004  1.3129
 6795TIP3    H241801   2.075   0.669   3.125  1.7704  0.4662 -0.9795
 6796TIP3   OH241802   6.699   2.890   2.338  0.1072  0.2834 -0.1960
 6796TIP3    H141803   6.625   2.948   2.320 -1.1439 -1.0761  0.3596
 6796TIP3    H241804   6.767   2.917   2.276  0.1861  3.3308  1.0123
 6797TIP3   OH241805   0.050   1.406   2.545 -0.6282  0.2658 -0.0320
 6797TIP3    H141806   0.060   1.501   2.544 -2.1195  0.4657  1.2480
 6797TIP3    H241807   0.042   1.384   2.638 -1.0414 -1.0303 -0.3612
 6798TIP3   OH241808   0.073   1.890   5.423 -0.0098 -0.2555  0.1323
 6798TIP3    H141809   0.104   1.877   5.333  2.4671 -1.8447  1.0980
 6798TIP3    H241810   0.078   1.984   5.437  0.9738 -0.1154 -0.9817
 6799TIP3   OH241811   3.869   6.032   0.168 -0.4361 -0.1679  0.0879
 6799TIP3    H141812   3.789   6.072   0.202 -0.8800 -1.1053  0.2069
 6799TIP3    H241813   3.837   5.965   0.107  0.1629 -1.7478  1.4276
 6800TIP3   OH241814   1.058   6.204  16.589  0.3940 -0.4680  0.4802
 6800TIP3    H141815   1.023   6.131  16.538  0.8186 -0.7758  0.6276
 6800TIP3    H241816   0.987   6.226  16.650  0.9733 -2.1148  1.8551
 6801TIP3   OH241817   1.736   5.669   4.942  0.4841  0.2991  0.3139
 6801TIP3    H141818   1.743   5.645   5.034  0.2918  0.8099  0.4631
 6801TIP3    H241819   1.648   5.704   4.933  0.5206  0.3016 -0.0551
 6802TIP3   OH241820   5.520   5.489  15.936  0.0550  0.3988  0.0714
 6802TIP3    H141821   5.455   5.508  15.869 -0.2796 -0.8127  0.0169
 6802TIP3    H241822   5.586   5.436  15.890 -1.2703 -2.3564  1.1080
 6803TIP3   OH241823   1.335   5.516  13.084 -0.4799 -0.7182 -0.0054
 6803TIP3    H141824   1.392   5.579  13.129 -0.2984 -1.0072  0.1726
 6803TIP3    H241825   1.396   5.456  13.041 -0.6547 -0.7308 -0.2324
 6804TIP3   OH241826   2.683   4.878   1.875 -0.0511 -0.0030 -0.2230
 6804TIP3    H141827   2.641   4.961   1.897 -0.0513 -0.1125  0.1896
 6804TIP3    H241828   2.642   4.813   1.933  0.3637 -0.1878 -0.1295
 6805TIP3   OH241829   6.694   0.757  11.673  0.4966  0.0498  0.4105
 6805TIP3    H141830   6.669   0.698  11.744  1.7527 -0.8997  0.1051
 6805TIP3    H241831   6.622   0.820  11.667 -1.4619 -2.0975  0.0186
 6806TIP3   OH241832   1.219   0.394   2.054 -0.5303 -0.6237 -0.4513
 6806TIP3    H141833   1.301   0.361   2.018 -1.6390 -2.2735 -1.6499
 6806TIP3    H241834   1.151   0.357   1.997 -2.1385  0.2791  0.7744
 6807TIP3   OH241835   4.426   3.000   3.792  0.6572  0.7197 -0.5839
 6807TIP3    H141836   4.357   3.059   3.761 -1.2512 -0.6299  0.9029
 6807TIP3    H241837   4.456   3.040   3.874 -0.5935 -0.2958  0.3920
 6808TIP3   OH241838   2.119   0.480   2.790 -0.2396 -0.5231 -0.1166
 6808TIP3    H141839   2.107   0.552   2.852  0.6575 -1.0386  0.6668
 6808TIP3    H241840   2.146   0.523   2.709  0.5475  0.0072  0.4149
 6809TIP3   OH241841   4.738   4.061  16.782 -0.0074 -0.4689  0.3097
 6809TIP3    H141842   4.790   4.118  16.839 -1.1633  1.2480 -0.2495
 6809TIP3    H241843   4.649   4.069  16.815 -0.7331  0.6820 -1.7429
 6810TIP3   OH241844   5.070   4.713   6.234 -0.4618  0.5494 -0.4088
 6810TIP3    H141845   5.094   4.645   6.170  0.3133  1.4028 -1.0406
 6810TIP3    H241846   4.983   4.687   6.264 -0.1790 -0.7308 -0.6353
 6811TIP3   OH241847   2.113   1.732   5.727  0.0271 -0.2585  0.1236
 6811TIP3    H141848   2.197   1.774   5.711  0.0168 -0.4559 -0.4641
 6811TIP3    H241849   2.065   1.794   5.782  0.4611 -0.0374  0.2567
 6812TIP3   OH241850   0.593   4.036  11.430  0.1821 -0.1060 -0.5497
 6812TIP3    H141851   0.647   4.027  11.352 -0.2950 -2.5670 -0.6974
 6812TIP3    H241852   0.514   4.080  11.400  1.4568  2.2538 -0.6260
 6813TIP3   OH241853   4.324   4.798   6.320 -0.5526 -0.2373  0.2576
 6813TIP3    H141854   4.400   4.772   6.269  0.2841  1.0279  0.8001
 6813TIP3    H241855   4.291   4.876   6.276 -0.7096  0.0114  0.8069
 6814TIP3   OH241856   1.015   5.247  15.431 -0.5098  0.2266 -0.3367
 6814TIP3    H141857   0.998   5.339  15.412 -0.8013  0.1481 -0.4596
 6814TIP3    H241858   1.087   5.248  15.494 -0.3930  0.5306 -0.4751
 6815TIP3   OH241859   4.372   6.413   4.818  0.1209 -0.3228 -0.1463
 6815TIP3    H141860   4.440   6.363   4.774  0.3381  0.2737 -0.5022
 6815TIP3    H241861   4.390   6.504   4.795 -0.7611 -0.1498 -0.2025
 6816TIP3   OH241862   1.733   6.299  11.812 -0.1388 -0.4595  0.4065
 6816TIP3    H141863   1.818   6.266  11.786 -0.1663 -0.7201  0.6392
 6816TIP3    H241864   1.724   6.383  11.766  0.7383  0.1447  1.2740
 6817TIP3   OH241865   2.408   4.986  10.549  0.2699  0.8890 -0.3844
 6817TIP3    H141866   2.454   4.912  10.509 -0.0915  0.3388  0.2104
 6817TIP3    H241867   2.478   5.043  10.582  0.5443 -0.0197  0.6652
 6818TIP3   OH241868   0.146   4.852  12.247  0.6927 -0.5205 -0.4242
 6818TIP3    H141869   0.069   4.801  12.223  0.7729 -1.1615  0.5962
 6818TIP3    H241870   0.184   4.879  12.164  1.4390 -3.3421 -1.1396
 6819TIP3   OH241871   2.659   3.518   3.807 -0.7175 -0.7082  0.2935
 6819TIP3    H141872   2.726   3.454   3.781 -2.1733 -1.4198 -1.9700
 6819TIP3    H241873   2.577   3.468   3.807 -1.4746  0.4782  1.5668
 6820TIP3   OH241874   5.393   3.520  12.990 -0.1870  0.7224  0.1912
 6820TIP3    H141875   5.363   3.610  13.001 -0.6768  0.4610  1.0245
 6820TIP3    H241876   5.455   3.525  12.917 -1.6608  1.3977 -1.0844
 6821TIP3   OH241877   3.156   5.252  14.086  0.1041  0.5769  0.4615
 6821TIP3    H141878   3.214   5.181  14.061  1.5372  1.5916  0.7995
 6821TIP3    H241879   3.207   5.306  14.146 -0.3458  2.7767 -1.0100
 6822TIP3   OH241880   0.303   4.150   1.573 -0.2383 -0.2635  0.0889
 6822TIP3    H141881   0.315   4.196   1.490 -1.2057 -0.1257  0.0059
 6822TIP3    H241882   0.388   4.155   1.616  0.8540 -1.9381 -1.6791
 6823TIP3   OH241883   3.523   2.250   1.546  0.2377  0.0005  0.0822
 6823TIP3    H141884   3.600   2.195   1.557 -0.5000 -1.5332 -1.8476
 6823TIP3    H241885   3.534   2.289   1.460 -1.8204 -1.4954 -0.9437
 6824TIP3   OH241886   4.452   0.404   2.195 -0.0101 -0.0271  0.1226
 6824TIP3    H141887   4.538   0.362   2.196 -0.0978 -0.2398 -0.6153
 6824TIP3    H241888   4.464   0.485   2.245  0.6397 -0.0113 -0.0588
 6825TIP3   OH241889   1.363   2.976   2.052 -0.1053  0.0299 -0.4021
 6825TIP3    H141890   1.397   2.953   2.138  0.0025 -0.2814 -0.5260
 6825TIP3    H241891   1.283   2.923   2.043  0.9099 -1.4208 -1.2803
 6826TIP3   OH241892   5.058   5.965   5.286  0.4540 -0.3286 -1.2291
 6826TIP3    H141893   4.983   5.979   5.344  1.3301 -1.6054  0.2807
 6826TIP3    H241894   5.106   6.048   5.290  1.0046 -0.6847  0.6936
 6827TIP3   OH241895   5.077   0.771   1.764 -0.1357  0.3047  0.1440
 6827TIP3    H141896   5.055   0.819   1.844  2.2982 -1.1938  1.8589
 6827TIP3    H241897   5.017   0.805   1.698 -1.7368  2.1786  2.4025
 6828TIP3   OH241898   5.414   1.045   6.083 -0.6919  0.0325  0.4148
 6828TIP3    H141899   5.415   0.974   6.147 -0.2078  1.6926  2.3829
 6828TIP3    H241900   5.430   1.003   5.999  0.8054 -2.0287  1.6533
 6829TIP3   OH241901   5.295   6.522  11.350 -0.1269 -0.3990 -0.3961
 6829TIP3    H141902   5.276   6.485  11.264 -0.0730 -2.3279  0.3793
 6829TIP3    H241903   5.354   6.458  11.391 -0.5478  0.2321  1.2648
 6830TIP3   OH241904   1.871   0.854  12.345  0.2656 -0.7411 -0.2626
 6830TIP3    H141905   1.803   0.894  12.399  0.4398 -0.0760 -0.5326
 6830TIP3    H241906   1.859   0.892  12.258  0.2833 -1.4585 -0.5875
 6831TIP3   OH241907   3.161   2.165  15.676 -0.7126 -0.0623 -0.0260
 6831TIP3    H141908   3.124   2.142  15.761 -1.3881  0.0329 -0.2879
 6831TIP3    H241909   3.104   2.234  15.642 -1.5545 -1.3647 -1.3667
 6832TIP3   OH241910   5.448   1.827   4.360 -0.3423  0.0388 -0.6317
 6832TIP3    H141911   5.396   1.807   4.283 -0.7213 -1.7620  0.0401
 6832TIP3    H241912   5.512   1.892   4.330 -0.5363 -0.5543 -2.4180
 6833TIP3   OH241913   5.963   0.461   5.868 -0.1034 -0.2650 -0.0762
 6833TIP3    H141914   5.990   0.526   5.803 -0.8314  1.8062  1.5524
 6833TIP3    H241915   5.928   0.514   5.941  0.4101 -2.4597  1.8759
 6834TIP3   OH241916   6.082   4.197   3.764 -0.2636 -0.2474  0.5803
 6834TIP3    H141917   6.172   4.191   3.796 -0.3900 -1.6191  0.7066
 6834TIP3    H241918   6.067   4.291   3.754  2.1048 -0.0112 -2.0410
 6835TIP3   OH241919   1.230   4.942   4.572  0.2127 -0.4650  0.1465
 6835TIP3    H141920   1.319   4.945   4.606  0.8235 -0.1742 -1.3811
 6835TIP3    H241921   1.241   4.938   4.477 -1.4048 -0.1608 -0.0809
 6836TIP3   OH241922   0.938   1.325   0.799  0.2333 -0.2915 -0.7852
 6836TIP3    H141923   0.876   1.298   0.867 -1.5571 -2.3718 -3.0413
 6836TIP3    H241924   1.007   1.258   0.802  0.5977  0.0966 -0.4731
 6837TIP3   OH241925   3.914   5.081  13.555  0.1766  0.3789 -0.3542
 6837TIP3    H141926   4.009   5.084  13.548  0.4611 -1.4770  1.6832
 6837TIP3    H241927   3.897   5.079  13.649 -1.7569 -1.1461 -0.6759
 6838TIP3   OH241928   3.250   5.379   1.006  0.6822  0.3279 -0.1933
 6838TIP3    H141929   3.189   5.449   0.980  0.6005  1.5944  2.9816
 6838TIP3    H241930   3.294   5.354   0.925 -0.6751  2.7082 -1.7772
 6839TIP3   OH241931   3.048   0.554   4.239  0.2839  0.0219 -0.4211
 6839TIP3    H141932   3.068   0.535   4.148  1.4389  2.9214 -0.8811
 6839TIP3    H241933   2.955   0.533   4.248  0.4983 -1.7237 -1.8069
 6840TIP3   OH241934   0.387   3.361  14.468 -0.0200  0.1718 -0.1078
 6840TIP3    H141935   0.413   3.356  14.559  0.3413 -0.8492 -0.2540
 6840TIP3    H241936   0.380   3.270  14.440 -0.3128  0.4696 -1.0451
 6841TIP3   OH241937   2.882   6.096  11.603 -0.6719 -0.2818  0.3405
 6841TIP3    H141938   2.913   6.013  11.567 -0.7023  0.1750 -0.7866
 6841TIP3    H241939   2.948   6.121  11.668 -0.5241 -1.0398  0.4824
 6842TIP3   OH241940   5.282   2.680  12.801  0.1980  0.2028 -0.4872
 6842TIP3    H141941   5.225   2.699  12.875  0.6014 -1.3668  0.2780
 6842TIP3    H241942   5.362   2.729  12.818 -0.4294  1.3982 -0.9109
 6843TIP3   OH241943   1.118   3.283   2.257  0.1021  0.5938  0.0500
 6843TIP3    H141944   1.165   3.290   2.340  1.8077  0.3634 -0.8481
 6843TIP3    H241945   1.187   3.273   2.192 -1.2485 -0.7798 -1.2357
 6844TIP3   OH241946   2.279   2.825  17.036  0.0830 -0.2731 -0.1083
 6844TIP3    H141947   2.303   2.852  16.948  0.0127 -0.3928 -0.1645
 6844TIP3    H241948   2.320   2.890  17.093 -1.5982  1.0559 -0.3107
 6845TIP3   OH241949   5.292   3.733   5.126 -0.4269 -0.1667 -0.2864
 6845TIP3    H141950   5.311   3.641   5.146  2.3206  0.6988  1.7098
 6845TIP3    H241951   5.366   3.761   5.072 -0.2964  1.2608  0.5745
 6846TIP3   OH241952   4.310   6.494  16.092 -0.3389  0.1615  0.0329
 6846TIP3    H141953   4.225   6.498  16.135 -2.0289 -2.6896 -2.6183
 6846TIP3    H241954   4.346   6.409  16.116  0.7407  0.4259 -0.5813
 6847TIP3   OH241955   4.704   2.509  12.781 -0.4675 -0.1745  0.0572
 6847TIP3    H141956   4.769   2.440  12.779  0.8565  1.0405 -0.9616
 6847TIP3    H241957   4.702   2.539  12.872 -0.8900 -1.3631  0.4537
 6848TIP3   OH241958   0.618   4.991  12.488 -0.1933  0.3989  0.0349
 6848TIP3    H141959   0.549   5.045  12.449 -0.2035  0.0953 -0.3748
 6848TIP3    H241960   0.699   5.026  12.452 -0.2537 -0.3972 -0.9026
 6849TIP3   OH241961   0.389   2.324  15.616 -0.1545 -0.2520  0.1053
 6849TIP3    H141962   0.482   2.313  15.637 -0.0991  1.0979  0.6928
 6849TIP3    H241963   0.373   2.418  15.629 -1.9278 -0.6867  1.4120
 6850TIP3   OH241964   5.774   2.788  12.560 -0.5711 -0.3318 -0.0165
 6850TIP3    H141965   5.704   2.848  12.534 -1.7460 -1.5775  0.1563
 6850TIP3    H241966   5.738   2.701  12.542  1.0942 -0.9908 -0.2693
 6851TIP3   OH241967   0.760   1.649   2.967  0.0167  0.2518  0.2879
 6851TIP3    H141968   0.832   1.684   3.020  1.7595 -1.8498 -0.5036
 6851TIP3    H241969   0.693   1.624   3.031  1.2829 -0.5229  1.3865
 6852TIP3   OH241970   5.770   2.016   5.518  0.1971  0.2892  0.1108
 6852TIP3    H141971   5.835   2.000   5.449  0.3842  1.0488  0.0976
 6852TIP3    H241972   5.822   2.026   5.598 -0.0123 -0.4929  0.3491
 6853TIP3   OH241973   0.945   0.685  15.321  0.3878  0.9317  0.3005
 6853TIP3    H141974   1.003   0.615  15.291 -1.2859 -0.9727  1.3323
 6853TIP3    H241975   1.004   0.757  15.342  2.1862 -0.1858 -0.6538
 6854TIP3   OH241976   1.205   2.323   1.440  0.5485 -0.0130  0.1921
 6854TIP3    H141977   1.270   2.383   1.478  0.4240  1.3193 -1.5604
 6854TIP3    H241978   1.169   2.277   1.515  2.7912 -0.0811  1.3244
 6855TIP3   OH241979   6.321   6.745  16.003 -0.2784 -0.0628  0.1930
 6855TIP3    H141980   6.279   6.676  15.951 -1.1722 -0.2857  1.1699
 6855TIP3    H241981   6.311   6.716  16.094  1.3413  0.2627  0.5037
 6856TIP3   OH241982   0.651   3.224   2.160  0.1288  0.5116 -0.1212
 6856TIP3    H141983   0.575   3.274   2.190 -0.2862  1.7640 -2.9507
 6856TIP3    H241984   0.635   3.209   2.067  2.4912 -0.8487 -0.3944
 6857TIP3   OH241985   4.504   2.399   3.006 -0.2406  0.2331 -0.8003
 6857TIP3    H141986   4.590   2.410   3.048 -0.5826  0.0789 -0.0365
 6857TIP3    H241987   4.478   2.487   2.982 -0.3681  0.4238  0.0026
 6858TIP3   OH241988   1.125   3.718   2.934 -0.6360 -0.0422 -0.4438
 6858TIP3    H141989   1.069   3.738   2.859  0.2651  1.2587 -0.8073
 6858TIP3    H241990   1.066   3.719   3.009 -1.2859  0.2346 -0.9447
 6859TIP3   OH241991   5.934   3.785  16.763 -0.1314  0.4622 -0.2570
 6859TIP3    H141992   5.854   3.733  16.754  0.9920 -1.1252 -1.7599
 6859TIP3    H241993   6.000   3.737  16.713  1.9170  1.4478  1.3389
 6860TIP3   OH241994   3.170   1.675   0.168  0.1303 -0.4546 -0.4525
 6860TIP3    H141995   3.198   1.747   0.112  0.7502  0.8311  1.4102
 6860TIP3    H241996   3.082   1.700   0.198  0.7681  0.1283  1.0570
 6861TIP3   OH241997   3.576   6.257   2.079 -0.4561 -0.4092 -0.4464
 6861TIP3    H141998   3.554   6.199   2.151 -0.2433  1.3281  1.0834
 6861TIP3    H241999   3.557   6.206   2.000  0.7024 -2.8915  0.7872
 6862TIP3   OH242000   4.918   3.924   3.704 -0.1987  0.6581 -0.1941
 6862TIP3    H142001   4.939   3.968   3.786  0.6328 -1.7754  0.9886
 6862TIP3    H242002   4.873   3.843   3.731 -1.8963  0.8141 -2.2583
 6863TIP3   OH242003   5.602   0.728  15.928 -0.5768  0.2498 -0.0669
 6863TIP3    H142004   5.656   0.791  15.976 -1.0552  0.8120 -0.2584
 6863TIP3    H242005   5.512   0.753  15.950 -0.7748 -0.2297 -0.3249
 6864TIP3   OH242006   0.520   6.270  11.429  0.1655  0.4151 -0.2999
 6864TIP3    H142007   0.564   6.343  11.386  0.0891  0.5493 -0.1529
 6864TIP3    H242008   0.530   6.288  11.523  2.6462 -1.2093 -0.1610
 6865TIP3   OH242009   4.471   2.888  12.553 -0.0991  0.2827 -0.3349
 6865TIP3    H142010   4.403   2.938  12.598 -2.1222 -1.4104 -1.3353
 6865TIP3    H242011   4.539   2.876  12.619 -1.0019  1.5547  0.8925
 6866TIP3   OH242012   6.119   6.227   6.458  0.5076 -0.1356  0.6622
 6866TIP3    H142013   6.198   6.213   6.512  0.6085  1.3812  0.9502
 6866TIP3    H242014   6.046   6.213   6.519  0.6178  3.6981  1.9122
 6867TIP3   OH242015   3.989   5.473   3.760  0.5558  0.2012 -0.4818
 6867TIP3    H142016   4.060   5.517   3.714 -0.2641  0.8588 -1.1653
 6867TIP3    H242017   3.911   5.525   3.739 -0.4005 -1.3586 -1.0376
 6868TIP3   OH242018   6.050   0.568   5.636 -0.0556 -0.0490 -0.0858
 6868TIP3    H142019   6.065   0.661   5.618 -0.8142 -0.2577 -2.0040
 6868TIP3    H242020   6.005   0.536   5.558  0.0118 -1.9918  0.6376
 6869TIP3   OH242021   5.842   0.465  11.010  0.3743  0.5334  0.8900
 6869TIP3    H142022   5.916   0.513  10.972  1.8352 -1.6933  0.7705
 6869TIP3    H242023   5.793   0.433  10.934  1.3093 -0.9369  0.8674
 6870TIP3   OH242024   1.422   1.457   3.766 -0.4412 -0.5970  0.3543
 6870TIP3    H142025   1.493   1.509   3.730  0.0417 -0.5779  1.2922
 6870TIP3    H242026   1.352   1.521   3.784 -0.2554 -0.4337  0.5008
 6871TIP3   OH242027   3.429   4.363   1.949 -0.5684  0.3839  0.3686
 6871TIP3    H142028   3.501   4.418   1.917 -0.1415 -0.5449 -0.3264
 6871TIP3    H242029   3.361   4.425   1.975  0.4959  1.2862  1.0861
 6872TIP3   OH242030   1.885   0.415   4.691 -0.5885  0.0408 -0.1269
 6872TIP3    H142031   1.858   0.353   4.623 -0.2597  0.8079 -0.9693
 6872TIP3    H242032   1.940   0.363   4.750  1.3624 -0.0431 -1.9278
 6873TIP3   OH242033   1.403   1.021   1.758  0.3094  0.1875 -0.0318
 6873TIP3    H142034   1.406   1.035   1.664 -2.6458  0.5337 -0.1658
 6873TIP3    H242035   1.344   0.946   1.769  0.8143 -0.0223  1.5282
 6874TIP3   OH242036   6.676   0.790   1.829  0.7843 -0.4051  0.2105
 6874TIP3    H142037   6.598   0.816   1.877  0.4861  1.8253 -1.3232
 6874TIP3    H242038   6.665   0.696   1.814 -1.8479 -0.0729 -0.3550
 6875TIP3   OH242039   6.002   2.029   0.621 -0.0791  0.2201 -0.1644
 6875TIP3    H142040   5.933   1.968   0.593  1.4480 -2.1564  0.9165
 6875TIP3    H242041   5.973   2.061   0.706 -1.1470  1.4980 -0.9763
 6876TIP3   OH242042   5.652   0.245  13.136  0.0197 -0.4851 -0.0053
 6876TIP3    H142043   5.748   0.250  13.136  0.0601 -1.1787  0.1698
 6876TIP3    H242044   5.629   0.232  13.044  0.1609 -1.3957  0.0824
 6877TIP3   OH242045   2.317   6.400  10.905  0.0116  0.0387  0.6779
 6877TIP3    H142046   2.290   6.310  10.918  0.5105  0.0674  2.0060
 6877TIP3    H242047   2.390   6.394  10.842 -0.1470 -0.4445  0.5351
 6878TIP3   OH242048   4.422   0.082   3.832  0.1199  0.1230  0.2700
 6878TIP3    H142049   4.421   0.151   3.765 -0.5837  0.9560  1.1053
 6878TIP3    H242050   4.511   0.086   3.868  1.1622 -1.6622 -1.8937
 6879TIP3   OH242051   6.078   1.439   6.129 -0.9746  0.6091  0.0670
 6879TIP3    H142052   6.115   1.407   6.211 -0.0365  0.8164 -0.2690
 6879TIP3    H242053   6.052   1.529   6.149 -1.4581  0.4136  0.3466
 6880TIP3   OH242054   6.347   3.510  10.401 -0.1349  0.5948  0.0761
 6880TIP3    H142055   6.436   3.488  10.376 -0.1222  0.7825 -0.0545
 6880TIP3    H242056   6.342   3.492  10.495  0.0271  0.5451  0.0746
 6881TIP3   OH242057   3.277   3.109  15.174  0.2913 -0.2845 -0.4522
 6881TIP3    H142058   3.366   3.142  15.167 -0.3001  1.4583 -0.3646
 6881TIP3    H242059   3.279   3.023  15.132  2.0689 -0.4407 -0.1183
 6882TIP3   OH242060   0.965   0.052  12.922 -0.9734 -0.2675 -0.1373
 6882TIP3    H142061   0.919  -0.031  12.909 -2.2548  0.5902 -1.2525
 6882TIP3    H242062   0.915   0.096  12.990 -0.7526 -0.0785 -0.0990
 6883TIP3   OH242063   1.066   5.429   2.954  0.4166  0.1564 -0.1807
 6883TIP3    H142064   1.048   5.407   3.045  0.4324  1.5604  0.1868
 6883TIP3    H242065   1.123   5.359   2.923  0.4888 -0.2870  0.9093
 6884TIP3   OH242066   2.570   2.812  12.135  0.4267 -0.0598 -0.0702
 6884TIP3    H142067   2.546   2.789  12.225  1.8108  0.7478  0.5519
 6884TIP3    H242068   2.534   2.900  12.122  0.7182  0.0584 -0.0899
 6885TIP3   OH242069   3.744   4.897   5.536  0.3428 -0.2805  0.0473
 6885TIP3    H142070   3.691   4.900   5.617  0.7211  2.3947  0.2900
 6885TIP3    H242071   3.834   4.891   5.567  0.4292 -0.4302 -0.2314
 6886TIP3   OH242072   5.176   5.944  16.206  0.0724 -0.1703 -0.2632
 6886TIP3    H142073   5.152   5.979  16.120 -2.0819 -0.6422  0.0991
 6886TIP3    H242074   5.261   5.984  16.225 -0.2271  1.3379 -1.8284
 6887TIP3   OH242075   4.893   2.050   3.780 -0.4908 -0.4578  0.6139
 6887TIP3    H142076   4.806   2.014   3.760 -0.3924  0.5859 -2.2941
 6887TIP3    H242077   4.876   2.121   3.841 -1.3860 -1.5501  1.7044
 6888TIP3   OH242078   6.558   1.681   3.196 -0.1410  0.0533 -0.1436
 6888TIP3    H142079   6.565   1.590   3.224  0.4391 -0.0760 -0.6891
 6888TIP3    H242080   6.583   1.732   3.273 -0.3835 -0.2490  0.1392
 6889TIP3   OH242081   0.879   3.416  12.391 -0.4059  0.3190 -0.1439
 6889TIP3    H142082   0.872   3.481  12.321  1.2787  0.8117  0.1028
 6889TIP3    H242083   0.867   3.467  12.471 -3.1916 -0.3695 -0.0062
 6890TIP3   OH242084   0.355   6.218  12.906  0.1282 -0.1922  0.4371
 6890TIP3    H142085   0.399   6.191  12.826 -0.1876 -0.9817  0.5235
 6890TIP3    H242086   0.394   6.303  12.928 -0.6574  0.6337 -1.2158
 6891TIP3   OH242087   1.819   4.035   3.348 -0.4390  0.1388  0.3126
 6891TIP3    H142088   1.888   4.004   3.289  2.0548 -0.7324  3.4385
 6891TIP3    H242089   1.814   4.129   3.330 -1.7626 -0.4179 -3.0570
 6892TIP3   OH242090   6.343   0.963   1.476  0.1289  0.3841  0.3939
 6892TIP3    H142091   6.397   0.934   1.403  0.5705  1.1722  0.4077
 6892TIP3    H242092   6.298   0.883   1.505  1.9207 -0.4706  0.9482
 6893TIP3   OH242093   0.898   0.760   2.989 -0.0636  0.1373 -0.2689
 6893TIP3    H142094   0.964   0.716   3.042 -0.3058  1.3177  1.0839
 6893TIP3    H242095   0.846   0.810   3.053 -1.8295 -0.2099 -1.3652
 6894TIP3   OH242096   0.568   6.707  17.207 -0.4188  1.0055  0.8483
 6894TIP3    H142097   0.552   6.802  17.212 -1.1744  0.8660  1.1784
 6894TIP3    H242098   0.484   6.670  17.183  0.2839  0.5464 -1.0589
 6895TIP3   OH242099   6.669   6.508  14.799  0.0129  0.0015 -0.5179
 6895TIP3    H142100   6.753   6.462  14.788 -0.2930 -0.6359 -0.1851
 6895TIP3    H242101   6.634   6.514  14.710  0.4046  0.2619 -0.6588
 6896TIP3   OH242102   3.987   2.521  15.109  0.4024 -0.1024  0.2241
 6896TIP3    H142103   3.991   2.426  15.097 -0.7417  0.0392 -1.7888
 6896TIP3    H242104   3.907   2.537  15.159  0.1642 -0.1604 -0.1363
 6897TIP3   OH242105   3.239   4.504   5.179  0.8385  0.0637 -0.1670
 6897TIP3    H142106   3.183   4.574   5.212  0.1879  0.5274 -2.1406
 6897TIP3    H242107   3.185   4.425   5.186  0.0757  0.4245 -1.5698
 6898TIP3   OH242108   0.237   1.645  14.076  0.2853  0.3990 -0.1436
 6898TIP3    H142109   0.316   1.690  14.107  1.2425 -0.3539 -1.3993
 6898TIP3    H242110   0.237   1.562  14.124 -0.5069  0.9500  0.8515
 6899TIP3   OH242111   2.181   2.829   3.367 -0.3380  0.3077  0.4244
 6899TIP3    H142112   2.261   2.879   3.384  0.5509 -1.0178  0.1926
 6899TIP3    H242113   2.147   2.865   3.285  1.7754 -1.2567 -1.2219
 6900TIP3   OH242114   2.498   4.371   4.187 -0.1378 -0.2345 -0.4020
 6900TIP3    H142115   2.413   4.340   4.216 -0.3059  0.1145 -0.5166
 6900TIP3    H242116   2.493   4.372   4.091  0.7658 -2.3700 -0.5266
 6901TIP3   OH242117   3.166   2.940   0.966  0.2537  0.6687 -0.0633
 6901TIP3    H142118   3.137   3.006   0.904  0.1700  0.7905  0.1052
 6901TIP3    H242119   3.259   2.957   0.978  0.4667  0.0860 -0.8398
 6902TIP3   OH242120   5.988   1.728  11.413  0.2299 -0.0704  0.0609
 6902TIP3    H142121   5.944   1.797  11.363  1.6654  0.0157 -1.1368
 6902TIP3    H242122   5.991   1.653  11.354 -0.9969 -1.0972  1.2276
 6903TIP3   OH242123   6.027   1.420  13.471 -0.6183  0.2154 -0.2638
 6903TIP3    H142124   6.119   1.397  13.480 -0.6812  0.2280  0.4720
 6903TIP3    H242125   6.007   1.406  13.378 -0.3246 -1.4389 -0.1027
 6904TIP3   OH242126   2.444   5.462  12.465 -0.2984 -0.5073  0.3349
 6904TIP3    H142127   2.478   5.375  12.448  0.5055  0.0083 -0.8025
 6904TIP3    H242128   2.513   5.522  12.437 -0.7776  0.5136  1.2051
 6905TIP3   OH242129   0.561   3.136  11.845  0.1524  0.1179  0.3350
 6905TIP3    H142130   0.627   3.160  11.910 -1.7320  0.8825  2.0671
 6905TIP3    H242131   0.582   3.191  11.769  0.0047  2.3140  1.7920
 6906TIP3   OH242132   4.963   5.965  16.410 -0.1333 -0.3342  0.3777
 6906TIP3    H142133   4.973   5.951  16.316  2.1643 -0.3752  0.5690
 6906TIP3    H242134   5.052   5.976  16.442 -0.8608 -0.3775  2.5802
 6907TIP3   OH242135   1.465   0.178  13.704  0.5427 -0.1562  0.4661
 6907TIP3    H142136   1.460   0.088  13.671  1.4818 -0.8917  2.1934
 6907TIP3    H242137   1.409   0.178  13.781  0.4283  0.7831  0.3850
 6908TIP3   OH242138   6.492   5.653   1.090  0.0975 -0.0681 -0.0531
 6908TIP3    H142139   6.509   5.560   1.078  0.0169 -0.0410 -0.3714
 6908TIP3    H242140   6.400   5.657   1.117 -0.2109 -0.0073 -1.0627
 6909TIP3   OH242141   2.220   2.571  10.810 -0.1689  0.2219 -0.2297
 6909TIP3    H142142   2.267   2.507  10.756 -0.0851 -0.3989  0.5630
 6909TIP3    H242143   2.276   2.584  10.886 -0.2888  1.0873 -0.2868
 6910TIP3   OH242144   5.470   5.369   5.229  0.0652  0.4243  0.6330
 6910TIP3    H142145   5.475   5.458   5.193 -1.4037 -0.2584 -1.4148
 6910TIP3    H242146   5.561   5.339   5.232  0.3185  0.7397 -2.0834
 6911TIP3   OH242147   6.632   0.365   2.034 -0.2626 -0.3147  0.6196
 6911TIP3    H142148   6.650   0.394   2.123 -0.6824 -2.2079  1.3554
 6911TIP3    H242149   6.567   0.428   2.001 -1.6596 -0.7670  2.3834
 6912TIP3   OH242150   3.551   2.012   0.251 -0.3196  0.0517 -0.2533
 6912TIP3    H142151   3.482   1.973   0.304  0.0735 -1.0889 -0.5433
 6912TIP3    H242152   3.626   1.953   0.261 -0.2714 -0.2946 -2.1437
 6913TIP3   OH242153   2.154   1.182   2.765 -0.6615  0.6144  0.7088
 6913TIP3    H142154   2.241   1.220   2.781 -0.6517 -0.3248  3.2108
 6913TIP3    H242155   2.160   1.092   2.796 -2.4430  0.4318  0.6514
 6914TIP3   OH242156   3.535   3.122  10.974 -0.4705 -0.2289  0.6444
 6914TIP3    H142157   3.510   3.144  10.884  0.3028  1.2056  0.7637
 6914TIP3    H242158   3.489   3.185  11.029  2.2565  1.7044  0.9460
 6915TIP3   OH242159   0.419   2.779   6.113  0.2333  0.3943  0.1071
 6915TIP3    H142160   0.507   2.816   6.122 -0.7114  2.4790  1.2652
 6915TIP3    H242161   0.361   2.854   6.113 -1.4428 -0.5586 -4.3382
 6916TIP3   OH242162   6.536   2.136  12.918  0.0596  0.1984 -0.1937
 6916TIP3    H142163   6.598   2.063  12.923  0.4541  0.5134 -0.4280
 6916TIP3    H242164   6.564   2.197  12.987  0.6349  0.8074 -0.9445
 6917TIP3   OH242165   5.626   4.016   2.710 -0.1756 -0.7073  0.3904
 6917TIP3    H142166   5.588   3.973   2.786  1.1755 -3.2034 -0.2472
 6917TIP3    H242167   5.648   3.945   2.650  0.9229  1.0008 -1.3744
 6918TIP3   OH242168   5.283   3.969  10.792  0.3073  0.4173  0.0933
 6918TIP3    H142169   5.331   4.052  10.801 -1.0050  1.2468 -0.2579
 6918TIP3    H242170   5.193   3.991  10.815  0.1958 -1.2718  1.4919
 6919TIP3   OH242171   2.417   5.387  15.493  0.2142  0.2496 -0.5304
 6919TIP3    H142172   2.466   5.366  15.414  1.3522 -0.7954  0.4184
 6919TIP3    H242173   2.401   5.303  15.535 -2.5776  0.5192 -0.8585
 6920TIP3   OH242174   4.465   4.212   5.198  0.3351 -0.4888  0.0218
 6920TIP3    H142175   4.528   4.283   5.197  0.9903 -0.9998  1.7439
 6920TIP3    H242176   4.394   4.243   5.254  0.6212 -1.1656  0.7799
 6921TIP3   OH242177   4.644   0.704  12.917  0.1557  0.2544 -1.0270
 6921TIP3    H142178   4.616   0.646  12.988 -1.0300 -0.6975 -2.2267
 6921TIP3    H242179   4.693   0.774  12.962 -3.7247  1.8368  1.2799
 6922TIP3   OH242180   3.951   2.459  11.698  0.0344  0.2894  0.1642
 6922TIP3    H142181   3.943   2.373  11.739  0.5404 -0.0724 -0.4846
 6922TIP3    H242182   3.967   2.519  11.772 -0.4473 -0.1449  0.6314
 6923TIP3   OH242183   4.574   3.793  12.587  0.2429 -0.5026  0.0075
 6923TIP3    H142184   4.652   3.781  12.534 -0.2710 -0.8625 -0.6914
 6923TIP3    H242185   4.600   3.853  12.657  1.1070 -0.5502 -0.2709
 6924TIP3   OH242186   6.128   0.780   0.909 -0.2439  0.0236 -0.1542
 6924TIP3    H142187   6.180   0.858   0.892 -2.1191  1.3080 -0.2864
 6924TIP3    H242188   6.162   0.747   0.993  2.5987 -0.8425 -1.5082
 6925TIP3   OH242189   0.572   2.061  17.142  0.2578  0.1499 -0.0005
 6925TIP3    H142190   0.494   2.089  17.190 -0.5086 -0.4882 -0.8597
 6925TIP3    H242191   0.602   2.140  17.097  0.1081  0.3910  0.3137
 6926TIP3   OH242192   1.535   3.175   5.623  0.0183 -0.2252  0.8986
 6926TIP3    H142193   1.560   3.235   5.694  1.0706 -1.2954  1.4765
 6926TIP3    H242194   1.614   3.168   5.569 -0.0406 -1.1860  0.9255
 6927TIP3   OH242195   4.811   0.388  15.016  0.0334  0.5074 -0.2786
 6927TIP3    H142196   4.863   0.438  15.079  0.1969 -1.1559  0.9842
 6927TIP3    H242197   4.747   0.342  15.070  0.6588 -1.5634 -1.2124
 6928TIP3   OH242198   6.040   5.025   6.199 -0.8366 -0.5194  0.0389
 6928TIP3    H142199   6.079   4.961   6.259 -0.2031  1.2723  1.6737
 6928TIP3    H242200   6.039   5.106   6.249  0.5249  1.3312 -2.6951
 6929TIP3   OH242201   6.235   3.440   2.712 -0.1070 -0.3838 -0.3851
 6929TIP3    H142202   6.266   3.376   2.648  1.4531 -1.7936  1.6336
 6929TIP3    H242203   6.194   3.387   2.780 -1.1671  1.0119  0.1026
 6930TIP3   OH242204   5.276   2.272  12.640  0.1408  1.0901  0.3853
 6930TIP3    H142205   5.228   2.298  12.561 -0.2298  0.6306  0.4541
 6930TIP3    H242206   5.363   2.247  12.607 -0.4555 -0.4693 -0.0896
 6931TIP3   OH242207   5.680   4.694   4.065  0.0016  0.0541 -0.2353
 6931TIP3    H142208   5.586   4.675   4.064  0.2292 -1.1521 -1.0264
 6931TIP3    H242209   5.693   4.747   4.143 -1.4298  0.7695 -0.4538
 6932TIP3   OH242210   4.257   3.130  12.144  0.0350  0.0076  0.3045
 6932TIP3    H142211   4.337   3.120  12.197  1.5285 -1.6578 -2.0466
 6932TIP3    H242212   4.240   3.224  12.145  0.6698  0.1670  2.7092
 6933TIP3   OH242213   3.138   2.557   0.913  0.1580 -0.1635 -0.0317
 6933TIP3    H142214   3.225   2.548   0.875  0.1141 -0.9360  0.0325
 6933TIP3    H242215   3.115   2.468   0.942 -1.5409 -0.4189 -1.9534
 6934TIP3   OH242216   3.270   2.821  14.498 -0.0245 -0.6241 -0.1946
 6934TIP3    H142217   3.313   2.897  14.537 -2.0609  0.4451  0.1361
 6934TIP3    H242218   3.277   2.753  14.565 -1.2366  0.3987  1.0317
 6935TIP3   OH242219   1.098   0.985  16.815  0.0453  0.1243 -0.3990
 6935TIP3    H142220   1.003   0.997  16.824  0.2423  2.1678 -0.3739
 6935TIP3    H242221   1.125   1.060  16.761  1.7990  0.2144  0.5554
 6936TIP3   OH242222   3.288   0.301   3.195  0.0339 -0.0831  0.1666
 6936TIP3    H142223   3.233   0.377   3.175  0.5262  0.5686  1.2303
 6936TIP3    H242224   3.312   0.313   3.287 -0.9614 -2.2147  0.7572
 6937TIP3   OH242225   3.036   0.632   1.132  0.3285 -0.7755 -0.1227
 6937TIP3    H142226   3.130   0.623   1.121  0.5264  0.7872  0.1639
 6937TIP3    H242227   3.025   0.700   1.198 -1.0018 -1.2244  0.1598
 6938TIP3   OH242228   0.486   2.347  14.566  0.4660 -0.6972 -0.1424
 6938TIP3    H142229   0.420   2.374  14.502 -1.1775 -3.3709  0.2535
 6938TIP3    H242230   0.480   2.412  14.636  0.9572  1.2080 -1.7920
 6939TIP3   OH242231   2.791   3.345  15.452  0.1842 -0.8330 -0.3332
 6939TIP3    H142232   2.826   3.414  15.395 -0.1747  0.2145  0.6680
 6939TIP3    H242233   2.864   3.285  15.464  0.0502 -1.4975 -2.4868
 6940TIP3   OH242234   2.031   2.219  11.076 -0.6090  0.1176 -0.2211
 6940TIP3    H142235   2.016   2.161  11.150 -0.9526  0.7379  0.1991
 6940TIP3    H242236   1.947   2.262  11.060 -0.4143  0.3557 -0.6543
 6941TIP3   OH242237   6.411   2.374   0.314 -0.1103  0.0143  0.3122
 6941TIP3    H142238   6.339   2.312   0.330 -1.2544  0.7364 -1.6263
 6941TIP3    H242239   6.471   2.326   0.257  0.5151 -0.2852  1.2097
 6942TIP3   OH242240   0.248   3.790  12.013 -0.3544  0.3667 -0.6053
 6942TIP3    H142241   0.167   3.802  12.063 -1.1967 -1.1509 -1.5169
 6942TIP3    H242242   0.316   3.784  12.080 -1.2880 -0.4157  0.3293
 6943TIP3   OH242243   2.325   0.270   2.777 -0.0183 -0.1475 -0.1758
 6943TIP3    H142244   2.272   0.345   2.803 -0.1605  0.6574 -2.5769
 6943TIP3    H242245   2.361   0.237   2.860 -2.1681  0.8358  1.2395
 6944TIP3   OH242246   1.620   6.047   6.059 -0.0002 -0.0233 -0.2178
 6944TIP3    H142247   1.664   6.029   5.976  0.7081  0.2630  0.0932
 6944TIP3    H242248   1.661   5.988   6.122 -0.5450 -0.2483 -0.0654
 6945TIP3   OH242249   6.625   1.907  15.607 -0.3254  0.4053  0.3680
 6945TIP3    H142250   6.584   1.822  15.592  0.0639 -0.1239  2.0823
 6945TIP3    H242251   6.558   1.958  15.652 -1.1867  1.6779 -2.1557
 6946TIP3   OH242252   2.079   2.025  13.899 -0.2011 -0.0789  0.1946
 6946TIP3    H142253   2.118   2.067  13.822 -0.4466 -2.0404 -1.0528
 6946TIP3    H242254   1.999   2.076  13.915  0.5557  1.2025  0.0179
 6947TIP3   OH242255   6.178   0.405   1.647  0.0406  0.0053 -0.3590
 6947TIP3    H142256   6.166   0.492   1.609 -0.4125 -0.0374 -0.3117
 6947TIP3    H242257   6.110   0.398   1.714  0.0298 -0.4130 -0.4115
 6948TIP3   OH242258   6.483   0.396  13.662 -0.3213  0.1960 -0.2020
 6948TIP3    H142259   6.454   0.382  13.572 -0.5661 -1.3453  0.0973
 6948TIP3    H242260   6.423   0.463  13.696 -1.4308 -0.5544 -0.6270
 6949TIP3   OH242261   4.808   0.415   2.573 -0.3323  0.7180  0.0851
 6949TIP3    H142262   4.886   0.442   2.525 -0.0500 -0.9833 -0.4846
 6949TIP3    H242263   4.839   0.403   2.663  0.7543 -2.3066 -0.5659
 6950TIP3   OH242264   3.391   1.010   6.263 -0.2852 -0.4853  0.5820
 6950TIP3    H142265   3.382   0.919   6.293  2.4156 -0.7935  0.7670
 6950TIP3    H242266   3.349   1.012   6.177 -1.3495 -1.6111  1.0560
 6951TIP3   OH242267   0.087   1.212   2.131 -0.3110  0.0935  0.2154
 6951TIP3    H142268   0.162   1.161   2.101 -0.2417  0.1013  0.3714
 6951TIP3    H242269   0.065   1.268   2.057 -1.2107 -1.0693 -0.4141
 6952TIP3   OH242270   0.557   6.715  14.610  0.0787  0.1080  0.0430
 6952TIP3    H142271   0.498   6.658  14.659  0.0399 -0.8789 -1.0801
 6952TIP3    H242272   0.521   6.803  14.620 -0.6426 -0.2541  0.7004
 6953TIP3   OH242273   4.894   2.068   1.543  0.1423 -0.3921 -0.2051
 6953TIP3    H142274   4.946   2.056   1.622  1.7856 -0.6510 -1.2683
 6953TIP3    H242275   4.867   1.980   1.518 -0.9635 -0.2441  0.4239
 6954TIP3   OH242276   5.369   1.992   6.889 -0.3924  0.1986  0.0621
 6954TIP3    H142277   5.311   2.034   6.953 -0.4065  3.5366 -1.9186
 6954TIP3    H242278   5.314   1.976   6.813  0.0682 -1.9184  0.1209
 6955TIP3   OH242279   5.133   5.304  14.401  0.3379 -0.1045  0.0530
 6955TIP3    H142280   5.128   5.358  14.321  1.5560 -0.4281 -0.2705
 6955TIP3    H242281   5.195   5.351  14.457 -1.6314  0.9170  1.4867
 6956TIP3   OH242282   6.641   3.674  15.213  0.6048 -0.4221 -0.3773
 6956TIP3    H142283   6.720   3.700  15.165  0.2142  0.0168 -0.7996
 6956TIP3    H242284   6.611   3.754  15.255  0.4662 -0.6235 -0.0893
 6957TIP3   OH242285   2.543   3.458   6.529  0.0848  0.0122  0.1081
 6957TIP3    H142286   2.572   3.370   6.554 -2.1601 -0.6718  0.5260
 6957TIP3    H242287   2.515   3.498   6.611  0.5106  0.9137 -0.1749
 6958TIP3   OH242288   5.408   2.318   6.744  0.4027 -0.3240  0.3849
 6958TIP3    H142289   5.415   2.399   6.694 -1.8423 -1.0063 -1.1549
 6958TIP3    H242290   5.498   2.283   6.746  0.9207  0.8184 -1.2822
 6959TIP3   OH242291   2.236   5.836  14.989  0.3184  0.0334 -0.2626
 6959TIP3    H142292   2.222   5.911  15.047  1.0034  0.2464 -0.3568
 6959TIP3    H242293   2.295   5.778  15.038  1.0065  0.2745 -0.7821
 6960TIP3   OH242294   5.659   6.475  16.328 -0.1903 -0.2952 -0.3903
 6960TIP3    H142295   5.690   6.391  16.294 -0.8405 -0.6579 -0.0918
 6960TIP3    H242296   5.567   6.479  16.302 -0.1118  0.4184 -0.5755
 6961TIP3   OH242297   6.241   3.109  13.664 -0.4573 -0.4871  0.5265
 6961TIP3    H142298   6.253   3.203  13.658 -0.8811 -0.4750 -0.4298
 6961TIP3    H242299   6.282   3.084  13.747 -0.9451  0.6245  1.1206
 6962TIP3   OH242300   1.704   2.286   3.571  0.7717 -0.1224  0.7241
 6962TIP3    H142301   1.752   2.292   3.654  0.8086  2.8362  0.5853
 6962TIP3    H242302   1.766   2.319   3.505 -0.2733  0.4427  0.0002
 6963TIP3   OH242303   4.742   6.569   5.479 -0.3653 -0.5239  0.1275
 6963TIP3    H142304   4.720   6.509   5.550 -0.9820 -1.6923 -1.0030
 6963TIP3    H242305   4.718   6.522   5.399 -0.3464  1.0161 -0.8411
 6964TIP3   OH242306   6.455   3.434   4.421 -0.2440 -0.8453  0.1041
 6964TIP3    H142307   6.376   3.463   4.466  0.8478  0.1348  1.4970
 6964TIP3    H242308   6.484   3.357   4.471  0.4769 -0.2963  0.5576
 6965TIP3   OH242309   0.409   4.579   0.505  0.4305 -0.1187  0.1598
 6965TIP3    H142310   0.463   4.527   0.565 -0.4938  0.5444  1.6370
 6965TIP3    H242311   0.363   4.514   0.452  0.1577 -0.7902  1.1903
 6966TIP3   OH242312   2.116   1.604   0.946 -0.1826  0.4977  0.0840
 6966TIP3    H142313   2.097   1.693   0.978 -2.1375  0.3909 -0.6309
 6966TIP3    H242314   2.104   1.610   0.851 -1.1702 -0.6877  0.1082
 6967TIP3   OH242315   6.005   5.625   2.460 -0.0257  0.4952  0.6397
 6967TIP3    H142316   6.024   5.619   2.554  2.7727  0.0055  0.1315
 6967TIP3    H242317   5.929   5.568   2.447 -0.5596  0.6844  2.6055
 6968TIP3   OH242318   6.634   4.626  11.377  0.1815 -1.0624  0.1636
 6968TIP3    H142319   6.624   4.548  11.431 -0.4106 -1.0664  0.0538
 6968TIP3    H242320   6.617   4.597  11.288 -0.4058 -0.7370  0.1662
 6969TIP3   OH242321   4.767   5.978   2.605  0.2329 -0.0694  0.3791
 6969TIP3    H142322   4.788   5.891   2.570  0.0335 -0.7012  1.7455
 6969TIP3    H242323   4.694   6.008   2.551  0.9542 -0.2887 -0.7730
 6970TIP3   OH242324   0.413   2.732  16.931  0.0956 -0.1713  0.0754
 6970TIP3    H142325   0.340   2.718  16.990 -0.3525  1.5931 -0.0257
 6970TIP3    H242326   0.473   2.789  16.979  1.5461 -1.7375  0.2402
 6971TIP3   OH242327   3.834   3.341   2.547  0.0021 -0.0643 -0.5045
 6971TIP3    H142328   3.766   3.291   2.593  0.6871 -1.3322 -0.8286
 6971TIP3    H242329   3.906   3.346   2.610  0.5531 -0.9109 -1.0556
 6972TIP3   OH242330   6.279   5.513   5.892 -0.0725  0.4745  0.2301
 6972TIP3    H142331   6.298   5.497   5.984 -2.6340 -1.7910  0.4771
 6972TIP3    H242332   6.191   5.549   5.890 -0.2839 -0.0235 -1.3492
 6973TIP3   OH242333   3.086   4.957  14.244  0.0100  0.3048 -0.6044
 6973TIP3    H142334   3.160   5.005  14.208  1.2503  0.4324  1.9539
 6973TIP3    H242335   3.045   5.018  14.305 -0.0737 -0.9164  0.6006
 6974TIP3   OH242336   0.793   1.483   3.656 -0.2739 -0.4019 -0.4875
 6974TIP3    H142337   0.728   1.545   3.624 -1.2589 -1.9462 -1.5649
 6974TIP3    H242338   0.815   1.515   3.744 -2.2303  0.3372 -0.2249
 6975TIP3   OH242339   5.920   1.916   1.400 -0.2061 -0.4035 -0.0238
 6975TIP3    H142340   5.848   1.968   1.436 -0.3669 -0.5925 -0.0653
 6975TIP3    H242341   5.928   1.842   1.460  0.8913  0.3395  0.7744
 6976TIP3   OH242342   1.898   0.233   2.554 -0.5905 -0.3421 -0.0418
 6976TIP3    H142343   1.874   0.325   2.556  0.1680 -0.0971 -1.3360
 6976TIP3    H242344   1.921   0.215   2.463  0.5729 -1.4653  0.4242
 6977TIP3   OH242345   4.469   2.616   3.554  0.1965 -0.0629  0.2665
 6977TIP3    H142346   4.483   2.564   3.475 -0.2183  0.4435 -0.1424
 6977TIP3    H242347   4.412   2.563   3.609  1.1618 -0.7907  0.6089
 6978TIP3   OH242348   2.849   3.405   5.260 -0.2880 -0.3000 -0.2104
 6978TIP3    H142349   2.812   3.492   5.277  1.4101  0.5006 -0.3252
 6978TIP3    H242350   2.943   3.415   5.279  0.5773 -1.1527 -3.4129
 6979TIP3   OH242351   5.680   0.778  12.385 -0.1898  0.2843 -0.5850
 6979TIP3    H142352   5.716   0.700  12.428 -1.8137 -0.4429 -0.4636
 6979TIP3    H242353   5.754   0.817  12.339  0.7208 -1.1876 -0.4264
 6980TIP3   OH242354   3.509   2.579  10.590  0.4162 -0.1607 -0.6597
 6980TIP3    H142355   3.466   2.555  10.508 -0.6118  1.3038 -0.5992
 6980TIP3    H242356   3.562   2.655  10.568 -1.3060  1.4185  0.3358
 6981TIP3   OH242357   1.597   5.111   1.820  0.1515  0.5386  0.4148
 6981TIP3    H142358   1.645   5.187   1.786 -1.1641  0.8667 -0.8173
 6981TIP3    H242359   1.614   5.041   1.756 -0.6081  0.5321  0.2052
 6982TIP3   OH242360   3.950   4.677   1.074 -0.3403  0.0512  0.8504
 6982TIP3    H142361   4.013   4.620   1.031  0.1403 -1.0023  2.8398
 6982TIP3    H242362   4.001   4.754   1.101 -0.5526  0.5211 -0.0605
 6983TIP3   OH242363   6.068   6.116  12.730 -0.3227  0.3691  0.6082
 6983TIP3    H142364   6.077   6.047  12.664 -1.3085  0.6541  0.1548
 6983TIP3    H242365   6.067   6.197  12.680  1.1454  0.7773  1.1595
 6984TIP3   OH242366   2.061   6.234   1.622  0.2169 -1.0414 -0.3308
 6984TIP3    H142367   2.063   6.139   1.631  0.0905 -0.9820  0.3874
 6984TIP3    H242368   2.000   6.251   1.551  0.7636 -1.5208 -0.9310
 6985TIP3   OH242369   4.522   4.931  11.682  0.1517  0.4104  0.4531
 6985TIP3    H142370   4.487   4.977  11.606  3.4658  0.4027 -1.2369
 6985TIP3    H242371   4.567   4.998  11.733  1.5450 -0.2312  0.1233
 6986TIP3   OH242372   6.192   1.852  11.791 -0.2158 -0.1650  0.3894
 6986TIP3    H142373   6.170   1.796  11.865  0.6537 -2.0361 -0.6791
 6986TIP3    H242374   6.113   1.853  11.737 -0.3971  0.0513  0.6594
 6987TIP3   OH242375   3.833   2.043   0.162  0.2007  0.2184  0.1581
 6987TIP3    H142376   3.869   1.976   0.220 -0.0975 -0.4364 -0.4027
 6987TIP3    H242377   3.794   2.107   0.222  0.3759 -0.1658  0.6985
 6988TIP3   OH242378   1.481   0.882  16.811  0.2323 -0.6696  0.0599
 6988TIP3    H142379   1.406   0.938  16.792  0.5455 -0.0077  0.7334
 6988TIP3    H242380   1.551   0.916  16.754  0.0094 -1.3517 -0.6455
 6989TIP3   OH242381   1.838   0.187   3.855  0.3476  0.2094  0.0545
 6989TIP3    H142382   1.815   0.136   3.777  0.3367 -0.8627  0.7380
 6989TIP3    H242383   1.863   0.273   3.821  0.2180 -0.1984 -1.1191
 6990TIP3   OH242384   6.416   0.195  11.635  0.2776  0.8241 -0.9893
 6990TIP3    H142385   6.333   0.164  11.598  0.0420  1.1307 -0.7161
 6990TIP3    H242386   6.479   0.127  11.611 -0.4188 -0.3690  0.3994
 6991TIP3   OH242387   5.714   6.490   0.017  0.1732  0.0588 -0.8843
 6991TIP3    H142388   5.758   6.523  -0.061 -0.1303  0.4589 -0.8878
 6991TIP3    H242389   5.785   6.474   0.079  0.4919 -1.0236 -1.5116
 6992TIP3   OH242390   3.092   1.159   1.426 -0.7490 -1.1228 -0.0113
 6992TIP3    H142391   3.011   1.191   1.387 -0.1660  0.7398  0.1776
 6992TIP3    H242392   3.066   1.127   1.512 -0.9405  2.5604  1.4819
 6993TIP3   OH242393   4.753   1.762  16.881  0.1716 -0.2901  0.1439
 6993TIP3    H142394   4.771   1.744  16.789 -0.4213 -0.6743  0.0989
 6993TIP3    H242395   4.657   1.771  16.885  0.2811  0.8700  0.5183
 6994TIP3   OH242396   3.803   1.570  14.981  0.4981  0.2784  0.2288
 6994TIP3    H142397   3.780   1.651  14.935 -0.2893 -0.1466 -0.1419
 6994TIP3    H242398   3.789   1.501  14.916 -0.5017 -0.3202  1.0636
 6995TIP3   OH242399   1.649   5.772   5.248  0.2347 -0.2324 -0.1447
 6995TIP3    H142400   1.595   5.767   5.170 -0.6945  0.2443  0.4558
 6995TIP3    H242401   1.625   5.695   5.299 -0.3244  0.2982  0.4006
 6996TIP3   OH242402   3.284   5.633  12.510  0.5034 -0.1136  0.3144
 6996TIP3    H142403   3.268   5.584  12.590  0.5493  0.7520  0.8672
 6996TIP3    H242404   3.228   5.592  12.444  1.4672 -1.7045  0.4234
 6997TIP3   OH242405   1.879   2.321   5.751  0.1856  0.0315 -0.8127
 6997TIP3    H142406   1.835   2.249   5.706 -0.3495  0.3101 -0.7416
 6997TIP3    H242407   1.823   2.397   5.735  1.8668  0.9471 -2.7710
 6998TIP3   OH242408   1.149   6.653  13.103 -0.1099 -0.0232  0.0792
 6998TIP3    H142409   1.129   6.648  13.197 -1.0737  1.4594 -0.0103
 6998TIP3    H242410   1.066   6.633  13.060  0.6866 -2.2727 -0.5419
 6999TIP3   OH242411   6.552   6.105  15.326 -0.7848 -0.2479  0.4484
 6999TIP3    H142412   6.632   6.083  15.277 -0.3862  0.9839  0.5075
 6999TIP3    H242413   6.511   6.175  15.274 -0.0583  1.5003  2.1052
 7000TIP3   OH242414   2.618   2.486  10.856 -0.6129  0.4812 -0.2610
 7000TIP3    H142415   2.540   2.459  10.807 -0.4560  1.6225 -1.1782
 7000TIP3    H242416   2.647   2.566  10.812  0.3174  0.7952  0.8937
 7001TIP3   OH242417   5.609   3.488   2.388  0.2299 -0.1669 -0.1896
 7001TIP3    H142418   5.678   3.499   2.323  0.2829 -0.5486 -0.2035
 7001TIP3    H242419   5.557   3.568   2.382  0.1039 -0.2945 -0.8605
 7002TIP3   OH242420   4.995   0.080  15.372  0.1220 -0.3092  0.0974
 7002TIP3    H142421   4.991   0.125  15.287 -1.1439 -0.5303  0.0254
 7002TIP3    H242422   5.077   0.032  15.369  1.0895  1.2640 -0.1844
 7003TIP3   OH242423   5.067   2.341   2.810  0.6282 -0.3112 -0.3293
 7003TIP3    H142424   5.014   2.285   2.754 -2.2244  0.9822  0.8694
 7003TIP3    H242425   5.157   2.318   2.789 -0.3484 -2.1475 -3.0386
 7004TIP3   OH242426   6.263   2.011  12.574 -0.0121 -0.5056  0.4249
 7004TIP3    H142427   6.182   1.973  12.608 -0.8647  0.5906 -0.2935
 7004TIP3    H242428   6.284   2.082  12.635  0.9921 -1.4268  1.1807
 7005TIP3   OH242429   0.904   4.273  11.152  0.4591  0.4462  0.8999
 7005TIP3    H142430   0.963   4.232  11.088 -0.6905  0.2605 -0.0803
 7005TIP3    H242431   0.946   4.356  11.173  0.7059  0.6772 -0.3880
 7006TIP3   OH242432   4.097   6.508   0.344  0.0924 -0.5130 -0.0066
 7006TIP3    H142433   4.139   6.430   0.306 -0.6683 -0.7586 -0.3750
 7006TIP3    H242434   4.142   6.522   0.427  0.8332 -0.8192 -0.3467
 7007TIP3   OH242435   0.211   5.915  17.210 -0.1590 -0.4449 -0.3206
 7007TIP3    H142436   0.185   6.003  17.181  1.9112  0.9875  1.7521
 7007TIP3    H242437   0.161   5.855  17.154 -2.7683  2.0077 -0.8551
 7008TIP3   OH242438   1.492   5.938  15.856  0.4471  0.8969  0.3322
 7008TIP3    H142439   1.411   5.914  15.811  0.6188  0.9713 -0.0218
 7008TIP3    H242440   1.559   5.883  15.816  0.5251  0.6261  0.8279
 7009TIP3   OH242441   1.313   4.205   4.684 -0.0622  0.2084 -0.2306
 7009TIP3    H142442   1.236   4.199   4.741 -1.6352 -0.8601 -2.3117
 7009TIP3    H242443   1.312   4.296   4.654  0.3219  0.5687  0.8195
 7010TIP3   OH242444   0.192   0.183  17.092  0.2874  0.1712 -0.3591
 7010TIP3    H142445   0.121   0.242  17.117 -0.0230 -0.0386 -0.7275
 7010TIP3    H242446   0.235   0.227  17.019  0.7690  0.4683  0.0996
 7011TIP3   OH242447   2.108   0.376   4.027  0.2562 -0.3420  0.6425
 7011TIP3    H142448   2.125   0.356   4.119  2.1541 -2.1686 -0.0459
 7011TIP3    H242449   2.142   0.301   3.979  0.3909  1.0928 -1.6504
 7012TIP3   OH242450   6.156   0.066   2.546  0.0337  0.0206  0.1533
 7012TIP3    H142451   6.113   0.146   2.519 -0.9272 -0.4655  0.2074
 7012TIP3    H242452   6.091   0.020   2.600  1.0347 -0.1662  1.2478
 7013TIP3   OH242453   0.297   6.228   2.143 -0.4529  0.0618 -0.1050
 7013TIP3    H142454   0.206   6.247   2.165 -0.9176 -2.1506  0.1294
 7013TIP3    H242455   0.316   6.285   2.068 -1.6379  1.3559  0.5233
 7014TIP3   OH242456   0.731   6.765  15.109 -0.3520  0.2016 -1.1307
 7014TIP3    H142457   0.637   6.782  15.120 -0.1391  0.5380  0.3401
 7014TIP3    H242458   0.743   6.676  15.140  0.1101  0.8257  0.5639
 7015TIP3   OH242459   6.278   6.635   2.980  0.0933  0.0332  0.2426
 7015TIP3    H142460   6.210   6.596   3.034 -1.3783  1.0059 -0.8256
 7015TIP3    H242461   6.246   6.626   2.890  0.7604  1.6136 -0.2009
 7016TIP3   OH242462   1.617   0.441   4.823 -0.3208 -0.1219 -0.4908
 7016TIP3    H142463   1.616   0.473   4.913 -0.3228  1.8924 -1.1696
 7016TIP3    H242464   1.710   0.433   4.802 -0.2245 -3.4022  0.5470
 7017TIP3   OH242465   5.773   3.158  10.987 -0.5052  0.0795 -0.5505
 7017TIP3    H142466   5.720   3.096  10.937 -0.6695 -0.6161  0.4567
 7017TIP3    H242467   5.718   3.235  10.997 -0.6827  0.0064 -0.9472
 7018TIP3   OH242468   4.726   6.546   1.688 -0.0174  0.0393  0.4850
 7018TIP3    H142469   4.752   6.469   1.637  1.9380  0.7142  0.3626
 7018TIP3    H242470   4.667   6.595   1.630 -0.2529 -0.7156  0.0762
 7019TIP3   OH242471   6.054   5.818   5.383 -0.0687 -0.0485 -0.0746
 7019TIP3    H142472   6.100   5.803   5.300 -1.9019  0.3955 -1.2143
 7019TIP3    H242473   6.114   5.783   5.450  0.9455 -1.4872 -1.6577
 7020TIP3   OH242474   4.303   2.539  13.268  0.0100  0.3270 -0.0637
 7020TIP3    H142475   4.332   2.488  13.344 -0.1262  1.1567  0.5545
 7020TIP3    H242476   4.265   2.474  13.209 -0.5194 -0.2367  0.8819
 7021TIP3   OH242477   3.378   1.818   4.065  0.1463  0.1760  0.4614
 7021TIP3    H142478   3.441   1.832   3.994 -1.4423  0.8809 -0.8809
 7021TIP3    H242479   3.430   1.823   4.145  2.0607 -1.0093 -0.6485
 7022TIP3   OH242480   4.587   3.877   4.686 -0.1333  0.5958 -0.5933
 7022TIP3    H142481   4.626   3.860   4.600 -0.4996 -1.3369 -0.4298
 7022TIP3    H242482   4.662   3.888   4.745  0.3827 -3.3189 -0.2355
 7023TIP3   OH242483   1.108   5.839   0.670 -0.0663  0.0081  0.0486
 7023TIP3    H142484   1.064   5.853   0.754  1.3503 -0.8101  0.9506
 7023TIP3    H242485   1.055   5.889   0.608  0.9704  3.9100  1.9697
 7024TIP3   OH242486   6.625   5.042   4.320  0.2697  0.6848 -0.3858
 7024TIP3    H142487   6.712   5.079   4.302  1.1022 -1.4453 -1.0652
 7024TIP3    H242488   6.619   5.041   4.415  0.7931  1.2806 -0.3404
 7025TIP3   OH242489   6.707   0.084  11.724  0.4827 -0.2418 -0.2564
 7025TIP3    H142490   6.749   0.100  11.640  0.1644 -1.0563 -0.5879
 7025TIP3    H242491   6.745   0.148  11.783 -0.3926  1.3558 -1.3611
 7026TIP3   OH242492   4.942   0.175  14.488 -0.3587 -0.5307  0.3479
 7026TIP3    H142493   4.919   0.255  14.536  0.3254 -0.0239 -0.1436
 7026TIP3    H242494   4.864   0.154  14.436 -0.2333  0.3347 -0.2032
 7027TIP3   OH242495   1.819   5.877   4.703  0.1635 -0.1449 -0.0211
 7027TIP3    H142496   1.781   5.948   4.755  0.5616 -1.0106  1.5265
 7027TIP3    H242497   1.821   5.803   4.764 -0.2650 -1.4935 -1.5982
 7028TIP3   OH242498   6.550   3.493   0.387  0.4341  0.3054 -0.2234
 7028TIP3    H142499   6.541   3.433   0.461 -0.7730  1.0763  0.2980
 7028TIP3    H242500   6.546   3.437   0.310  1.0697 -0.4491  0.2802
 7029TIP3   OH242501   6.435   6.480   6.458  0.3425 -0.3668 -0.1234
 7029TIP3    H142502   6.433   6.450   6.549 -1.8410  1.3551  0.4813
 7029TIP3    H242503   6.380   6.418   6.411  0.1179 -0.3021  0.0554
 7030TIP3   OH242504   0.722   4.218   4.053 -0.3112 -0.6759 -0.2298
 7030TIP3    H142505   0.771   4.300   4.062  1.3306 -1.2472 -2.7274
 7030TIP3    H242506   0.651   4.225   4.116 -0.0087  2.4906 -0.0716
 7031TIP3   OH242507   3.194   4.580  14.672  0.4789  0.1748  0.4637
 7031TIP3    H142508   3.232   4.632  14.743  0.6211 -1.1295  1.3848
 7031TIP3    H242509   3.177   4.643  14.602  2.7548  1.0969  0.6621
 7032TIP3   OH242510   3.732   3.690   5.056 -0.3441  0.7532 -0.1453
 7032TIP3    H142511   3.698   3.607   5.023  1.1049  0.2607 -0.4360
 7032TIP3    H242512   3.768   3.668   5.142 -0.0790  1.1024 -0.1671
 7033TIP3   OH242513   0.361   1.959   4.157 -0.2940  0.6536 -0.6296
 7033TIP3    H142514   0.332   1.928   4.071 -0.5737  0.4340 -0.4614
 7033TIP3    H242515   0.432   2.020   4.138  0.7756 -0.6369 -0.9460
 7034TIP3   OH242516   5.763   5.451   4.102 -0.1192  0.2678 -0.4239
 7034TIP3    H142517   5.838   5.401   4.071 -1.3646 -1.5596 -0.6143
 7034TIP3    H242518   5.777   5.460   4.196 -0.9872 -2.5565  0.0575
 7035TIP3   OH242519   0.168   5.873   5.173  0.1298 -0.6187  0.0348
 7035TIP3    H142520   0.102   5.910   5.231 -0.6942 -0.6448 -0.8514
 7035TIP3    H242521   0.252   5.896   5.212 -0.3464 -2.7816  2.6092
 7036TIP3   OH242522   4.740   0.001  12.171 -0.2655  0.0140  0.2423
 7036TIP3    H142523   4.830  -0.014  12.199  0.3902  1.1769 -1.0972
 7036TIP3    H242524   4.699   0.046  12.245  1.1475  2.1723 -0.1844
 7037TIP3   OH242525   5.075   4.239   0.580 -0.1591  0.4409 -0.2079
 7037TIP3    H142526   5.082   4.237   0.485 -0.4226 -1.8687 -0.2206
 7037TIP3    H242527   5.112   4.155   0.609  1.1333  1.6161  1.8305
 7038TIP3   OH242528   3.728   3.921   1.401  0.7075  0.2203 -0.2628
 7038TIP3    H142529   3.702   3.877   1.482 -1.5095  0.5543 -0.7458
 7038TIP3    H242530   3.781   3.855   1.355 -1.3941 -1.5205 -0.3585
 7039TIP3   OH242531   0.014   1.541  13.019  0.1349 -0.1950  0.3706
 7039TIP3    H142532  -0.029   1.618  13.054 -0.2095 -0.5231  0.6752
 7039TIP3    H242533   0.022   1.558  12.925 -0.9950 -0.2862  0.2495
 7040TIP3   OH242534   2.108   5.194  14.348  0.6019 -0.0234  0.2230
 7040TIP3    H142535   2.028   5.167  14.303  0.7055 -0.4939  0.3068
 7040TIP3    H242536   2.160   5.113  14.354  2.0929  0.7038 -1.8490
 7041TIP3   OH242537   3.892   0.151   2.784  0.5416  0.1576 -0.2070
 7041TIP3    H142538   3.827   0.187   2.723 -0.5284  2.2615  1.9679
 7041TIP3    H242539   3.976   0.182   2.751  0.1709 -0.1578 -1.4873
 7042TIP3   OH242540   6.360   0.364   4.398 -0.2684 -0.0176  0.0279
 7042TIP3    H142541   6.343   0.453   4.364  0.7582  0.4179  0.6214
 7042TIP3    H242542   6.277   0.318   4.385 -1.2147  1.3708  0.7926
 7043TIP3   OH242543   1.334   1.950  15.048  0.0195 -0.1677 -0.0055
 7043TIP3    H142544   1.300   2.029  15.006 -0.0006  1.2710  2.5588
 7043TIP3    H242545   1.428   1.952  15.028  0.0438  0.5975  0.1479
 7044TIP3   OH242546   2.960   2.268  13.951  0.2836  0.5178  0.1200
 7044TIP3    H142547   3.023   2.243  14.019 -0.6671  2.4874  1.8376
 7044TIP3    H242548   2.916   2.345  13.987 -1.3296  0.7240 -2.1265
 7045TIP3   OH242549   2.530   0.327   4.249 -0.0166 -0.5277  0.3485
 7045TIP3    H142550   2.555   0.262   4.315  0.1408 -0.7033  0.1183
 7045TIP3    H242551   2.493   0.275   4.177 -1.5478 -0.2527  0.8915
 7046TIP3   OH242552   5.198   4.656  16.928 -0.6519  0.4336  0.0152
 7046TIP3    H142553   5.216   4.726  16.866 -0.6563 -0.2332 -0.7510
 7046TIP3    H242554   5.248   4.679  17.006 -0.1000  0.9310 -0.4796
 7047TIP3   OH242555   4.410   2.406  11.310  0.3786 -0.4204  0.3353
 7047TIP3    H142556   4.383   2.417  11.219  0.4879 -1.5960  0.1538
 7047TIP3    H242557   4.506   2.405  11.307  0.5040 -4.6058 -0.1530
 7048TIP3   OH242558   5.967   6.053  10.870  0.0018 -0.2872 -0.2308
 7048TIP3    H142559   5.989   6.112  10.798  1.4965 -0.8504 -0.2788
 7048TIP3    H242560   6.051   6.015  10.896 -0.7463 -1.3925  0.6798
 7049TIP3   OH242561   5.257   6.237   6.085 -0.5884 -0.4768  0.5337
 7049TIP3    H142562   5.250   6.326   6.049 -2.3199 -1.0697 -0.7495
 7049TIP3    H242563   5.189   6.233   6.152  0.2741 -0.4971  1.4308
 7050TIP3   OH242564   6.392   2.916   1.506  0.1745  0.3161  0.8629
 7050TIP3    H142565   6.484   2.931   1.528  0.2074  2.1433 -0.2466
 7050TIP3    H242566   6.387   2.931   1.411 -0.8189 -2.3766  0.3991
 7051TIP3   OH242567   4.593   1.352   1.041 -0.2629 -0.0606 -0.3976
 7051TIP3    H142568   4.642   1.284   1.087 -0.6352  1.5975  2.7394
 7051TIP3    H242569   4.637   1.433   1.065 -2.6785  1.2083  0.0448
 7052TIP3   OH242570   2.194   5.560  16.758 -0.4659  0.0355  0.0657
 7052TIP3    H142571   2.126   5.495  16.777 -0.2287 -0.2556 -0.0822
 7052TIP3    H242572   2.151   5.621  16.697 -0.5509 -0.2291 -0.1430
 7053TIP3   OH242573   4.984   1.235  15.760  0.2226 -0.1511 -0.3517
 7053TIP3    H142574   5.002   1.221  15.853  0.1006  0.4724 -0.2269
 7053TIP3    H242575   5.070   1.231  15.718  0.3636  0.2692 -0.1119
 7054TIP3   OH242576   2.043   1.781  11.576  0.2573  0.7026  0.1053
 7054TIP3    H142577   2.126   1.828  11.565 -0.9737  3.4098  1.5066
 7054TIP3    H242578   2.056   1.728  11.655  0.6005  1.2437  0.4164
 7055TIP3   OH242579   5.224   5.297  14.095  0.4709 -0.2413  0.3604
 7055TIP3    H142580   5.143   5.275  14.048  2.0889 -1.7988 -1.9285
 7055TIP3    H242581   5.236   5.391  14.081 -0.0482 -0.3345 -0.7658
 7056TIP3   OH242582   0.392   6.490  11.985 -0.9280 -0.3418 -0.1402
 7056TIP3    H142583   0.354   6.572  12.016 -0.5118  0.1005 -0.7751
 7056TIP3    H242584   0.467   6.517  11.932  0.0192 -1.1846  0.7261
 7057TIP3   OH242585   6.286   3.527   3.189  0.3057 -0.2940 -0.1748
 7057TIP3    H142586   6.234   3.524   3.269 -1.0834  1.3707 -0.9368
 7057TIP3    H242587   6.290   3.620   3.166  0.7801 -0.7106 -1.9615
 7058TIP3   OH242588   3.651   3.101   5.009  0.0309  0.2871 -0.3998
 7058TIP3    H142589   3.664   3.163   5.081  1.7425  1.1048 -1.3532
 7058TIP3    H242590   3.641   3.016   5.052  1.6984  0.6553  0.7997
 7059TIP3   OH242591   5.139   2.234   5.818 -0.1876  0.7743 -0.0014
 7059TIP3    H142592   5.210   2.177   5.847 -1.5302 -0.6730  0.5914
 7059TIP3    H242593   5.168   2.266   5.732  1.9265  1.6641  0.9713
 7060TIP3   OH242594   1.455   5.311  13.342  0.4853 -0.0461  0.4714
 7060TIP3    H142595   1.382   5.352  13.387 -0.0719 -1.1334  0.5933
 7060TIP3    H242596   1.517   5.382  13.326 -1.6045  1.4285 -1.7608
 7061TIP3   OH242597   0.150   3.502   2.370  0.0222  0.4946  0.4506
 7061TIP3    H142598   0.130   3.564   2.300 -1.3280 -1.6286 -1.1720
 7061TIP3    H242599   0.067   3.492   2.417 -0.2074 -1.2052 -0.2778
 7062TIP3   OH242600   1.927   4.801  11.946  0.1664 -0.5022  0.5796
 7062TIP3    H142601   1.886   4.741  11.883  1.4684 -0.9994  0.1790
 7062TIP3    H242602   1.945   4.746  12.022  0.0558 -0.2720  0.7716
 7063TIP3   OH242603   2.622   4.687  15.217  0.0100 -0.1129 -0.0220
 7063TIP3    H142604   2.619   4.599  15.256 -1.1812  0.3782  1.0180
 7063TIP3    H242605   2.640   4.670  15.124 -1.5602 -1.5473 -0.1156
 7064TIP3   OH242606   2.430   3.644  13.219 -0.0310  0.0378  0.1970
 7064TIP3    H142607   2.462   3.557  13.194 -0.0522 -0.4706  1.8507
 7064TIP3    H242608   2.337   3.631  13.238  0.0018  0.3912  0.6051
 7065TIP3   OH242609   5.957   3.899   5.354 -0.3388  0.4698  0.7872
 7065TIP3    H142610   6.031   3.942   5.397  0.2823  0.5268 -0.3024
 7065TIP3    H242611   5.958   3.932   5.264 -1.9897  0.8396  0.8673
 7066TIP3   OH242612   0.170   6.079  16.777 -0.1950 -0.0124 -0.2582
 7066TIP3    H142613   0.204   6.079  16.687 -2.2783  1.7649 -1.1615
 7066TIP3    H242614   0.224   6.016  16.823  3.0585  1.2525 -1.9522
 7067TIP3   OH242615   1.246   3.832   2.393  0.3040  0.3940  0.4639
 7067TIP3    H142616   1.201   3.789   2.320  1.3295 -0.0995  0.1108
 7067TIP3    H242617   1.335   3.846   2.362  0.6523  0.5120  1.4921
 7068TIP3   OH242618   5.285   2.461  15.029 -0.2242  0.5277  0.2454
 7068TIP3    H142619   5.363   2.415  14.998 -0.6734  0.7742 -1.3611
 7068TIP3    H242620   5.219   2.444  14.962 -1.9037 -0.5604  2.0937
 7069TIP3   OH242621   1.145   4.774   0.544 -0.4126  0.1103 -0.0121
 7069TIP3    H142622   1.071   4.779   0.484  0.0069 -0.0388 -0.5549
 7069TIP3    H242623   1.166   4.680   0.548  1.2394  0.3313 -1.7598
 7070TIP3   OH242624   4.176   3.001  14.527  0.4869  0.7254  0.0745
 7070TIP3    H142625   4.091   2.996  14.484 -0.0667  1.2132  1.0893
 7070TIP3    H242626   4.240   2.990  14.455 -0.4142 -0.6009 -0.5702
 7071TIP3   OH242627   0.441   1.136  14.858 -0.0563  0.3791 -0.0795
 7071TIP3    H142628   0.484   1.054  14.881  1.2566  1.0446 -0.1193
 7071TIP3    H242629   0.348   1.114  14.856  0.3550 -1.4590 -1.4555
 7072TIP3   OH242630   1.289   4.644  10.928 -0.0380  0.2222  0.1713
 7072TIP3    H142631   1.349   4.608  10.862  0.8388  1.0192  0.5173
 7072TIP3    H242632   1.237   4.709  10.880 -1.1058 -0.9098 -0.2787
 7073TIP3   OH242633   0.046   3.108   4.705  0.3402 -0.2255  0.3949
 7073TIP3    H142634   0.122   3.135   4.756  1.0081 -0.3048 -0.5221
 7073TIP3    H242635   0.025   3.185   4.652  0.9157 -0.7760 -0.6647
 7074TIP3   OH242636   6.274   1.220  11.117 -0.2400 -0.6024  0.2783
 7074TIP3    H142637   6.359   1.187  11.148 -0.6183 -1.0246  0.9107
 7074TIP3    H242638   6.291   1.251  11.028  1.1350  1.6570  1.2615
 7075TIP3   OH242639   0.025   4.738  15.125  0.2258  0.5240 -0.2854
 7075TIP3    H142640  -0.050   4.728  15.183  0.8104  0.5830  0.4976
 7075TIP3    H242641   0.011   4.822  15.081 -0.5306  0.1878 -0.7031
 7076TIP3   OH242642   4.331   0.973  15.178  0.7818 -0.7415  0.2626
 7076TIP3    H142643   4.315   0.879  15.165  0.1476 -0.8439  1.6601
 7076TIP3    H242644   4.409   0.976  15.234  2.0288 -0.3563 -1.3951
 7077TIP3   OH242645   0.048   5.262   2.347  0.3094  0.3829  0.1548
 7077TIP3    H142646  -0.032   5.213   2.363 -0.4916  1.3898 -0.6159
 7077TIP3    H242647   0.083   5.224   2.266  0.0091  0.6782 -0.1162
 7078TIP3   OH242648   1.274   4.079  13.955  0.1162 -0.6152  0.5788
 7078TIP3    H142649   1.268   4.131  14.035 -0.4015 -1.3303  1.0167
 7078TIP3    H242650   1.193   4.029  13.952  0.7829 -1.7361  0.4147
 7079TIP3   OH242651   2.377   5.042  13.895  0.5058 -0.7783 -0.7686
 7079TIP3    H142652   2.375   4.950  13.870  0.9523 -0.8273 -0.6323
 7079TIP3    H242653   2.470   5.063  13.902  0.4156 -0.9340  1.4819
 7080TIP3   OH242654   0.828   2.396   2.263 -0.1831 -0.0800 -0.1171
 7080TIP3    H142655   0.737   2.425   2.256 -0.3707 -0.5020  0.5151
 7080TIP3    H242656   0.857   2.387   2.172 -0.4569  1.0164 -0.3273
 7081TIP3   OH242657   4.560   6.369  17.138  0.0010  0.6079 -0.1586
 7081TIP3    H142658   4.489   6.305  17.131 -3.1159  3.6753  0.1095
 7081TIP3    H242659   4.562   6.391  17.232 -0.1314  1.9790 -0.4566
 7082TIP3   OH242660   0.145   1.881  12.227 -0.2539 -0.0017  0.6551
 7082TIP3    H142661   0.078   1.919  12.283  0.2294  1.1849  0.4537
 7082TIP3    H242662   0.119   1.789  12.218 -0.7916 -0.0277  2.1290
 7083TIP3   OH242663   3.797   0.920  12.906  0.3468  0.1108  0.7293
 7083TIP3    H142664   3.842   0.962  12.833 -1.5045 -0.1455 -0.6340
 7083TIP3    H242665   3.867   0.892  12.965  1.9521 -0.1596 -1.2089
 7084TIP3   OH242666   5.895   3.138  11.244 -0.0327 -0.1204  0.1860
 7084TIP3    H142667   5.848   3.056  11.231  0.5657 -0.5415  0.6464
 7084TIP3    H242668   5.852   3.200  11.185  0.1749 -1.0241 -0.9486
 7085TIP3   OH242669   0.594   6.158  14.797  0.4437 -0.1886  0.1554
 7085TIP3    H142670   0.565   6.148  14.888 -0.3520  1.3431  0.1038
 7085TIP3    H242671   0.528   6.114  14.745  0.4527 -0.3417  0.2732
 7086TIP3   OH242672   4.894   6.100  16.832  0.3024  0.8489  0.0854
 7086TIP3    H142673   4.845   6.160  16.888 -0.9413 -0.8562  0.9237
 7086TIP3    H242674   4.913   6.151  16.754 -0.9851  2.2362  0.6129
 7087TIP3   OH242675   2.244   4.308  12.900 -0.2318  0.0581 -0.1871
 7087TIP3    H142676   2.322   4.256  12.918  0.3235  0.8726 -0.1609
 7087TIP3    H242677   2.256   4.387  12.953  0.4958  1.6296 -2.5338
 7088TIP3   OH242678   2.608   4.919   4.672 -0.2919  0.6014 -0.0406
 7088TIP3    H142679   2.635   5.001   4.630 -0.1545  0.7177  0.2698
 7088TIP3    H242680   2.547   4.946   4.741  0.8038  0.5750  0.9731
 7089TIP3   OH242681   3.806   0.351   1.665 -0.2405 -0.1991 -0.4187
 7089TIP3    H142682   3.890   0.343   1.619 -0.0667 -0.4835 -0.0554
 7089TIP3    H242683   3.815   0.432   1.715 -1.3296  1.4555 -2.7107
 7090TIP3   OH242684   6.744   6.705  16.420 -0.0145  0.2470  0.2277
 7090TIP3    H142685   6.731   6.630  16.478 -0.0284  0.9868  1.2078
 7090TIP3    H242686   6.656   6.743  16.410 -0.3553 -0.9472 -1.8263
 7091TIP3   OH242687   5.537   3.703   1.306 -0.2921 -0.0410  0.6125
 7091TIP3    H142688   5.594   3.752   1.248  2.2069 -0.4805  2.5292
 7091TIP3    H242689   5.557   3.611   1.289  0.1647 -0.1878  1.7957
 7092TIP3   OH242690   5.482   3.381  14.759  0.5263 -0.2298 -0.2663
 7092TIP3    H142691   5.577   3.380  14.747  0.5731  2.5839 -0.6851
 7092TIP3    H242692   5.469   3.427  14.842 -0.4698 -1.5043  0.3121
 7093TIP3   OH242693   4.033   0.375  14.849 -0.0455 -0.3551  0.3450
 7093TIP3    H142694   4.004   0.429  14.776  0.4326 -0.2256  0.2465
 7093TIP3    H242695   4.001   0.287  14.827  0.4706 -0.4053 -0.2452
 7094TIP3   OH242696   3.769   4.302   2.369 -0.2641 -0.6303 -0.7950
 7094TIP3    H142697   3.682   4.278   2.340 -0.6577  0.9686 -1.0261
 7094TIP3    H242698   3.764   4.396   2.385  0.9692 -0.7971  0.7958
 7095TIP3   OH242699   2.824   1.102  16.008 -0.0253 -0.4335  0.6317
 7095TIP3    H142700   2.825   1.008  15.992  1.5401 -0.2157 -0.9671
 7095TIP3    H242701   2.853   1.141  15.925  0.5877  1.3787  1.6222
 7096TIP3   OH242702   2.517   1.364  14.435 -0.5184 -0.0029  0.1639
 7096TIP3    H142703   2.432   1.320  14.441 -0.3164 -0.3254  0.7139
 7096TIP3    H242704   2.544   1.350  14.344 -1.7447  1.4237 -0.4723
 7097TIP3   OH242705   4.915   4.563   3.181 -0.0511 -0.8397  0.3005
 7097TIP3    H142706   4.871   4.503   3.121 -1.8230  0.7564 -0.1134
 7097TIP3    H242707   4.879   4.542   3.267 -0.0479 -0.9442  0.2755
 7098TIP3   OH242708   4.702   2.822   0.004 -0.1536 -0.2484 -0.1800
 7098TIP3    H142709   4.681   2.742  -0.045 -0.3349 -0.5897  0.4308
 7098TIP3    H242710   4.720   2.888  -0.063  2.2022 -1.3457 -0.7301
 7099TIP3   OH242711   2.986   1.165   0.304  0.5010  0.3284 -0.3672
 7099TIP3    H142712   2.983   1.153   0.399  2.2208 -1.1277 -0.4260
 7099TIP3    H242713   2.899   1.196   0.280 -0.4303 -0.6456  1.5218
 7100TIP3   OH242714   5.769   5.724   1.505  0.2720  0.1814 -0.8195
 7100TIP3    H142715   5.778   5.644   1.453  1.3674  0.1972 -0.6814
 7100TIP3    H242716   5.842   5.779   1.477 -0.1244  0.8957 -0.4880
 7101TIP3   OH242717   2.311   1.285   1.208 -0.4535  0.2978 -0.3413
 7101TIP3    H142718   2.315   1.191   1.188  1.3562  0.3385 -0.3603
 7101TIP3    H242719   2.218   1.307   1.201 -0.9746 -1.5611  0.0171
 7102TIP3   OH242720   6.025   1.477  13.875  0.0666  0.4500 -0.2308
 7102TIP3    H142721   6.039   1.474  13.970 -0.9942 -0.5650 -0.0835
 7102TIP3    H242722   6.100   1.428  13.838 -0.1846 -0.2566  0.1759
 7103TIP3   OH242723   5.773   4.362   3.914 -0.1812  0.6760 -0.2123
 7103TIP3    H142724   5.789   4.287   3.857 -2.1012  0.4364 -0.5009
 7103TIP3    H242725   5.849   4.419   3.901  1.3942 -1.2398  0.1106
 7104TIP3   OH242726   6.420   6.693   5.113  0.3158 -0.2879 -0.2758
 7104TIP3    H142727   6.411   6.604   5.146  0.2045 -0.3265 -0.4113
 7104TIP3    H242728   6.338   6.711   5.068 -0.2938  0.4317  1.0447
 7105TIP3   OH242729   0.780   4.404   3.452  0.0366  0.0999 -0.9585
 7105TIP3    H142730   0.742   4.450   3.377 -0.2822  0.1979 -0.7402
 7105TIP3    H242731   0.705   4.384   3.508  0.0532 -1.3755 -1.4192
 7106TIP3   OH242732   3.167   5.730  15.452  0.2558  0.1552 -0.3463
 7106TIP3    H142733   3.126   5.736  15.538  1.9066  2.9241  0.3642
 7106TIP3    H242734   3.244   5.786  15.457  1.3216 -0.8333 -3.1738
 7107TIP3   OH242735   0.706   1.844   6.072 -0.0900 -0.2152 -0.1771
 7107TIP3    H142736   0.768   1.900   6.119  1.4831 -1.9024 -0.1683
 7107TIP3    H242737   0.626   1.848   6.126 -0.2794  2.4447 -0.4940
 7108TIP3   OH242738   3.937   6.548  12.233  0.0147 -0.8483 -0.5459
 7108TIP3    H142739   3.988   6.626  12.212 -2.0544  0.4975 -0.9479
 7108TIP3    H242740   3.968   6.522  12.320  1.8504 -0.5604 -1.0795
 7109TIP3   OH242741   2.097   3.829   2.023  0.3643  0.6784 -0.1045
 7109TIP3    H142742   2.028   3.895   2.014  0.4934  0.9989  1.1080
 7109TIP3    H242743   2.077   3.783   2.104 -0.4108 -1.6340 -1.4991
 7110TIP3   OH242744   0.193   4.025   4.862 -0.0506  1.0297 -0.3359
 7110TIP3    H142745   0.231   3.975   4.934  0.0909  0.7971 -0.5729
 7110TIP3    H242746   0.255   4.016   4.790  0.0728  1.7079 -0.3218
 7111TIP3   OH242747   1.643   5.678   5.998  0.4310 -0.2421  0.3591
 7111TIP3    H142748   1.582   5.742   6.034  1.3175  1.4998 -1.0665
 7111TIP3    H242749   1.728   5.702   6.035  0.7270 -0.8446  0.0909
 7112TIP3   OH242750   6.224   5.322  16.265 -0.2021  0.2811  0.0862
 7112TIP3    H142751   6.211   5.397  16.207 -0.5658  0.7184  0.7141
 7112TIP3    H242752   6.151   5.264  16.246  0.4183 -0.2165 -0.8391
 7113TIP3   OH242753   3.028   4.985  13.306 -0.5693 -0.5924  0.4152
 7113TIP3    H142754   2.957   4.950  13.362 -1.0894  0.8469  0.7007
 7113TIP3    H242755   3.003   5.076  13.290  0.7764 -0.3174 -0.2457
 7114TIP3   OH242756   6.473   6.016  16.127 -0.3410 -0.3232  0.4207
 7114TIP3    H142757   6.536   6.085  16.144 -0.4019 -0.4715  1.2510
 7114TIP3    H242758   6.504   5.976  16.045  0.4896 -0.2235  0.6763
 7115TIP3   OH242759   1.795   6.398  15.547 -0.5275 -0.1399 -0.1034
 7115TIP3    H142760   1.757   6.330  15.492 -0.5291  0.0132 -0.2923
 7115TIP3    H242761   1.772   6.373  15.636  0.2328 -0.8589 -0.1038
 7116TIP3   OH242762   1.851   1.512  14.821 -0.2759 -0.3290  0.0913
 7116TIP3    H142763   1.921   1.576  14.814 -0.6489  0.0439 -0.3366
 7116TIP3    H242764   1.868   1.465  14.903  0.8559 -0.7155 -0.3466
 7117TIP3   OH242765   1.623   3.263  17.234  0.0247  0.0616 -0.1157
 7117TIP3    H142766   1.622   3.214  17.317  0.7354 -1.4727 -0.9715
 7117TIP3    H242767   1.683   3.336  17.250  3.0591 -2.2161 -0.2948
 7118TIP3   OH242768   0.068   3.023   5.582 -0.6077  0.5180 -0.6986
 7118TIP3    H142769   0.088   2.930   5.587 -0.6861  0.4569 -1.4122
 7118TIP3    H242770   0.143   3.066   5.623 -0.8566  0.1195  0.1790
 7119TIP3   OH242771   6.090   2.300   1.362 -0.3869  0.2365 -0.9892
 7119TIP3    H142772   6.051   2.363   1.423  0.4873 -0.5211  0.4053
 7119TIP3    H242773   6.048   2.318   1.278 -0.8614  2.0190 -0.4057
 7120TIP3   OH242774   3.647   3.599   2.562  0.0291 -0.0471  0.0360
 7120TIP3    H142775   3.573   3.556   2.518  1.4769 -1.4764 -1.1203
 7120TIP3    H242776   3.652   3.556   2.647 -0.7773  0.4183  0.3230
 7121TIP3   OH242777   3.803   4.630  13.694  0.5078 -0.1569  0.0447
 7121TIP3    H142778   3.721   4.644  13.741 -1.6143 -0.1777 -3.3288
 7121TIP3    H242779   3.853   4.711  13.710 -1.1032  0.8158  0.4256
 7122TIP3   OH242780   3.727   5.402   0.376 -0.1029  0.1808 -0.2957
 7122TIP3    H142781   3.709   5.441   0.462  0.7347 -0.6159  0.2536
 7122TIP3    H242782   3.819   5.378   0.379  0.5162  1.9863 -2.1649
 7123TIP3   OH242783   1.716   2.207   5.446  0.1028 -0.2239  0.3521
 7123TIP3    H142784   1.687   2.169   5.528 -1.6798 -0.1269 -0.1873
 7123TIP3    H242785   1.809   2.185   5.440 -0.5942 -3.7067  0.5052
 7124TIP3   OH242786   4.693   1.135  12.665 -0.2901  0.0006  0.5464
 7124TIP3    H142787   4.778   1.150  12.625  0.0723  0.1632  1.3442
 7124TIP3    H242788   4.642   1.091  12.597  0.8276 -1.2284  0.4424
 7125TIP3   OH242789   5.509   6.606  15.711 -0.1819  0.7147 -0.4017
 7125TIP3    H142790   5.492   6.644  15.798 -0.1399  1.9807 -0.9244
 7125TIP3    H242791   5.599   6.632  15.691 -0.2687  0.6221 -0.9196
 7126TIP3   OH242792   4.722   0.736  12.420 -0.0032  0.3037  0.2719
 7126TIP3    H142793   4.774   0.658  12.440 -3.3868 -2.4138 -0.6216
 7126TIP3    H242794   4.659   0.742  12.492 -2.1289 -0.0824 -1.4615
 7127TIP3   OH242795   5.584   6.508   6.339 -0.6000 -0.5348  0.5516
 7127TIP3    H142796   5.605   6.418   6.314 -0.8532 -0.6234  0.6482
 7127TIP3    H242797   5.655   6.534   6.397  0.1738 -0.2083 -0.5169
 7128TIP3   OH242798   2.948   0.664   0.670 -0.3877  0.2124  0.4392
 7128TIP3    H142799   2.962   0.739   0.727  0.4171 -2.2254  3.7603
 7128TIP3    H242800   2.857   0.640   0.684 -0.8828  0.9219 -1.2384
 7129TIP3   OH242801   4.965   4.473  14.508  0.0728  0.1187 -0.0227
 7129TIP3    H142802   4.952   4.387  14.468  0.9946  0.5609 -1.3370
 7129TIP3    H242803   4.882   4.518  14.496  0.2704  0.1816 -1.3602
 7130TIP3   OH242804   2.784   1.697  15.241  0.4673 -0.0989  0.1691
 7130TIP3    H142805   2.791   1.660  15.152 -1.1584  0.8489 -0.3889
 7130TIP3    H242806   2.847   1.769  15.242  0.2455  0.1048 -0.3354
 7131TIP3   OH242807   2.451   1.503  16.318  0.0324 -0.1443  0.1166
 7131TIP3    H142808   2.500   1.581  16.292 -0.0430  0.7000  2.3064
 7131TIP3    H242809   2.513   1.454  16.372  0.7443 -2.6535 -2.7112
 7132TIP3   OH242810   3.374   4.174  15.529 -0.4104 -0.3107 -0.2102
 7132TIP3    H142811   3.388   4.082  15.550 -1.1762 -0.3352  0.2544
 7132TIP3    H242812   3.330   4.173  15.444 -0.0563 -0.3515 -0.3950
 7133TIP3   OH242813   6.539   3.628  16.122 -0.2539  0.3316  0.0682
 7133TIP3    H142814   6.490   3.707  16.146 -0.2786  0.1364  0.6766
 7133TIP3    H242815   6.498   3.598  16.040  0.2180  1.3423 -0.5528
 7134TIP3   OH242816   6.638   6.813  13.713  0.5378 -0.2919 -0.6985
 7134TIP3    H142817   6.579   6.866  13.765  1.4879  1.1591 -1.0415
 7134TIP3    H242818   6.590   6.795  13.632  0.0816 -0.2623 -0.4370
 7135TIP3   OH242819   2.248   0.996   4.194 -0.3687 -0.0700 -0.3117
 7135TIP3    H142820   2.338   0.964   4.200 -0.0587  0.6507 -0.9647
 7135TIP3    H242821   2.224   1.019   4.284 -0.2881 -1.2634  0.0372
 7136TIP3   OH242822   2.927   6.804  14.707  0.5062 -0.0815 -0.2442
 7136TIP3    H142823   2.998   6.775  14.765 -1.2658 -1.2531  1.4585
 7136TIP3    H242824   2.856   6.828  14.766 -0.8792  0.1282 -1.9167
 7137TIP3   OH242825   0.451   5.545   2.979 -0.6548  0.1742 -0.0191
 7137TIP3    H142826   0.545   5.545   2.958 -0.9240 -2.2609 -1.7109
 7137TIP3    H242827   0.409   5.564   2.895 -1.7037  0.5747  0.5877
 7138TIP3   OH242828   3.785   2.121   4.081 -0.5161 -0.0765 -0.5729
 7138TIP3    H142829   3.805   2.082   4.167  0.5457  0.0636 -0.7476
 7138TIP3    H242830   3.704   2.169   4.095 -1.8656 -2.2840 -0.3296
 7139TIP3   OH242831   1.245   3.264  14.898 -0.6912 -0.3837  0.3318
 7139TIP3    H142832   1.298   3.342  14.912  0.6381 -1.2220  0.1131
 7139TIP3    H242833   1.204   3.247  14.983 -0.8137  0.4091  0.4362
 7140TIP3   OH242834   0.227   0.260  10.975 -0.3891 -0.4316 -0.1078
 7140TIP3    H142835   0.312   0.297  10.999  0.0463 -0.2255 -1.8003
 7140TIP3    H242836   0.249   0.189  10.915 -1.4312  1.3720 -2.8076
 7141TIP3   OH242837   6.584   6.393   1.810  0.0315  0.2014  0.1017
 7141TIP3    H142838   6.545   6.469   1.852  0.7073  0.3698  0.4387
 7141TIP3    H242839   6.675   6.392   1.842 -0.4546 -1.8298  1.6011
 7142TIP3   OH242840   4.452   2.868   0.950  0.3002 -0.4418 -0.0806
 7142TIP3    H142841   4.531   2.907   0.912 -1.1591  2.3253 -0.5978
 7142TIP3    H242842   4.462   2.879   1.044  0.5523 -0.1096 -0.1438
 7143TIP3   OH242843   4.166   4.506   1.825  0.7756 -0.6389 -0.2469
 7143TIP3    H142844   4.140   4.598   1.828 -0.5944 -1.0109 -0.1515
 7143TIP3    H242845   4.194   4.487   1.915  2.1440 -0.0298 -0.5299
 7144TIP3   OH242846   4.304   1.267  11.552 -0.0557  0.8245  0.6626
 7144TIP3    H142847   4.296   1.190  11.496 -0.8529  0.2314  1.5577
 7144TIP3    H242848   4.223   1.316  11.538  0.6485  1.7736 -0.2598
 7145TIP3   OH242849   4.637   3.294  13.851 -0.5918 -0.3050 -0.4486
 7145TIP3    H142850   4.596   3.377  13.874  3.3169  1.3612  1.4250
 7145TIP3    H242851   4.649   3.298  13.756  0.0958  1.6430 -0.3278
 7146TIP3   OH242852   2.503   4.549  15.714  0.0369 -0.6307 -0.1413
 7146TIP3    H142853   2.582   4.506  15.681 -0.3917 -0.9747 -0.7514
 7146TIP3    H242854   2.493   4.627  15.659 -0.3826 -0.9159 -0.4744
 7147TIP3   OH242855   0.759   3.653   2.296  0.4330 -0.0987  0.3293
 7147TIP3    H142856   0.766   3.558   2.289 -1.0135 -0.2239  0.1413
 7147TIP3    H242857   0.680   3.667   2.349 -0.6640  0.9788 -1.4786
 7148TIP3   OH242858   0.804   2.718  12.284 -0.3842 -0.0400 -0.6252
 7148TIP3    H142859   0.771   2.727  12.195 -1.0077 -0.8982 -0.4924
 7148TIP3    H242860   0.775   2.631  12.312  1.4822 -0.5985 -0.2834
 7149TIP3   OH242861   5.873   0.339  16.011 -0.2602  0.2816  0.0638
 7149TIP3    H142862   5.855   0.368  15.921  2.2205  1.2527 -0.1827
 7149TIP3    H242863   5.786   0.334  16.052 -1.5402 -0.8846 -2.5394
 7150TIP3   OH242864   4.236   0.451  14.075 -0.2795  0.1739 -0.5726
 7150TIP3    H142865   4.235   0.445  14.171  0.5609 -3.1086 -0.6615
 7150TIP3    H242866   4.322   0.418  14.050  0.2765  2.7496 -2.4831
 7151TIP3   OH242867   4.508   2.674   6.169  0.3401  0.4923  0.3326
 7151TIP3    H142868   4.452   2.741   6.209 -0.8170  0.8590 -1.7754
 7151TIP3    H242869   4.596   2.710   6.176 -0.1678  1.8699 -0.0058
 7152TIP3   OH242870   5.731   0.237  11.191 -0.3079  0.4197  0.4294
 7152TIP3    H142871   5.656   0.267  11.242 -1.1102  1.1155 -1.0946
 7152TIP3    H242872   5.693   0.199  11.112  0.8757 -0.9938  0.4990
 7153TIP3   OH242873   1.910   5.514   5.337  0.1383  0.4582 -0.4936
 7153TIP3    H142874   1.819   5.534   5.358 -0.9248 -2.4528 -1.8431
 7153TIP3    H242875   1.948   5.484   5.420 -0.1266  1.5284  0.0350
 7154TIP3   OH242876   0.263   4.580  14.104 -0.2356  0.1413  0.4353
 7154TIP3    H142877   0.294   4.671  14.103  1.3455 -0.3440  1.7952
 7154TIP3    H242878   0.168   4.587  14.115 -0.2379  1.6228 -0.2864
 7155TIP3   OH242879   5.466   4.519  14.017 -0.2863 -0.2133  0.0394
 7155TIP3    H142880   5.398   4.506  14.083  0.3637  0.1975  0.7934
 7155TIP3    H242881   5.536   4.565  14.062 -0.3168  1.1656 -1.2379
 7156TIP3   OH242882   3.873   2.367   1.563  0.4173 -0.1979 -0.0219
 7156TIP3    H142883   3.806   2.416   1.611  0.6565 -0.4333  0.5570
 7156TIP3    H242884   3.825   2.299   1.517  0.3328 -0.8725  1.0290
 7157TIP3   OH242885   2.325   5.553   0.775 -0.3167 -0.1117  0.4862
 7157TIP3    H142886   2.254   5.528   0.835 -1.0307  1.1171  0.1889
 7157TIP3    H242887   2.380   5.475   0.770 -0.5738 -0.4639  2.2529
 7158TIP3   OH242888   2.790   5.368   2.159  0.0958  0.0008 -0.2389
 7158TIP3    H142889   2.810   5.375   2.252  1.4883 -1.3159 -0.4005
 7158TIP3    H242890   2.720   5.303   2.153  1.6025 -1.6863 -0.2355
 7159TIP3   OH242891   1.863   5.862   0.367 -0.0881  0.2812 -0.0189
 7159TIP3    H142892   1.847   5.802   0.440  1.4970 -1.9784 -1.4373
 7159TIP3    H242893   1.922   5.928   0.403  0.2741 -0.5116  0.8849
 7160TIP3   OH242894   6.404   5.154  13.974 -0.2488  0.2882  0.1477
 7160TIP3    H142895   6.358   5.229  14.012 -0.6825 -0.0132  0.2316
 7160TIP3    H242896   6.457   5.119  14.046  0.1326  0.6499  0.0452
 7161TIP3   OH242897   5.750   1.234  14.351  0.2553 -0.4523 -0.1435
 7161TIP3    H142898   5.740   1.251  14.445  1.5135  1.0266 -0.2450
 7161TIP3    H242899   5.691   1.296  14.309 -0.2415 -1.0550 -0.3480
 7162TIP3   OH242900   0.905   3.795   2.777  0.1213 -0.0259  0.0567
 7162TIP3    H142901   0.856   3.875   2.793 -0.1908 -0.0097 -0.9422
 7162TIP3    H242902   0.840   3.725   2.782  0.2811 -0.1614  0.2926
 7163TIP3   OH242903   3.779   5.962  13.422  0.2081  0.0904 -0.1528
 7163TIP3    H142904   3.813   5.907  13.492  0.3915 -1.1164 -1.1406
 7163TIP3    H242905   3.817   6.048  13.438  1.0769 -0.4204  0.6418
 7164TIP3   OH242906   5.868   1.276   3.176 -0.1367  0.6234 -0.2390
 7164TIP3    H142907   5.952   1.298   3.136 -0.0137  0.0463 -0.2983
 7164TIP3    H242908   5.858   1.182   3.163 -0.1963  0.4617  0.8935
 7165TIP3   OH242909   3.705   0.649   2.292 -0.1045 -0.3248  0.0962
 7165TIP3    H142910   3.674   0.577   2.236 -0.9388  0.8222 -0.9955
 7165TIP3    H242911   3.741   0.713   2.230 -2.5557  1.7246  0.6274
 7166TIP3   OH242912   0.111   3.083  14.326  0.6446 -0.5628  0.3610
 7166TIP3    H142913   0.165   3.136  14.383 -0.9609  0.9011  0.5877
 7166TIP3    H242914   0.073   3.016  14.383  1.4106 -0.9737  0.3932
 7167TIP3   OH242915   0.218   4.320   1.886  0.0327  0.6172  0.2966
 7167TIP3    H142916   0.190   4.391   1.943  1.1861  0.1965  1.4538
 7167TIP3    H242917   0.226   4.244   1.945 -0.2658 -0.2324 -0.7248
 7168TIP3   OH242918   5.854   1.731   3.260 -0.7796 -0.1062 -0.3033
 7168TIP3    H142919   5.765   1.699   3.278 -0.7839 -1.3306 -2.2049
 7168TIP3    H242920   5.896   1.659   3.212  0.6453  1.1389 -1.0026
 7169TIP3   OH242921   2.520   4.568   3.050 -0.0666 -0.0919 -0.4943
 7169TIP3    H142922   2.582   4.563   2.978 -0.1188 -1.4783 -0.4606
 7169TIP3    H242923   2.533   4.655   3.087  0.3630  0.4235 -1.8090
 7170TIP3   OH242924   5.167   0.822  14.670 -0.5030 -0.2381 -0.4932
 7170TIP3    H142925   5.111   0.750  14.699  0.5892 -1.4687 -1.3155
 7170TIP3    H242926   5.232   0.832  14.740  0.0600 -0.8744 -0.9153
 7171TIP3   OH242927   1.691   0.731   2.469 -0.6302  0.1049  0.1997
 7171TIP3    H142928   1.666   0.801   2.530 -0.0469 -0.9095  1.6696
 7171TIP3    H242929   1.774   0.761   2.432  0.2639 -0.3141  1.7686
 7172TIP3   OH242930   0.597   0.863  15.389 -0.2641  0.2280 -0.2941
 7172TIP3    H142931   0.549   0.826  15.463 -1.0645 -0.4782 -1.1473
 7172TIP3    H242932   0.689   0.858  15.415 -0.5001 -0.4457  0.4468
 7173TIP3   OH242933   5.589   4.234  14.291  0.3382 -0.0477  0.4222
 7173TIP3    H142934   5.653   4.194  14.231 -0.1725 -0.6752  0.2884
 7173TIP3    H242935   5.609   4.196  14.376  0.0498 -0.3623  0.3521
 7174TIP3   OH242936   1.195   4.353   3.338  0.4876 -0.3484  0.0087
 7174TIP3    H142937   1.111   4.378   3.301 -0.4044  0.2508  2.2875
 7174TIP3    H242938   1.254   4.425   3.316  0.7504 -1.2456 -2.4971
 7175TIP3   OH242939   0.519   0.004   3.446 -0.8673 -0.3618  0.1797
 7175TIP3    H142940   0.548  -0.056   3.515  0.0194 -0.7199 -0.4805
 7175TIP3    H242941   0.462   0.066   3.491  0.4940  0.0408  1.4594
 7176TIP3   OH242942   6.626   0.922  15.408  0.5175 -0.0181 -0.2780
 7176TIP3    H142943   6.675   0.929  15.490 -2.2612  1.1696  1.4329
 7176TIP3    H242944   6.637   1.007  15.366  1.5004 -0.4453 -0.9316
 7177TIP3   OH242945   4.399   6.683  13.364 -0.3171  0.2103  0.3273
 7177TIP3    H142946   4.320   6.654  13.408  0.3471 -0.1412  1.3158
 7177TIP3    H242947   4.435   6.604  13.323  1.7706 -0.6379  3.4510
 7178TIP3   OH242948   5.553   5.547  13.051  0.0409  0.0608  0.1459
 7178TIP3    H142949   5.497   5.589  13.117 -1.4277 -1.3322 -0.1425
 7178TIP3    H242950   5.563   5.458  13.082 -1.0534 -0.7651 -1.6816
 7179TIP3   OH242951   3.827   0.617  15.622 -1.0814  0.0531 -0.6214
 7179TIP3    H142952   3.899   0.608  15.683 -1.1274  0.9193 -0.4271
 7179TIP3    H242953   3.865   0.597  15.536 -0.9287 -0.7785 -0.3699
 7180TIP3   OH242954   2.586   5.377   0.679 -0.3749 -0.0772  0.0461
 7180TIP3    H142955   2.535   5.301   0.650 -0.6765  0.4136 -0.7351
 7180TIP3    H242956   2.566   5.445   0.615  1.6986 -0.0271 -0.6143
 7181TIP3   OH242957   6.136   6.314  11.954 -0.1805  0.0592  0.6265
 7181TIP3    H142958   6.114   6.282  11.867 -1.1057 -1.3752  1.3387
 7181TIP3    H242959   6.218   6.362  11.943 -1.2157  1.4751 -1.3295
 7182TIP3   OH242960   2.681   6.732   0.499 -0.2722 -0.3492 -0.0269
 7182TIP3    H142961   2.680   6.685   0.582 -0.2625  0.1936  0.2822
 7182TIP3    H242962   2.605   6.790   0.503 -1.4312 -1.6803 -1.1929
 7183TIP3   OH242963   5.653   5.749  14.962  0.0993  0.4069  0.6037
 7183TIP3    H142964   5.633   5.718  14.874  0.3996  2.1456 -0.1164
 7183TIP3    H242965   5.701   5.677  15.002  0.1860 -0.3272 -0.7500
 7184TIP3   OH242966   0.813   4.616  10.461 -0.1904  0.0873  0.0340
 7184TIP3    H142967   0.781   4.535  10.500  0.5688 -0.1346  0.2063
 7184TIP3    H242968   0.743   4.644  10.403 -0.2032 -1.0230 -0.4976
 7185TIP3   OH242969   3.611   4.010  16.640  0.7845  0.5962  0.4793
 7185TIP3    H142970   3.533   4.044  16.685 -2.2480 -3.8572 -0.7772
 7185TIP3    H242971   3.668   3.980  16.710 -1.4990 -1.5199  1.5722
 7186TIP3   OH242972   5.286   4.128  15.376 -0.0805 -0.8068 -0.1066
 7186TIP3    H142973   5.258   4.198  15.435  0.0260 -1.2464  0.4812
 7186TIP3    H242974   5.210   4.070  15.369 -0.8311  0.3304 -2.1159
 7187TIP3   OH242975   1.650   6.103  13.747 -0.4614  0.1064  0.3012
 7187TIP3    H142976   1.664   6.093  13.841 -0.4630 -1.2961  0.1709
 7187TIP3    H242977   1.596   6.028  13.722 -0.1247  0.2335 -0.8940
 7188TIP3   OH242978   1.257   6.179  14.048 -0.5936  0.4095 -0.5239
 7188TIP3    H142979   1.270   6.086  14.028 -1.3565 -0.0905  1.1390
 7188TIP3    H242980   1.296   6.190  14.135 -1.7550  1.3204 -0.0960
 7189TIP3   OH242981   1.020   2.497   0.220  0.3941  0.2008 -0.1114
 7189TIP3    H142982   0.984   2.501   0.131  1.7737  0.3873 -0.6964
 7189TIP3    H242983   0.953   2.537   0.275 -0.8649 -0.7006 -0.9337
 7190TIP3   OH242984   0.770   5.610  14.864 -0.0244  0.1681 -0.3013
 7190TIP3    H142985   0.784   5.690  14.915 -0.1221 -1.1878  2.0072
 7190TIP3    H242986   0.844   5.554  14.887 -2.1014 -2.0215  1.5721
 7191TIP3   OH242987   5.439   6.195  14.961 -0.0875  0.4892  0.7515
 7191TIP3    H142988   5.380   6.146  14.904 -1.1295  0.3252  1.9279
 7191TIP3    H242989   5.407   6.178  15.049  1.4555  0.7786  1.3955
 7192TIP3   OH242990   5.344   1.255  12.370  0.2996 -0.2826  0.4180
 7192TIP3    H142991   5.347   1.168  12.331 -0.6129 -0.3308  0.4476
 7192TIP3    H242992   5.258   1.261  12.410  1.0951 -0.1147  2.1731
 7193TIP3   OH242993   2.568   2.307   4.212 -0.3217  0.3740  0.3832
 7193TIP3    H142994   2.633   2.366   4.173 -0.4661  0.0396 -0.3810
 7193TIP3    H242995   2.497   2.305   4.148 -0.4904 -0.3166  0.5907
 7194TIP3   OH242996   2.017   3.406   3.745 -0.0156 -0.5265 -0.4673
 7194TIP3    H142997   2.026   3.390   3.651 -1.2444 -0.6922 -0.5755
 7194TIP3    H242998   2.016   3.318   3.784  1.4632 -0.4395 -0.1761
 7195TIP3   OH242999   0.127   2.878   5.294 -0.2342  0.3194  0.1464
 7195TIP3    H143000   0.072   2.873   5.372  0.2694 -2.4602  0.4304
 7195TIP3    H243001   0.101   2.959   5.251 -2.2430  0.7062  1.9395
 7196TIP3   OH243002   5.033   5.425  13.459 -0.2755 -0.2097 -0.0571
 7196TIP3    H143003   4.949   5.406  13.501 -0.5012  0.0481 -0.3848
 7196TIP3    H243004   5.098   5.377  13.511 -0.1869  2.0588  2.1682
 7197TIP3   OH243005   3.663   0.926   1.354  0.0156  0.1301 -0.0685
 7197TIP3    H143006   3.602   0.863   1.393 -0.7826  1.6384  1.2566
 7197TIP3    H243007   3.714   0.875   1.291 -2.3095 -1.3000 -0.9221
 7198TIP3   OH243008   6.575   6.695  12.222 -0.2258 -0.2304  0.2138
 7198TIP3    H143009   6.500   6.726  12.171 -0.5270 -0.6763  0.3750
 7198TIP3    H243010   6.589   6.605  12.193  1.5749  0.4869 -1.3210
 7199TIP3   OH243011   1.092   4.971  11.258 -0.6641  0.1981  0.0319
 7199TIP3    H143012   1.026   4.951  11.192  0.4297 -0.2826 -0.9563
 7199TIP3    H243013   1.170   4.924  11.230 -0.1945 -0.1528  1.7725
 7200TIP3   OH243014   0.414   6.059   3.685  0.0118  0.3783 -0.8637
 7200TIP3    H143015   0.433   6.034   3.775 -0.4688 -1.7721 -1.3233
 7200TIP3    H243016   0.319   6.066   3.681 -0.0209 -0.2429 -1.3598
 7201TIP3   OH243017   2.248   5.151  11.073 -0.3912  0.6004  0.1448
 7201TIP3    H143018   2.304   5.161  10.996 -0.0483 -0.4059  0.2524
 7201TIP3    H243019   2.211   5.238  11.087  0.0326  0.9414 -0.7805
 7202TIP3   OH243020   2.740   1.041  14.802 -0.1460 -0.5788  0.2418
 7202TIP3    H143021   2.830   1.062  14.829  0.0001  2.2602 -2.0185
 7202TIP3    H243022   2.732   0.947  14.817  2.9143 -0.7783  1.2905
 7203TIP3   OH243023   0.060   4.351  10.769 -0.4659 -0.2887 -0.4986
 7203TIP3    H143024   0.034   4.413  10.701  0.7029  1.9679  0.9818
 7203TIP3    H243025   0.149   4.325  10.744 -0.6084 -0.6450 -0.6333
 7204TIP3   OH243026   6.338   0.958   1.767 -0.3920  0.0997 -0.8296
 7204TIP3    H143027   6.396   0.942   1.693 -0.9149 -1.0188 -1.0115
 7204TIP3    H243028   6.347   0.880   1.822 -2.5408 -0.6117 -1.4153
 7205TIP3   OH243029   3.596   1.437   1.747 -0.1763 -0.0822  0.1498
 7205TIP3    H143030   3.587   1.462   1.655 -2.1975 -0.2456  0.2459
 7205TIP3    H243031   3.506   1.432   1.779  0.4308 -1.2575  1.8205
 7206TIP3   OH243032   0.013   3.066  14.862 -0.0008  0.2008 -0.8952
 7206TIP3    H143033  -0.017   3.148  14.821 -1.0214 -0.4938 -1.5712
 7206TIP3    H243034   0.047   3.014  14.789  0.4166 -0.0799 -0.5019
 7207TIP3   OH243035   2.591   6.434   3.813  0.3850  0.5968  0.2626
 7207TIP3    H143036   2.649   6.368   3.774  2.5471  2.1313  0.7083
 7207TIP3    H243037   2.555   6.482   3.738 -0.5829 -0.5204 -0.0253
 7208TIP3   OH243038   3.815   3.367  12.786  0.1952  0.3035 -0.1290
 7208TIP3    H143039   3.897   3.409  12.811  0.0982 -0.2679  1.2206
 7208TIP3    H243040   3.755   3.440  12.770  0.2296  0.7194  1.4724
 7209TIP3   OH243041   3.461   1.485   1.498  0.2086  0.2724 -0.0366
 7209TIP3    H143042   3.431   1.566   1.539 -0.6683 -0.6669  1.2646
 7209TIP3    H243043   3.522   1.513   1.430  0.2262  1.9911  0.6526
 7210TIP3   OH243044   6.054   5.277  14.276  0.0690  0.2908 -0.9041
 7210TIP3    H143045   6.098   5.328  14.207  2.3811  0.1666  0.3967
 7210TIP3    H243046   6.113   5.281  14.351 -0.4578 -2.9043 -0.1698
 7211TIP3   OH243047   2.939   5.924   3.372 -0.1762  0.3805 -0.4017
 7211TIP3    H143048   2.967   5.846   3.419 -0.3813  0.9272  0.6565
 7211TIP3    H243049   2.846   5.910   3.355 -0.2884  0.5435  0.0838
 7212TIP3   OH243050   5.251   4.537   3.932  0.3460  0.2195 -0.2689
 7212TIP3    H143051   5.344   4.516   3.931  0.1986 -0.4713  0.1326
 7212TIP3    H243052   5.248   4.628   3.962  0.8260 -0.2173  1.1819
 7213TIP3   OH243053   2.937   5.001  11.043  0.1784 -0.8731 -0.3171
 7213TIP3    H143054   2.874   4.963  11.103  0.5091 -0.0457  0.5813
 7213TIP3    H243055   2.911   5.093  11.035  0.4095 -0.8632 -1.0908
 7214TIP3   OH243056   1.764   4.348  11.649  0.5956  0.2838 -0.3217
 7214TIP3    H143057   1.836   4.299  11.608 -0.4878 -0.8124 -0.9997
 7214TIP3    H243058   1.685   4.309  11.611 -0.3370  2.0912 -0.3104
 7215TIP3   OH243059   6.377   2.410  12.479  0.6482  0.0074  0.3349
 7215TIP3    H143060   6.355   2.355  12.404  1.1489 -0.1950  0.3333
 7215TIP3    H243061   6.370   2.352  12.555  0.0373  0.2380  0.4651
 7216TIP3   OH243062   4.882   0.314   3.636  0.2410  0.1650  0.9950
 7216TIP3    H143063   4.896   0.277   3.724 -1.1995  0.4357  1.3699
 7216TIP3    H243064   4.787   0.313   3.625  0.3675  0.7712 -0.2991
 7217TIP3   OH243065   3.113   2.884   3.640  0.2397 -0.6235  0.2156
 7217TIP3    H143066   3.058   2.844   3.707  0.0726  1.0108  1.1038
 7217TIP3    H243067   3.060   2.955   3.604  1.2507  0.1139  0.1346
 7218TIP3   OH243068   6.247   4.842   5.937  0.3209 -0.3200 -0.4810
 7218TIP3    H143069   6.284   4.780   6.000  0.7493 -0.0882 -0.5048
 7218TIP3    H243070   6.269   4.928   5.971 -0.5718 -0.1650 -0.2685
 7219TIP3   OH243071   1.397   4.151  13.366  0.1516  0.3417 -0.5972
 7219TIP3    H143072   1.425   4.188  13.449 -0.2460  0.8206 -0.6722
 7219TIP3    H243073   1.479   4.130  13.321  0.5820  3.8318 -1.7791
 7220TIP3   OH243074   5.652   4.066  14.566 -0.1206 -0.4511 -0.0125
 7220TIP3    H143075   5.746   4.056  14.554  0.0437  0.5246  0.3684
 7220TIP3    H243076   5.615   3.984  14.534  0.7831 -0.4961 -1.0142
 7221TIP3   OH243077   3.800   0.781   1.151  0.6944 -0.1503 -0.0309
 7221TIP3    H143078   3.788   0.818   1.064  0.7390 -1.3222 -0.5503
 7221TIP3    H243079   3.894   0.762   1.157  0.9159  1.0753  0.7632
 7222TIP3   OH243080   4.512   1.068   4.856  0.5126  0.3689  0.2093
 7222TIP3    H143081   4.551   1.048   4.941 -1.2355 -1.2092  0.7190
 7222TIP3    H243082   4.496   1.163   4.858  3.5109  0.9511  0.2359
 7223TIP3   OH243083   1.325   2.716  10.833  0.2892  0.1738 -0.0758
 7223TIP3    H143084   1.332   2.632  10.786  2.9129  0.4739 -0.3600
 7223TIP3    H243085   1.339   2.782  10.766  0.6952  0.7473  0.5681
 7224TIP3   OH243086   5.728   5.039  15.723 -0.5417  0.0152  0.3424
 7224TIP3    H143087   5.759   4.975  15.659  0.1990 -0.5889  1.2829
 7224TIP3    H243088   5.804   5.095  15.739 -1.1994  1.2142 -0.5300
 7225TIP3   OH243089   0.602   4.004   4.294 -0.0142 -0.6195 -0.5194
 7225TIP3    H143090   0.506   4.007   4.295 -0.0702 -1.7861 -0.0409
 7225TIP3    H243091   0.623   3.951   4.217  0.1883 -1.2655 -0.0317
 7226TIP3   OH243092   6.698   1.704  13.426 -0.3600  0.4092 -0.3675
 7226TIP3    H143093   6.770   1.678  13.484  0.7387  1.1741 -1.3336
 7226TIP3    H243094   6.620   1.700  13.481  0.2324 -1.5263  0.4166
 7227TIP3   OH243095   3.411   4.421   0.564 -0.0167  0.2064  0.0520
 7227TIP3    H143096   3.496   4.389   0.534  0.5885  0.8864  0.9879
 7227TIP3    H243097   3.371   4.346   0.609  1.5079  0.7220  2.4685
 7228TIP3   OH243098   0.176   1.341  15.304  0.8929  0.0722 -0.5786
 7228TIP3    H143099   0.208   1.250  15.307 -0.8393 -0.5566  0.5839
 7228TIP3    H243100   0.173   1.368  15.396 -0.4795  0.6036 -0.7648
 7229TIP3   OH243101   0.393   4.966  11.722  0.7682 -0.2681  0.3386
 7229TIP3    H143102   0.372   4.904  11.653  0.8357  0.3467 -0.2454
 7229TIP3    H243103   0.317   4.963  11.781  0.8024 -0.9435  0.3530
 7230TIP3   OH243104   2.546   4.737  15.945  0.1623  0.8637 -0.0685
 7230TIP3    H143105   2.551   4.646  15.917 -2.8911  0.7335 -0.6177
 7230TIP3    H243106   2.634   4.771  15.934  1.0136 -1.5622 -1.4594
 7231TIP3   OH243107   1.086   1.574   1.809  0.7442  0.1869  0.0402
 7231TIP3    H143108   1.130   1.521   1.875  1.4078 -1.8711 -1.9626
 7231TIP3    H243109   1.134   1.657   1.809  2.2053 -0.6373  0.5029
 7232TIP3   OH243110   0.214   6.021  15.439  0.0656 -0.4814  0.4422
 7232TIP3    H143111   0.158   5.994  15.511 -0.3881 -0.1232  0.2314
 7232TIP3    H243112   0.212   5.947  15.378 -1.6868  0.2366 -0.4316
 7233TIP3   OH243113   3.352   5.300   3.817 -0.2449  0.3153  0.4406
 7233TIP3    H143114   3.395   5.229   3.769 -2.4811 -1.7756  1.3093
 7233TIP3    H243115   3.361   5.376   3.760  1.1843 -0.9349 -1.1313
 7234TIP3   OH243116   5.590   4.790   0.944  0.2111  0.1528  0.0260
 7234TIP3    H143117   5.522   4.736   0.904  0.1538  1.3531 -1.5845
 7234TIP3    H243118   5.642   4.728   0.995 -1.2522 -1.0132  0.1936
 7235TIP3   OH243119   3.203   2.447  15.013 -0.6776  0.5535  0.0068
 7235TIP3    H143120   3.175   2.387  15.083  0.9227 -0.9668 -0.5843
 7235TIP3    H243121   3.246   2.518  15.059 -1.8988  0.8971  0.6821
 7236TIP3   OH243122   0.770   3.585  10.617 -0.0653  0.6421  0.2456
 7236TIP3    H143123   0.840   3.564  10.555 -2.0175  0.5204 -2.0294
 7236TIP3    H243124   0.798   3.666  10.659  1.5564  0.4252 -0.3571
 7237TIP3   OH243125   6.231   3.222  14.770 -0.2010 -0.6973  0.0348
 7237TIP3    H143126   6.197   3.240  14.858 -0.6210 -0.2151 -0.2193
 7237TIP3    H243127   6.307   3.165  14.785 -0.2641 -0.6167  0.7095
 7238TIP3   OH243128   3.338   1.032   1.453 -0.2445  0.0406  0.2346
 7238TIP3    H143129   3.330   0.984   1.370  0.5171 -0.3344  0.3705
 7238TIP3    H243130   3.264   1.092   1.453  0.3280  0.7923 -1.2120
 7239TIP3   OH243131   5.056   0.268  14.875 -0.3815  0.1835  0.1254
 7239TIP3    H143132   4.994   0.194  14.879 -0.7661  0.5070  0.2633
 7239TIP3    H243133   5.003   0.341  14.844  0.7040 -0.3351 -3.4124
 7240TIP3   OH243134   1.841   3.225  15.621 -0.4526  0.2660  0.1222
 7240TIP3    H143135   1.839   3.301  15.562 -0.1478 -0.2406 -0.5537
 7240TIP3    H243136   1.935   3.206  15.631 -0.5428 -0.3478 -0.1474
 7241TIP3   OH243137   0.951   4.678  16.087  0.4620  0.1647  0.8029
 7241TIP3    H143138   0.859   4.664  16.111  0.7104 -1.7812  0.8502
 7241TIP3    H243139   1.000   4.650  16.164  1.1210 -0.5586  0.1389
 7242TIP3   OH243140   3.461   2.487  13.909  0.4385  0.1947  0.0140
 7242TIP3    H143141   3.511   2.448  13.837  0.6693 -0.5241  0.5371
 7242TIP3    H243142   3.493   2.440  13.987  0.5608  1.2971  0.6482
 7243TIP3   OH243143   0.066   0.673  11.964  0.0150  0.5626 -0.0907
 7243TIP3    H143144  -0.003   0.625  12.011  0.8570  0.1712  0.7749
 7243TIP3    H243145   0.143   0.664  12.020  0.9731  0.3617 -1.4129
 7244TIP3   OH243146   4.125   3.772   3.719  0.2863  0.0653  0.1478
 7244TIP3    H143147   4.119   3.851   3.666  0.6113  0.5278  0.7988
 7244TIP3    H243148   4.034   3.751   3.741  0.0888 -0.4698 -1.0638
 7245TIP3   OH243149   1.984   3.233   5.816 -0.1948 -0.5866 -0.1786
 7245TIP3    H143150   1.988   3.286   5.737 -0.2219  0.9107  0.7807
 7245TIP3    H243151   2.023   3.289   5.884 -1.3802 -1.3098  1.1384
 7246TIP3   OH243152   1.149   1.919   3.801  0.2764 -0.2008 -0.0417
 7246TIP3    H143153   1.106   1.874   3.727  0.9324 -0.8256 -0.0462
 7246TIP3    H243154   1.091   1.992   3.820 -0.0056 -0.1364 -1.0629
 7247TIP3   OH243155   4.138   5.988   1.402  0.2774 -0.1732 -0.4984
 7247TIP3    H143156   4.220   6.029   1.377  2.4931 -3.1262  1.1938
 7247TIP3    H243157   4.091   6.056   1.451  2.0866  1.3608 -0.7720
 7248TIP3   OH243158   4.426   2.445  16.134  0.2874  0.9262 -0.3847
 7248TIP3    H143159   4.347   2.406  16.170  0.6610 -1.1022 -1.6294
 7248TIP3    H243160   4.493   2.431  16.201  0.1935  0.2173 -0.4325
 7249TIP3   OH243161   4.421   0.277  11.748  0.3114  0.2900 -0.2764
 7249TIP3    H143162   4.430   0.189  11.712  3.4571  0.9390 -1.3575
 7249TIP3    H243163   4.364   0.323  11.686 -1.1944 -0.8467  0.1974
 7250TIP3   OH243164   1.287   4.605   3.436 -0.2373  0.3250  0.1403
 7250TIP3    H143165   1.238   4.541   3.487  0.4507  0.7161  1.3492
 7250TIP3    H243166   1.245   4.688   3.455 -0.5772  0.3509 -0.7145
 7251TIP3   OH243167   2.953   5.530  16.692 -0.3481  0.7385 -0.2469
 7251TIP3    H143168   2.984   5.456  16.743  0.8509  1.2873 -0.1459
 7251TIP3    H243169   2.862   5.508  16.669 -0.8083  0.3026  1.7929
 7252TIP3   OH243170   1.857   5.827  13.771 -0.1405  0.0102 -0.3915
 7252TIP3    H143171   1.925   5.888  13.797  0.8225 -1.2899  0.2354
 7252TIP3    H243172   1.830   5.857  13.684 -1.2249  2.5678  0.7199
 7253TIP3   OH243173   4.950   2.961   3.847  0.5913  0.4205  0.3144
 7253TIP3    H143174   5.015   3.030   3.855  1.7710 -0.5403 -0.6081
 7253TIP3    H243175   4.909   2.976   3.762 -0.0412  0.7305  0.6738
 7254TIP3   OH243176   3.441   4.764  14.789 -1.1878 -0.9095  0.1000
 7254TIP3    H143177   3.440   4.734  14.698 -1.0372 -0.5216 -0.0295
 7254TIP3    H243178   3.528   4.742  14.822 -0.7696  0.1719 -0.2601
 7255TIP3   OH243179   6.498   6.651  15.366  0.1242  0.1257 -0.6462
 7255TIP3    H143180   6.549   6.677  15.443 -1.7324 -1.3462  1.2037
 7255TIP3    H243181   6.515   6.557  15.357 -0.9998 -0.0612 -0.9643
 7256TIP3   OH243182   2.332   1.758  16.414  0.2656 -0.0434  0.0615
 7256TIP3    H143183   2.412   1.717  16.379  0.0001  0.9715 -1.8175
 7256TIP3    H243184   2.360   1.845  16.442 -0.0422  0.0487  0.0844
 7257TIP3   OH243185   0.440   3.670  16.081 -0.4377 -0.0482  0.1668
 7257TIP3    H143186   0.513   3.728  16.060 -0.4808  0.4807  1.3541
 7257TIP3    H243187   0.365   3.707  16.034 -0.2954  0.4188  0.3015
 7258TIP3   OH243188   1.518   3.873   5.093  0.1151  0.4158  0.0352
 7258TIP3    H143189   1.459   3.909   5.028 -0.0913 -0.7356 -0.4351
 7258TIP3    H243190   1.485   3.785   5.110  0.1015  0.7183  1.7871
 7259TIP3   OH243191   3.845   4.887  14.930  0.3946  0.0128 -0.0686
 7259TIP3    H143192   3.887   4.891  14.843  1.1505  0.0063  0.2884
 7259TIP3    H243193   3.918   4.879  14.991 -0.2084 -2.1440  0.4473
 7260TIP3   OH243194   1.853   3.177   6.141 -0.0171 -0.3840  0.0841
 7260TIP3    H143195   1.933   3.219   6.109  1.3779 -3.6821 -1.2001
 7260TIP3    H243196   1.854   3.192   6.235  1.2449  1.0001 -0.1156
 7261TIP3   OH243197   0.017   4.207  13.299  0.0330  0.2225  0.4623
 7261TIP3    H143198  -0.025   4.278  13.250  0.1994 -0.4636 -0.7247
 7261TIP3    H243199   0.046   4.146  13.231 -0.8291 -1.3751  1.4937
 7262TIP3   OH243200   2.337   0.215   1.724  0.1098  0.5362  0.0726
 7262TIP3    H143201   2.243   0.219   1.710 -0.1750 -2.0115  0.6654
 7262TIP3    H243202   2.375   0.258   1.648 -1.5122 -0.3512 -1.2987
 7263TIP3   OH243203   5.055   2.680   1.720  0.0099  0.2149  0.3332
 7263TIP3    H143204   5.010   2.728   1.789  1.0336  0.0709  1.1214
 7263TIP3    H243205   5.123   2.631   1.765  0.2053 -0.4990 -0.6910
 7264TIP3   OH243206   5.053   5.157   3.329  0.3855  0.1018  0.4902
 7264TIP3    H143207   4.981   5.111   3.286 -1.6819  1.2785  2.4579
 7264TIP3    H243208   5.052   5.245   3.290  1.1933 -0.0604  0.0872
 7265TIP3   OH243209   3.452   1.143   2.829  0.3803  0.6172 -0.1951
 7265TIP3    H143210   3.527   1.187   2.789  0.9286  0.2611  0.4257
 7265TIP3    H243211   3.392   1.128   2.756  0.2091  2.3113 -0.4344
 7266TIP3   OH243212   5.668   0.409  16.348  0.2176  0.6203 -0.1476
 7266TIP3    H143213   5.624   0.479  16.396 -1.7996 -1.0242  0.5460
 7266TIP3    H243214   5.658   0.432  16.256  2.5649  2.8948  0.0348
 7267TIP3   OH243215   1.120   0.420  11.289  0.4991 -0.0128 -0.0522
 7267TIP3    H143216   1.140   0.506  11.252 -3.2684  1.5263  0.9311
 7267TIP3    H243217   1.024   0.414  11.284  0.3389 -2.7121  2.9594
 7268TIP3   OH243218   5.078   6.569  14.825  0.2747 -0.2239  0.4227
 7268TIP3    H143219   5.122   6.539  14.746  0.2757 -2.2354  1.1379
 7268TIP3    H243220   4.986   6.546  14.813  0.0638  0.5216  0.5315
 7269TIP3   OH243221   6.485   4.498  12.084 -0.3314  0.4613  0.4517
 7269TIP3    H143222   6.537   4.458  12.153 -1.2081 -1.4226  0.0747
 7269TIP3    H243223   6.395   4.491  12.114 -0.6364  0.6529 -0.3921
 7270TIP3   OH243224   5.416   0.255  16.326  0.0285 -0.2171 -0.0169
 7270TIP3    H143225   5.431   0.340  16.285 -1.6795  0.2510  0.2487
 7270TIP3    H243226   5.486   0.247  16.390  0.5137  0.7651 -0.4009
 7271TIP3   OH243227   5.146   3.779   0.301  0.3289  0.5229  0.1802
 7271TIP3    H143228   5.179   3.733   0.223  0.2239 -1.1947  1.0857
 7271TIP3    H243229   5.052   3.785   0.288  0.2608 -0.1131  0.3120
 7272TIP3   OH243230   4.551   3.918  11.433  0.0942 -0.0972  0.0818
 7272TIP3    H143231   4.617   3.860  11.394 -0.3854 -0.4735 -0.1858
 7272TIP3    H243232   4.602   3.987  11.476  0.6487  1.0002 -2.1875
 7273TIP3   OH243233   5.703   5.363   3.310  0.4422 -0.0994  0.5623
 7273TIP3    H143234   5.768   5.433   3.300  0.0214  0.3872  1.1495
 7273TIP3    H243235   5.711   5.337   3.402 -1.1207  0.9225  1.0345
 7274TIP3   OH243236   6.037   5.837  14.161 -0.0982 -0.2385 -0.1553
 7274TIP3    H143237   6.059   5.899  14.091  0.6380  0.1534  0.4132
 7274TIP3    H243238   5.969   5.881  14.211  0.0115 -0.1356 -0.0954
 7275TIP3   OH243239   2.557   0.706   5.598  0.1791 -0.2506  0.2761
 7275TIP3    H143240   2.538   0.784   5.547  0.9449  0.5393  1.1574
 7275TIP3    H243241   2.627   0.662   5.550  0.0892 -0.1343  0.0393
 7276TIP3   OH243242   1.090   2.811   2.651  0.2354  0.0167  0.0738
 7276TIP3    H143243   1.173   2.768   2.629  0.2854  0.2603 -0.2239
 7276TIP3    H243244   1.076   2.873   2.580  0.3147  0.6999  0.6411
 7277TIP3   OH243245   1.153   3.987   4.944 -0.1720 -0.0085 -0.1045
 7277TIP3    H143246   1.189   3.917   4.890 -1.5148  0.0055 -1.0949
 7277TIP3    H243247   1.227   4.044   4.962  0.7658 -1.1950 -0.0361
 7278TIP3   OH243248   4.986   4.707  15.345  0.0755  0.7530 -0.2399
 7278TIP3    H143249   4.897   4.680  15.370  0.1872  0.4071 -0.2135
 7278TIP3    H243250   4.974   4.748  15.259  0.1149 -0.8797 -1.0881
 7279TIP3   OH243251   2.485   3.397   2.785  0.0820 -0.4467 -0.4270
 7279TIP3    H143252   2.503   3.312   2.744 -0.2542  0.5744 -2.8344
 7279TIP3    H243253   2.404   3.427   2.744  0.4024  1.2212  0.0929
 7280TIP3   OH243254   1.896   4.473  16.782 -0.2209 -0.3269 -0.0040
 7280TIP3    H143255   1.856   4.559  16.766 -0.9826 -1.1886 -3.5680
 7280TIP3    H243256   1.824   4.419  16.814 -0.6547 -0.4805 -1.1748
 7281TIP3   OH243257   4.512   3.364  16.466 -0.3359 -0.2535  0.1281
 7281TIP3    H143258   4.582   3.379  16.530 -0.5261  0.7478  0.1092
 7281TIP3    H243259   4.536   3.281  16.424  0.9145  0.1404  0.0345
 7282TIP3   OH243260   0.021   6.236  10.924 -0.5235  0.5687  0.5215
 7282TIP3    H143261  -0.021   6.322  10.935 -0.8609  0.2415  2.0019
 7282TIP3    H243262  -0.000   6.210  10.834 -1.3164  1.5636  0.4062
 7283TIP3   OH243263   2.448   3.924   1.621 -0.6138 -0.0723 -0.2979
 7283TIP3    H143264   2.370   3.869   1.624  0.3005 -1.5552 -1.7913
 7283TIP3    H243265   2.503   3.883   1.553  1.3400  1.0616  0.5331
 7284TIP3   OH243266   3.048   5.580  16.003 -0.0439 -0.0055 -0.4865
 7284TIP3    H143267   3.124   5.604  15.951 -0.3571  1.0237 -0.4917
 7284TIP3    H243268   2.991   5.533  15.943  0.4545 -0.5480 -0.5510
 7285TIP3   OH243269   5.641   0.782   5.198 -0.0444  0.0681 -0.1166
 7285TIP3    H143270   5.689   0.862   5.221  0.8010 -0.0891 -1.2259
 7285TIP3    H243271   5.602   0.802   5.113 -1.5621  0.0093  0.5425
 7286TIP3   OH243272   0.837   1.815  13.102 -0.4595  0.0217  0.3150
 7286TIP3    H143273   0.910   1.810  13.163  0.1879  0.6709 -0.3917
 7286TIP3    H243274   0.811   1.908  13.102  1.1067  0.5645 -2.1402
 7287TIP3   OH243275   1.124   2.333  12.933  0.1773 -0.3680  0.1418
 7287TIP3    H143276   1.111   2.423  12.962  0.7390 -0.1455 -0.2764
 7287TIP3    H243277   1.066   2.324  12.857  0.3036 -0.2806  0.0342
 7288TIP3   OH243278   2.439   1.306   2.737 -0.6923  0.5532  0.1529
 7288TIP3    H143279   2.503   1.269   2.676 -1.2491 -1.1752  0.5538
 7288TIP3    H243280   2.450   1.401   2.729  2.2955  0.3501  0.6107
 7289TIP3   OH243281   1.878   2.341  12.061  0.0834 -0.5285  0.1875
 7289TIP3    H143282   1.788   2.321  12.087  0.2232 -1.5130 -0.0740
 7289TIP3    H243283   1.881   2.437  12.058 -1.1754 -0.5016 -0.5635
 7290TIP3   OH243284   3.063   6.072  12.745  0.4226 -0.2513  0.3424
 7290TIP3    H143285   3.110   6.057  12.827  0.3087 -1.4338  0.2125
 7290TIP3    H243286   3.061   5.986  12.703 -0.6226  0.0760 -0.3074
 7291TIP3   OH243287   3.388   1.876  11.549  0.0990  0.5140  0.2701
 7291TIP3    H143288   3.404   1.960  11.593 -0.6131  0.0191  1.5450
 7291TIP3    H243289   3.397   1.895  11.456 -1.5282  2.3860  0.4182
 7292TIP3   OH243290   1.783   2.872   0.514 -0.3998  0.3010 -0.1730
 7292TIP3    H143291   1.842   2.837   0.447 -2.2220 -2.0221 -0.6870
 7292TIP3    H243292   1.746   2.950   0.474 -0.3278 -0.2103 -1.2821
 7293TIP3   OH243293   6.612   5.656  10.658  0.0309 -0.5879  0.1514
 7293TIP3    H143294   6.691   5.708  10.674  0.0356 -1.1844  2.3665
 7293TIP3    H243295   6.644   5.568  10.642 -0.1456 -0.7084  0.4486
 7294TIP3   OH243296   1.278   1.880   5.241  0.5735 -0.3000  0.2305
 7294TIP3    H143297   1.252   1.971   5.229  1.9490  0.0321 -0.3656
 7294TIP3    H243298   1.234   1.852   5.321 -1.9444  0.0858 -0.9071
 7295TIP3   OH243299   4.283   1.393   3.712  0.1357  0.3684 -0.4130
 7295TIP3    H143300   4.347   1.415   3.779  0.1157  0.1018 -0.3047
 7295TIP3    H243301   4.234   1.320   3.749 -0.9831  1.2756 -0.0016
 7296TIP3   OH243302   2.312   5.037   6.247  0.0195 -0.2680  0.3025
 7296TIP3    H143303   2.355   5.059   6.329 -2.3869 -1.4438  2.0040
 7296TIP3    H243304   2.362   4.963   6.213  1.0348  0.2255  0.6745
 7297TIP3   OH243305   3.083   0.700  16.577  0.4967  0.1649  0.4383
 7297TIP3    H143306   3.015   0.759  16.546 -0.1837 -0.3591  0.9001
 7297TIP3    H243307   3.087   0.630  16.511  0.9921  0.4909  0.1187
 7298TIP3   OH243308   3.736   6.000   1.059 -0.2185 -0.0316  0.2406
 7298TIP3    H143309   3.667   5.936   1.077  0.5335 -0.6470  0.9572
 7298TIP3    H243310   3.768   6.025   1.146  2.8189 -2.3288 -0.0763
 7299TIP3   OH243311   5.279   4.807  15.681 -0.0124 -0.6246 -0.1499
 7299TIP3    H143312   5.348   4.749  15.713 -1.9515 -2.3078  1.2353
 7299TIP3    H243313   5.215   4.811  15.753 -1.7836  0.1664 -1.6748
 7300TIP3   OH243314   5.105   1.903   1.628 -0.0444  0.0833  0.5969
 7300TIP3    H143315   5.154   1.824   1.652 -1.0088  0.0355  2.5779
 7300TIP3    H243316   5.169   1.974   1.635  0.6771 -0.4279 -0.6035
 7301TIP3   OH243317   1.633   0.918  12.740  0.0437 -0.1197  0.0363
 7301TIP3    H143318   1.605   0.949  12.654 -1.2490  1.3380  0.9388
 7301TIP3    H243319   1.566   0.949  12.800  2.0053  0.7641  1.8807
 7302TIP3   OH243320   3.151   6.496   1.147 -0.4536 -0.0623  0.7311
 7302TIP3    H143321   3.200   6.530   1.222 -0.0347 -1.5085  1.1611
 7302TIP3    H243322   3.076   6.554   1.138  1.1232  2.0079  0.2818
 7303TIP3   OH243323   3.590   2.954   5.438  0.1459 -0.1488  0.1291
 7303TIP3    H143324   3.634   2.894   5.498  2.3094  0.2681 -0.9305
 7303TIP3    H243325   3.646   3.032   5.437 -1.2402  0.8811 -0.4588
 7304TIP3   OH243326   3.286   4.161   4.742  0.5729  0.2298 -0.3264
 7304TIP3    H143327   3.253   4.250   4.727  0.1962  0.0072 -0.8376
 7304TIP3    H243328   3.310   4.160   4.834 -0.2193  0.6083 -0.1065
 7305TIP3   OH243329   4.996   2.691  14.898  0.6542  0.0399 -0.1594
 7305TIP3    H143330   5.057   2.687  14.824  1.3598  0.5140  0.3933
 7305TIP3    H243331   4.987   2.784  14.917 -1.6495  0.1246 -1.3687
 7306TIP3   OH243332   5.062   6.284   0.549  0.5415  0.0198  0.2391
 7306TIP3    H143333   4.993   6.285   0.616 -0.2586 -0.8844 -0.5495
 7306TIP3    H243334   5.143   6.290   0.599 -0.0930  1.6112  1.1652
 7307TIP3   OH243335   4.048   1.847  14.266  0.1290  0.2875  0.4275
 7307TIP3    H143336   3.995   1.767  14.265  2.3216 -1.2567 -0.3294
 7307TIP3    H243337   4.103   1.837  14.344  0.2863  1.1700  0.4346
 7308TIP3   OH243338   2.057   6.578   2.929  0.3940  0.3244 -0.1906
 7308TIP3    H143339   2.095   6.508   2.875  0.2553  0.7634 -0.8666
 7308TIP3    H243340   2.072   6.658   2.879 -0.4225  0.6416  0.0583
 7309TIP3   OH243341   6.738   3.302  14.794  0.1281  0.3186  0.0833
 7309TIP3    H143342   6.769   3.342  14.712  2.4538 -0.0522  0.7002
 7309TIP3    H243343   6.664   3.356  14.821  0.4723  1.5558 -1.3202
 7310TIP3   OH243344   1.530   3.592   3.060 -0.4173  0.5114  0.0281
 7310TIP3    H143345   1.502   3.634   3.141  1.7798  0.8223  0.7101
 7310TIP3    H243346   1.510   3.655   2.991  0.6284  1.6772  0.7458
 7311TIP3   OH243347   0.651   3.677   2.800 -0.1538 -0.1644  0.6432
 7311TIP3    H143348   0.609   3.762   2.812 -0.2519  0.0294 -0.8273
 7311TIP3    H243349   0.616   3.623   2.870 -0.5774  0.8249  1.2206
 7312TIP3   OH243350   1.040   2.460  13.875 -0.0317  0.1094 -0.0643
 7312TIP3    H143351   1.029   2.553  13.895  0.8345  0.3732 -0.7580
 7312TIP3    H243352   1.134   2.446  13.870 -0.0965 -0.0222 -3.2571
 7313TIP3   OH243353   6.183   4.932  14.850  0.2016 -0.1876  0.6332
 7313TIP3    H143354   6.088   4.934  14.841  0.1731  0.5028  1.0360
 7313TIP3    H243355   6.216   4.929  14.760 -0.1988 -0.2500  0.4888
 7314TIP3   OH243356   0.624   3.226   5.012  0.1498 -0.2046  0.0434
 7314TIP3    H143357   0.694   3.219   5.077  1.0222  1.3080 -0.6760
 7314TIP3    H243358   0.546   3.250   5.063  0.7383  0.5919  0.5925
 7315TIP3   OH243359   3.217   3.490  16.636 -0.3369 -0.8180 -0.4493
 7315TIP3    H143360   3.204   3.457  16.725 -2.6209  0.1188 -0.3511
 7315TIP3    H243361   3.252   3.578  16.647  1.7678 -1.5845 -0.6015
 7316TIP3   OH243362   5.119   1.231  13.992  0.0884  0.2294  0.2348
 7316TIP3    H143363   5.214   1.231  13.981  0.3168  1.1869  1.7938
 7316TIP3    H243364   5.090   1.313  13.953 -0.2955 -0.6355 -1.3758
 7317TIP3   OH243365   2.992   2.847   1.685  0.2156 -0.6789  0.3551
 7317TIP3    H143366   2.931   2.880   1.620  1.2427  2.2252  0.6900
 7317TIP3    H243367   2.937   2.822   1.759 -0.6682  1.4234  0.4759
 7318TIP3   OH243368   0.512   1.227  13.157 -0.2474  0.2094  0.4809
 7318TIP3    H143369   0.588   1.227  13.214 -0.8655  1.3428  1.3619
 7318TIP3    H243370   0.477   1.316  13.164 -2.0160 -0.4574  0.6133
 7319TIP3   OH243371   1.782   4.213   5.481  0.3208 -0.1180  0.2953
 7319TIP3    H143372   1.712   4.253   5.430 -1.0606  0.2971  2.3948
 7319TIP3    H243373   1.790   4.268   5.558  2.5953 -0.5129  0.4168
 7320TIP3   OH243374   6.707   1.673   1.923  0.1497 -0.7678 -0.2035
 7320TIP3    H143375   6.701   1.721   2.005 -2.1510  0.7796 -1.1625
 7320TIP3    H243376   6.622   1.628   1.915  1.0912 -2.5483 -0.8173
 7321TIP3   OH243377   6.522   1.896   3.911  0.3272 -0.0007  0.0366
 7321TIP3    H143378   6.504   1.803   3.925 -2.5013  0.5187  0.4393
 7321TIP3    H243379   6.517   1.936   3.998 -0.1518  0.7452 -0.3155
 7322TIP3   OH243380   0.976   2.352   2.679  0.6138 -1.0442 -0.5255
 7322TIP3    H143381   0.921   2.428   2.662  1.6571 -0.8245 -3.3263
 7322TIP3    H243382   0.930   2.279   2.637 -0.4468 -2.1076  2.2371
 7323TIP3   OH243383   5.762   0.494   2.406 -0.4236 -0.0516 -0.9694
 7323TIP3    H143384   5.716   0.558   2.462 -1.6415 -1.1030 -0.7372
 7323TIP3    H243385   5.775   0.418   2.462 -0.2644 -0.5530 -1.6782
 7324TIP3   OH243386   5.187   1.599  13.945 -0.0214 -0.8492  0.5504
 7324TIP3    H143387   5.197   1.556  14.030  1.4402 -0.7200  0.4696
 7324TIP3    H243388   5.133   1.675  13.963 -1.4665 -1.9198  0.9621
 7325TIP3   OH243389   6.376   5.721  10.559 -0.0750  0.3904 -0.1137
 7325TIP3    H143390   6.458   5.712  10.608  0.0142  1.0037 -0.1481
 7325TIP3    H243391   6.402   5.754  10.474 -0.2958 -0.0832 -0.3693
 7326TIP3   OH243392   4.790   2.072   3.137 -0.2911 -0.3896  0.6283
 7326TIP3    H143393   4.750   1.989   3.114 -0.8546  0.2214 -0.7390
 7326TIP3    H243394   4.736   2.105   3.209 -1.1520 -0.4238  0.0233
 7327TIP3   OH243395   0.995   3.992  13.898 -0.0577 -0.1671 -0.2716
 7327TIP3    H143396   1.050   3.918  13.873  0.9523 -0.7780  3.2216
 7327TIP3    H243397   0.908   3.954  13.912 -0.4513  0.0524 -1.9021
 7328TIP3   OH243398   0.931   0.570   2.420 -0.5189  0.2993  0.4909
 7328TIP3    H143399   0.978   0.632   2.475 -1.9763  0.6785  1.3723
 7328TIP3    H243400   0.859   0.620   2.383  1.4992  0.6457 -3.5483
 7329TIP3   OH243401   3.597   5.002  12.781  0.2364  0.5404 -0.7803
 7329TIP3    H143402   3.659   4.940  12.819  0.2696  1.8660  1.4984
 7329TIP3    H243403   3.511   4.972  12.810  0.2004  1.1658 -0.2086
 7330TIP3   OH243404   1.270   3.504   4.858  0.1162 -0.2622 -0.0064
 7330TIP3    H143405   1.306   3.575   4.911 -1.2683 -0.9117  1.9236
 7330TIP3    H243406   1.341   3.441   4.850  1.3092  1.2065 -1.6122
 7331TIP3   OH243407   5.240   5.832  12.818 -0.3600  0.5297  0.0971
 7331TIP3    H143408   5.159   5.867  12.781 -2.1431 -0.3304  2.8587
 7331TIP3    H243409   5.215   5.748  12.856  2.2480 -0.5543 -0.3026
 7332TIP3   OH243410   3.686   4.592   2.138  0.0717  0.5447 -0.5392
 7332TIP3    H143411   3.665   4.681   2.108  1.0317  1.0499  0.2218
 7332TIP3    H243412   3.781   4.593   2.151  0.2029 -0.8216 -1.1897
 7333TIP3   OH243413   5.607   2.839   4.022 -0.1262  0.6270  0.1722
 7333TIP3    H143414   5.642   2.752   4.040 -0.7209  0.3413 -0.0661
 7333TIP3    H243415   5.562   2.831   3.938  0.2273  1.2816 -0.0906
 7334TIP3   OH243416   2.315   5.157  12.905 -0.2322  0.7713  0.0010
 7334TIP3    H143417   2.282   5.190  12.821  2.4566  2.2868 -0.5679
 7334TIP3    H243418   2.302   5.229  12.966 -1.2336  0.0415  0.6776
 7335TIP3   OH243419   3.523   0.167   0.985 -0.5033 -0.2330  0.2786
 7335TIP3    H143420   3.478   0.244   0.950 -1.5726 -0.8022  0.3367
 7335TIP3    H243421   3.455   0.121   1.035  0.7624  0.1134  2.4178
 7336TIP3   OH243422   0.278   6.167  11.416  0.4023  0.0795 -0.1093
 7336TIP3    H143423   0.369   6.186  11.392  0.4004 -0.8322 -0.9115
 7336TIP3    H243424   0.239   6.252  11.432  1.4384  0.4761  0.3967
 7337TIP3   OH243425   1.736   4.274  14.427 -0.5255 -0.1799 -0.2805
 7337TIP3    H143426   1.813   4.259  14.482 -0.1149  1.0367 -0.4889
 7337TIP3    H243427   1.766   4.258  14.338 -0.5882  0.0122 -0.3373
 7338TIP3   OH243428   3.745   6.124   2.755  0.1566  0.2662 -0.4373
 7338TIP3    H143429   3.722   6.052   2.814 -2.0506  0.3213 -1.1299
 7338TIP3    H243430   3.778   6.192   2.813  0.0024 -0.4315  0.5064
 7339TIP3   OH243431   1.510   4.265   3.369 -0.7879  0.3103 -0.4212
 7339TIP3    H143432   1.471   4.187   3.331  1.2615  0.0466 -2.1663
 7339TIP3    H243433   1.558   4.234   3.445  0.3496 -0.2411 -1.3387
 7340TIP3   OH243434   4.325   3.212  13.874  0.5804 -0.1796 -0.4992
 7340TIP3    H143435   4.360   3.190  13.788  0.6491  2.8549 -1.3623
 7340TIP3    H243436   4.252   3.271  13.856 -1.0149 -1.4044  1.4915
 7341TIP3   OH243437   4.424   5.119  16.024  0.4609 -0.0692 -0.2926
 7341TIP3    H143438   4.349   5.094  15.970  0.1751  1.8215 -0.8385
 7341TIP3    H243439   4.417   5.065  16.102  0.2951 -2.1460 -1.6637
 7342TIP3   OH243440   2.765   1.690  11.355  0.7828 -0.5403  0.3848
 7342TIP3    H143441   2.720   1.610  11.329 -0.8176  0.2375  0.6311
 7342TIP3    H243442   2.825   1.664  11.424 -1.4687 -1.1709  2.1950
 7343TIP3   OH243443   2.764   2.287  11.397 -0.1197  0.7325  0.5226
 7343TIP3    H143444   2.839   2.260  11.449  1.4673  0.5537 -1.7020
 7343TIP3    H243445   2.802   2.316  11.314 -2.4570  1.4792 -0.3586
 7344TIP3   OH243446   5.961   5.119  13.775 -0.3716  0.0345  0.1368
 7344TIP3    H143447   5.992   5.032  13.749 -1.6342  0.0798 -1.6234
 7344TIP3    H243448   5.866   5.110  13.783 -0.5630  1.3126 -0.3896
 7345TIP3   OH243449   3.924   0.864  14.186 -0.2572 -0.2080 -0.2519
 7345TIP3    H143450   3.969   0.798  14.238  1.3313  1.1540  0.1862
 7345TIP3    H243451   3.931   0.833  14.095  1.7746  0.0443 -0.2131
 7346TIP3   OH243452   3.879   4.835   3.419  0.3045 -0.4278 -0.4793
 7346TIP3    H143453   3.885   4.816   3.513 -0.2746  0.2664 -0.2941
 7346TIP3    H243454   3.940   4.907   3.406 -0.3093  0.1034 -0.4511
 7347TIP3   OH243455   1.366   6.118  16.013  0.1736 -0.3754  0.1258
 7347TIP3    H143456   1.424   6.063  15.961 -2.1373 -1.4145 -1.5256
 7347TIP3    H243457   1.344   6.065  16.090  1.5180  0.1139  0.8732
 7348TIP3   OH243458   5.881   1.633  14.962 -0.0229  0.3157 -0.1495
 7348TIP3    H143459   5.890   1.608  14.870  0.0306 -3.4041  0.7022
 7348TIP3    H243460   5.794   1.672  14.967 -0.8156 -1.1051 -1.5324
 7349TIP3   OH243461   5.167   2.334   0.708  0.5189  0.5852 -0.3401
 7349TIP3    H143462   5.105   2.270   0.744  0.9384 -0.0280 -0.6914
 7349TIP3    H243463   5.114   2.386   0.648  0.3187  0.1021 -0.5910
 7350TIP3   OH243464   3.922   1.818   3.389  0.6990  0.3925 -0.3255
 7350TIP3    H143465   3.990   1.864   3.340  2.8524  0.2245  2.2444
 7350TIP3    H243466   3.885   1.757   3.326  1.9966  1.4308 -2.2141
 7351TIP3   OH243467   5.107   4.764  12.842  0.2131 -0.0558  0.1568
 7351TIP3    H143468   5.037   4.793  12.784  0.8332 -0.1962 -0.6934
 7351TIP3    H243469   5.137   4.843  12.886 -1.0084 -0.1130  1.1582
 7352TIP3   OH243470   4.667   5.180  14.272  0.0693 -0.5015 -0.0215
 7352TIP3    H143471   4.573   5.163  14.284 -0.3631  1.3877 -0.3099
 7352TIP3    H243472   4.681   5.174  14.178 -0.5697  2.5188 -0.4075
 7353TIP3   OH243473   5.217   2.863   1.155  0.0600  0.1377  0.9484
 7353TIP3    H143474   5.155   2.796   1.126 -0.4025 -0.0674  2.3073
 7353TIP3    H243475   5.174   2.946   1.133  0.4269  0.0071 -0.3248
 7354TIP3   OH243476   3.232   2.931  16.184  0.0587 -0.1616  0.0949
 7354TIP3    H143477   3.150   2.906  16.142  0.5531 -0.8790 -0.4759
 7354TIP3    H243478   3.231   3.027  16.184 -0.3489 -0.1610 -0.7537
 7355TIP3   OH243479   6.154   3.080   0.620  0.5875 -0.1540  0.1374
 7355TIP3    H143480   6.073   3.032   0.604 -0.8432  0.7936  3.6110
 7355TIP3    H243481   6.218   3.013   0.643 -0.1929 -0.7043  0.7600
 7356TIP3   OH243482   3.199   5.100  14.748  0.4575  0.3992 -1.0156
 7356TIP3    H143483   3.235   5.186  14.768  1.1022 -0.4915  2.2833
 7356TIP3    H243484   3.157   5.110  14.663  2.4488  3.3447 -1.7797
 7357TIP3   OH243485   4.431   3.997   2.321 -0.4071 -0.1604 -0.1621
 7357TIP3    H143486   4.506   4.046   2.286  0.4168 -0.6713  0.8403
 7357TIP3    H243487   4.383   3.968   2.243  0.7096 -0.2347 -0.8470
 7358TIP3   OH243488   4.505   4.754   4.383 -0.3489  0.5096  0.2906
 7358TIP3    H143489   4.455   4.693   4.329  0.6891 -1.3616  1.3330
 7358TIP3    H243490   4.441   4.788   4.447 -1.0037  0.7934 -0.4978
 7359TIP3   OH243491   2.723   2.633   0.057 -0.5650  0.0380  0.5431
 7359TIP3    H143492   2.799   2.576   0.044 -1.2781 -0.5094 -1.8493
 7359TIP3    H243493   2.699   2.622   0.149  1.2826 -0.9749  0.9496
 7360TIP3   OH243494   0.319   2.147  12.214 -0.3714  0.0510 -0.3480
 7360TIP3    H143495   0.384   2.218  12.212 -2.7866  2.3916 -1.8689
 7360TIP3    H243496   0.289   2.147  12.305 -1.3612  2.1015 -0.6039
 7361TIP3   OH243497   5.656   6.774   4.087 -0.2638  0.4389  0.0829
 7361TIP3    H143498   5.643   6.783   4.182  1.2056  0.2174  0.3300
 7361TIP3    H243499   5.732   6.717   4.079 -1.0185 -0.4197 -1.2688
 7362TIP3   OH243500   0.780   3.499   3.126 -0.3647 -0.1101  0.6250
 7362TIP3    H143501   0.822   3.423   3.166  1.0182  0.6882  0.7419
 7362TIP3    H243502   0.713   3.525   3.188  0.8718  0.3077  1.8438
 7363TIP3   OH243503   1.248   3.318  15.173  0.5298  0.6907 -0.4338
 7363TIP3    H143504   1.171   3.298  15.227  2.7312 -0.8172  2.4122
 7363TIP3    H243505   1.282   3.399  15.210  1.7787 -0.0867  0.1854
 7364TIP3   OH243506   3.724   0.738  11.044  0.1504 -0.0880  0.3238
 7364TIP3    H143507   3.724   0.795  11.121 -1.4052 -0.5274  0.6688
 7364TIP3    H243508   3.670   0.664  11.069  0.2932 -0.6322 -0.9272
 7365TIP3   OH243509   3.116   4.889  15.269 -0.1393 -0.7049  0.5815
 7365TIP3    H143510   3.078   4.829  15.333 -0.2829 -1.4422 -0.1788
 7365TIP3    H243511   3.120   4.973  15.315 -0.2450 -1.2138  1.5504
 7366TIP3   OH243512   2.788   3.130   1.695  0.0240 -0.0434  0.2277
 7366TIP3    H143513   2.707   3.094   1.733 -0.0153  0.7606  0.9348
 7366TIP3    H243514   2.794   3.089   1.609 -1.6956  0.6626 -0.2617
 7367TIP3   OH243515   2.232   6.682  17.247 -0.0724  0.2525  0.1584
 7367TIP3    H143516   2.304   6.726  17.292 -1.1192  0.7884  1.3542
 7367TIP3    H243517   2.272   6.647  17.168  1.4382  0.8001  0.6385
 7368TIP3   OH243518   3.888   6.292  13.115 -0.0861 -0.5082  0.2477
 7368TIP3    H143519   3.894   6.338  13.199  1.1560 -0.0961 -0.0437
 7368TIP3    H243520   3.878   6.362  13.050  2.7657 -0.4768 -0.2981
 7369TIP3   OH243521   0.849   0.999   3.344  0.2954 -0.2700  0.2458
 7369TIP3    H143522   0.926   1.056   3.331  0.5289 -0.5690  0.3005
 7369TIP3    H243523   0.815   1.024   3.430 -1.5390  2.0513 -1.0511
 7370TIP3   OH243524   6.764   0.962   4.047 -0.1784  0.1215  0.7478
 7370TIP3    H143525   6.787   1.044   4.091 -2.0934  0.8633  0.4919
 7370TIP3    H243526   6.814   0.895   4.092  0.1487  1.2302  2.1040
 7371TIP3   OH243527   4.480   4.107   1.390 -0.3365  0.8144  0.1790
 7371TIP3    H143528   4.462   4.017   1.417  0.5666  0.8017  0.7873
 7371TIP3    H243529   4.394   4.141   1.364 -1.1860  0.6063  2.4655
 7372TIP3   OH243530   0.687   1.160  15.809  0.8388  0.7461 -0.4023
 7372TIP3    H143531   0.655   1.089  15.865  2.0412  1.1846  0.9152
 7372TIP3    H243532   0.632   1.235  15.832 -0.3520  0.3138 -1.7075
 7373TIP3   OH243533   2.343   5.621   5.545  0.1854  0.4157  0.1522
 7373TIP3    H143534   2.330   5.712   5.518  2.9676  0.6052 -0.9066
 7373TIP3    H243535   2.353   5.626   5.640  0.0260  1.1942  0.1351
 7374TIP3   OH243536   3.295   0.534   1.120 -0.2314 -0.6093  0.1521
 7374TIP3    H143537   3.360   0.549   1.051  0.4940 -2.3031  0.4323
 7374TIP3    H243538   3.339   0.563   1.201 -1.0712  1.3507 -0.0305
 7375TIP3   OH243539   2.024   6.216  13.317 -0.4626 -0.3773  0.1765
 7375TIP3    H143540   1.977   6.172  13.247  0.6400 -1.3340  0.0170
 7375TIP3    H243541   2.099   6.160  13.336  0.8231  1.2535  0.1919
 7376TIP3   OH243542   1.752   5.700  11.001 -0.0169  0.3518  0.0172
 7376TIP3    H143543   1.668   5.656  11.006 -0.5225  1.3243  0.3321
 7376TIP3    H243544   1.780   5.688  10.910  1.3719 -3.2433  0.7565
 7377TIP3   OH243545   4.028   5.583   1.998 -0.2277 -0.0893  0.1118
 7377TIP3    H143546   4.039   5.555   2.088  0.6727 -1.3383 -0.3565
 7377TIP3    H243547   4.107   5.552   1.953 -2.2896 -3.0400 -1.9246
 7378TIP3   OH243548   2.068   5.911  16.008  0.1541  0.2451 -0.2978
 7378TIP3    H143549   2.113   5.995  16.005 -1.2032  0.9888 -2.3351
 7378TIP3    H243550   2.134   5.849  16.038  1.8863  1.6411 -1.0587
 7379TIP3   OH243551   4.659   1.938  13.235 -1.1908 -0.4395  0.7279
 7379TIP3    H143552   4.720   1.870  13.263  1.0088  1.4012  0.6858
 7379TIP3    H243553   4.672   1.943  13.140 -1.2836  0.1099  0.7458
 7380TIP3   OH243554   2.802   6.534  15.813 -0.4765  0.2065 -0.4562
 7380TIP3    H143555   2.855   6.478  15.869 -1.3222  0.9070  1.1111
 7380TIP3    H243556   2.795   6.616  15.861 -3.8063 -0.1729 -0.0648
 7381TIP3   OH243557   0.962   5.212   0.943 -0.3838 -0.6259 -0.3500
 7381TIP3    H143558   1.002   5.127   0.927 -2.5140 -1.5741 -1.0032
 7381TIP3    H243559   0.883   5.212   0.888 -2.2923  0.3452  2.2078
 7382TIP3   OH243560   5.680   5.152  13.710 -0.3011  0.0447 -0.2788
 7382TIP3    H143561   5.596   5.182  13.744 -0.1786  0.7180 -0.5659
 7382TIP3    H243562   5.668   5.149  13.615 -0.0739 -0.0964 -0.3035
 7383TIP3   OH243563   6.116   4.906  12.072  0.1451  0.2711  0.1214
 7383TIP3    H143564   6.094   4.982  12.018  2.2084  1.1859  0.4541
 7383TIP3    H243565   6.200   4.875  12.037 -0.7922 -2.0954 -0.2061
 7384TIP3   OH243566   0.855   0.114  14.903 -0.4940  0.7055  0.0406
 7384TIP3    H143567   0.949   0.105  14.916 -0.2275  1.2072 -1.3609
 7384TIP3    H243568   0.816   0.056  14.968  0.7792  0.3394  0.5046
 7385TIP3   OH243569   0.470   0.838   5.749  0.4905 -0.4377 -0.3112
 7385TIP3    H143570   0.453   0.776   5.677 -0.5710 -0.4842 -0.0410
 7385TIP3    H243571   0.400   0.903   5.741  0.4136 -0.3940  0.6309
 7386TIP3   OH243572   5.099   1.343   4.536  0.2941 -0.6623  0.5464
 7386TIP3    H143573   5.115   1.273   4.472 -0.3551  1.7227 -2.4564
 7386TIP3    H243574   5.029   1.309   4.591 -1.5392 -1.6859 -2.1754
 7387TIP3   OH243575   5.541   4.981   4.465 -0.9355 -0.4140  0.5861
 7387TIP3    H143576   5.572   5.045   4.402 -0.9455  1.8559  2.7533
 7387TIP3    H243577   5.446   4.980   4.454 -1.1740  1.6325  1.9302
 7388TIP3   OH243578   0.103   5.784  13.125  0.4126  0.2531  0.3643
 7388TIP3    H143579   0.026   5.726  13.123  0.8853 -0.4447  1.3012
 7388TIP3    H243580   0.078   5.859  13.072  0.0108 -1.1002 -1.4838
 7389TIP3   OH243581   5.162   4.993   0.668 -0.4630 -0.1812 -0.5286
 7389TIP3    H143582   5.158   5.057   0.597 -0.2403 -1.5848 -1.8518
 7389TIP3    H243583   5.070   4.974   0.688 -0.5493  1.0504  0.3873
 7390TIP3   OH243584   5.266   1.625   2.105 -0.4355  0.5780  0.0167
 7390TIP3    H143585   5.210   1.700   2.084  0.3045  1.1566  0.0904
 7390TIP3    H243586   5.324   1.616   2.029  1.3313  1.8196  1.1622
 7391TIP3   OH243587   4.868   3.712  15.786  0.0030 -0.0232 -0.3888
 7391TIP3    H143588   4.835   3.771  15.854  1.4619  0.7032 -0.2707
 7391TIP3    H243589   4.833   3.626  15.811  0.2159  0.2880  1.0887
 7392TIP3   OH243590   3.109   0.715   4.435 -0.5926  0.7047 -0.2534
 7392TIP3    H143591   3.014   0.699   4.429 -0.2358 -1.8492 -0.1188
 7392TIP3    H243592   3.143   0.683   4.351  0.1846  1.4791 -0.2417
 7393TIP3   OH243593   3.874   3.624  16.218 -0.2895 -0.0736 -0.0549
 7393TIP3    H143594   3.826   3.583  16.147  0.5922 -1.9208  0.3767
 7393TIP3    H243595   3.966   3.609  16.197 -0.0103 -0.3875  1.3032
 7394TIP3   OH243596   4.144   2.934   3.002 -0.0108 -0.2458 -0.5137
 7394TIP3    H143597   4.125   3.027   3.012  1.0998 -0.0568  0.0858
 7394TIP3    H243598   4.240   2.929   3.009 -0.0374 -1.4040 -0.7897
 7395TIP3   OH243599   2.293   2.872  15.120  0.2345  0.1786 -0.3272
 7395TIP3    H143600   2.230   2.827  15.176  0.0721 -1.8616 -2.0020
 7395TIP3    H243601   2.368   2.812  15.116  1.5189  1.6903  0.1058
 7396TIP3   OH243602   3.336   0.503   5.644 -0.0730  0.0865 -0.6176
 7396TIP3    H143603   3.309   0.500   5.736  2.0134 -2.2757 -0.0078
 7396TIP3    H243604   3.372   0.591   5.633 -0.3241  0.4011  0.8295
 7397TIP3   OH243605   0.795   2.962  14.342  0.6147  0.1279 -0.4391
 7397TIP3    H143606   0.776   2.872  14.317 -1.2938  0.2062  0.5571
 7397TIP3    H243607   0.754   3.015  14.275 -0.2962  0.2567  0.1955
 7398TIP3   OH243608   2.252   2.778  15.665  0.2991  0.3760  0.0291
 7398TIP3    H143609   2.326   2.745  15.717 -1.4581 -1.7103  1.3518
 7398TIP3    H243610   2.194   2.818  15.729  0.5386  2.7022 -1.0929
 7399TIP3   OH243611   1.558   5.849  16.362  0.0817 -0.1272 -0.2302
 7399TIP3    H143612   1.592   5.937  16.374  0.3327 -0.0046 -1.6426
 7399TIP3    H243613   1.477   5.847  16.413  1.0124  0.3068  1.3193
 7400TIP3   OH243614   3.067   6.345  12.316 -0.0471  0.3655 -0.3541
 7400TIP3    H143615   3.010   6.419  12.294  0.9822  1.9257  1.8938
 7400TIP3    H243616   3.013   6.289  12.372 -0.2723  0.2921 -0.6385
 7401TIP3   OH243617   6.233   2.986   4.274 -0.1575 -0.3777  0.4125
 7401TIP3    H143618   6.208   2.917   4.213  0.6217 -0.0636 -0.2749
 7401TIP3    H243619   6.167   3.054   4.262 -1.3172 -1.2636  1.5758
 7402TIP3   OH243620   2.423   1.191  15.369  1.0442 -0.4220 -0.4441
 7402TIP3    H143621   2.409   1.203  15.275  1.8467  3.5954 -0.2237
 7402TIP3    H243622   2.510   1.229  15.385  1.5136 -2.2386  1.7673
 7403TIP3   OH243623   0.830   2.246   2.959  0.3825 -0.7025 -0.8065
 7403TIP3    H143624   0.836   2.225   3.052  1.7529  1.0398 -0.4335
 7403TIP3    H243625   0.921   2.255   2.930 -0.0209  1.1350 -1.6991
 7404TIP3   OH243626   6.130   6.048  15.600 -0.0800 -0.3351 -0.1048
 7404TIP3    H143627   6.184   6.043  15.521  0.9477 -0.1298  0.5696
 7404TIP3    H243628   6.081   5.966  15.600 -0.4220 -0.1462 -1.1860
 7405TIP3   OH243629   5.088   1.028   3.078  0.4341 -0.6212  0.7369
 7405TIP3    H143630   5.007   1.011   3.127 -1.4246  2.0760 -1.0904
 7405TIP3    H243631   5.146   1.069   3.142 -1.4697  1.6934  1.1235
 7406TIP3   OH243632   5.635   3.187  13.653 -0.1362  0.8772 -0.1402
 7406TIP3    H143633   5.589   3.125  13.711 -0.5725  1.9893  0.7394
 7406TIP3    H243634   5.656   3.135  13.575  3.3728 -1.6869  2.1904
 7407TIP3   OH243635   2.908   6.041   2.397  0.3800  0.4893 -0.3427
 7407TIP3    H143636   2.907   5.949   2.425  0.0204 -0.0705 -2.0193
 7407TIP3    H243637   2.930   6.090   2.475  1.3690 -1.0990  0.4334
 7408TIP3   OH243638   2.790   0.031  15.477  0.0255 -0.2737  0.4333
 7408TIP3    H143639   2.843   0.084  15.537  1.9774 -1.3831 -0.2067
 7408TIP3    H243640   2.763   0.092  15.409  2.1580 -0.0099 -0.2466
 7409TIP3   OH243641   3.344   2.779   4.510 -0.1517 -0.0325 -0.0306
 7409TIP3    H143642   3.275   2.720   4.540  0.6537 -1.3557 -0.6705
 7409TIP3    H243643   3.304   2.830   4.440 -1.5272  1.8556  1.9819
 7410TIP3   OH243644   5.804   4.478   4.782 -0.2198  0.4071  0.1230
 7410TIP3    H143645   5.860   4.556   4.783 -0.2941  0.5236 -1.8028
 7410TIP3    H243646   5.858   4.409   4.745 -0.8662  0.1187 -0.3004
 7411TIP3   OH243647   0.718   0.126  14.394 -0.0880 -0.6336 -0.0324
 7411TIP3    H143648   0.739   0.136  14.486 -0.2497 -2.3735  0.2360
 7411TIP3    H243649   0.761   0.045  14.368  2.4796  1.2641 -2.3204
 7412TIP3   OH243650   2.414   4.130   1.997 -0.1246  0.0417 -0.4574
 7412TIP3    H143651   2.493   4.185   2.004 -0.7547  0.8465  0.8534
 7412TIP3    H243652   2.441   4.045   2.032  0.5736 -0.1760 -1.4882
 7413TIP3   OH243653   0.236   1.824   3.948  0.4992  0.1862 -0.1900
 7413TIP3    H143654   0.150   1.857   3.924  0.5040 -1.6639 -3.2844
 7413TIP3    H243655   0.220   1.736   3.981  1.1429  0.1137 -0.0538
 7414TIP3   OH243656   3.965   1.886  12.552 -0.3554 -0.5140  0.0302
 7414TIP3    H143657   3.950   1.926  12.638 -1.1364  0.2004 -0.4166
 7414TIP3    H243658   4.060   1.881  12.544 -0.2691 -0.1210  0.7266
 7415TIP3   OH243659   1.624   6.358  15.959 -0.4525  0.2394 -0.6256
 7415TIP3    H143660   1.572   6.433  15.930 -1.1518 -0.5694 -1.5131
 7415TIP3    H243661   1.691   6.396  16.016 -1.5272  1.3931 -0.0857
 7416TIP3   OH243662   2.918   1.677   6.666 -0.7086 -0.6304 -0.3148
 7416TIP3    H143663   2.963   1.595   6.688  0.5077  0.1614  0.2729
 7416TIP3    H243664   2.828   1.663   6.694 -0.6984 -2.0173 -0.8881
 7417TIP3   OH243665   1.148   0.519  11.867 -0.0592  0.6201  0.1634
 7417TIP3    H143666   1.148   0.604  11.824 -0.2392 -0.3735 -1.9147
 7417TIP3    H243667   1.057   0.503  11.890 -0.1946  0.5115 -0.4470
 7418TIP3   OH243668   6.609   3.760   3.541  0.4232  0.3273 -0.3369
 7418TIP3    H143669   6.541   3.703   3.505  0.4946 -1.1825  1.7609
 7418TIP3    H243670   6.675   3.764   3.471 -0.2550 -0.9815 -1.1105
 7419TIP3   OH243671   4.486   1.577   2.404  0.3240 -0.3064  0.1030
 7419TIP3    H143672   4.508   1.667   2.382 -2.7822  0.4081 -0.6481
 7419TIP3    H243673   4.485   1.531   2.319 -0.9837 -0.2636  0.0724
 7420TIP3   OH243674   0.369   1.103   0.433 -0.5510 -0.1060  1.0694
 7420TIP3    H143675   0.303   1.038   0.458 -0.7696  0.2930  1.5556
 7420TIP3    H243676   0.323   1.163   0.374 -0.4424 -0.2018  0.8872
 7421TIP3   OH243677   0.866   5.222  17.204  0.2848  0.2485 -0.3330
 7421TIP3    H143678   0.841   5.315  17.209 -2.5949 -0.3744 -1.1522
 7421TIP3    H243679   0.813   5.187  17.133 -0.1996 -2.4612  1.2312
 7422TIP3   OH243680   1.955   2.409   4.285  0.7261 -0.6594  0.2427
 7422TIP3    H143681   1.894   2.337   4.277 -0.4844  0.2914  0.6542
 7422TIP3    H243682   2.031   2.382   4.234  0.0963 -1.9911 -0.0243
 7423TIP3   OH243683   6.138   4.029   2.796 -0.2901  0.6783  1.3933
 7423TIP3    H143684   6.143   4.005   2.888 -1.4140  2.6533  2.0232
 7423TIP3    H243685   6.226   4.058   2.773  0.1845 -0.5287  1.5975
 7424TIP3   OH243686   4.498   1.301   1.880 -0.3563 -0.6254  0.3337
 7424TIP3    H143687   4.525   1.214   1.852 -0.4581 -0.2099 -1.1242
 7424TIP3    H243688   4.408   1.309   1.849 -0.3443 -0.0027  0.4563
 7425TIP3   OH243689   5.830   5.157   3.912  0.6055  0.2564 -0.0870
 7425TIP3    H143690   5.883   5.237   3.908  0.4615  0.4490  1.3804
 7425TIP3    H243691   5.787   5.152   3.827  1.5582  1.0861 -0.6324
 7426TIP3   OH243692   1.376   0.790  17.039  0.9354 -0.9205  0.1093
 7426TIP3    H143693   1.435   0.808  16.966 -0.7047  2.1421 -0.6422
 7426TIP3    H243694   1.392   0.861  17.101 -0.8035 -0.8982  0.5931
 7427TIP3   OH243695   5.996   4.617  16.571 -0.3282 -0.6109  0.2066
 7427TIP3    H143696   6.081   4.604  16.612  0.5528 -0.1715 -1.3852
 7427TIP3    H243697   5.942   4.658  16.639  1.8800  2.6383  0.2268
 7428TIP3   OH243698   4.659   3.073  14.863  0.0351  0.1111  0.5728
 7428TIP3    H143699   4.572   3.042  14.890 -0.1926  0.7277  0.5641
 7428TIP3    H243700   4.676   3.028  14.781  0.2310 -0.9033  1.1478
 7429TIP3   OH243701   6.276   1.015  16.064 -0.2443 -0.2797  0.2930
 7429TIP3    H143702   6.301   1.093  16.015 -0.1258 -0.0644  0.6923
 7429TIP3    H243703   6.217   0.967  16.005  0.1460 -0.1809 -0.1781
 7430TIP3   OH243704   2.952   4.872  12.286 -0.1171 -0.1893  0.1687
 7430TIP3    H143705   2.946   4.920  12.203 -0.2683  1.5227  1.1236
 7430TIP3    H243706   2.916   4.786  12.266 -1.0148  0.4837 -1.3263
 7431TIP3   OH243707   0.522   2.123   0.819  0.1443  0.1474 -0.1373
 7431TIP3    H143708   0.587   2.141   0.751 -0.8581 -1.6939 -1.6682
 7431TIP3    H243709   0.460   2.196   0.812  0.8862  0.7978 -0.0996
 7432TIP3   OH243710   2.838   2.118   1.742 -0.3688  0.0221 -0.3811
 7432TIP3    H143711   2.874   2.103   1.654 -1.4144 -0.9373 -0.6757
 7432TIP3    H243712   2.857   2.037   1.789 -3.6722 -1.3698 -1.1197
 7433TIP3   OH243713   4.374   5.168  12.318  0.4203 -0.1167  0.0195
 7433TIP3    H143714   4.438   5.121  12.266 -0.4330  0.0835 -1.2518
 7433TIP3    H243715   4.421   5.194  12.397  0.7434 -3.7386  1.2032
 7434TIP3   OH243716   3.717   2.331   6.158  0.2074 -0.3733 -0.2583
 7434TIP3    H143717   3.628   2.296   6.145 -1.3364  1.9635  2.7265
 7434TIP3    H243718   3.745   2.296   6.242  0.7716  1.2895  0.2853
 7435TIP3   OH243719   0.204   0.431  13.160 -0.4433 -0.2535  0.2764
 7435TIP3    H143720   0.240   0.458  13.076 -1.0961  1.0637  0.3908
 7435TIP3    H243721   0.275   0.384  13.203  0.0021 -0.6624 -0.8729
 7436TIP3   OH243722   6.778   2.910   0.117 -0.5961 -0.0319 -0.0725
 7436TIP3    H143723   6.863   2.866   0.116 -1.5316 -1.9763  0.9014
 7436TIP3    H243724   6.759   2.924   0.210 -1.0681  0.9656 -0.3052
 7437TIP3   OH243725   1.621   3.333   0.999 -0.4296 -0.5932  0.0018
 7437TIP3    H143726   1.586   3.327   1.088  0.8424 -1.5427  0.4561
 7437TIP3    H243727   1.699   3.278   0.999 -0.0958 -0.1831 -1.5617
 7438TIP3   OH243728   1.043   5.722   3.746 -0.3426  0.3028  0.3943
 7438TIP3    H143729   1.033   5.672   3.827  0.1973 -1.3905 -0.5381
 7438TIP3    H243730   0.962   5.704   3.697 -0.4766  0.9684  0.3640
 7439TIP3   OH243731   4.704   6.359   6.196 -0.1618  0.0249  0.4643
 7439TIP3    H143732   4.692   6.422   6.124  1.8875 -0.1744 -0.1239
 7439TIP3    H243733   4.762   6.292   6.159  0.0385 -0.6654  1.9791
 7440TIP3   OH243734   5.892   4.895  15.567 -0.7417  0.0913  0.4259
 7440TIP3    H143735   5.970   4.938  15.533 -0.8953 -0.1861 -0.2954
 7440TIP3    H243736   5.894   4.808  15.528 -0.3198 -0.6536  2.0374
 7441TIP3   OH243737   2.503   1.470   6.142  0.1772  0.0403 -0.3781
 7441TIP3    H143738   2.585   1.421   6.135  0.3659  0.1851  0.6295
 7441TIP3    H243739   2.523   1.542   6.202 -0.3248  0.8775 -1.1914
 7442TIP3   OH243740   0.366   0.929  11.379  0.4765 -0.2407  0.1569
 7442TIP3    H143741   0.372   0.982  11.299  2.2761  1.4436  1.3054
 7442TIP3    H243742   0.430   0.859  11.366 -0.0792 -0.6612 -0.3421
 7443TIP3   OH243743   1.260   5.147  11.410  0.5661 -0.5615  0.2339
 7443TIP3    H143744   1.346   5.110  11.428  1.5416  0.3446 -2.2031
 7443TIP3    H243745   1.212   5.078  11.364  0.9197 -0.2337 -0.6489
 7444TIP3   OH243746   6.657   1.628  11.260  0.5474  0.8459 -0.5108
 7444TIP3    H143747   6.737   1.623  11.209  0.6757 -0.6109 -0.1989
 7444TIP3    H243748   6.603   1.692  11.213  0.9416  0.0944 -2.0411
 7445TIP3   OH243749   5.522   6.806  14.337  0.0491 -0.1661 -0.8407
 7445TIP3    H143750   5.564   6.880  14.293  0.8301  0.6688  1.1899
 7445TIP3    H243751   5.589   6.737  14.338  0.5125  0.2793  0.1541
 7446TIP3   OH243752   0.589   0.375   5.208  0.1327  0.3962  0.1461
 7446TIP3    H143753   0.634   0.400   5.128 -1.3740  1.0534 -0.5302
 7446TIP3    H243754   0.604   0.281   5.215  0.4050  0.3524 -0.8288
 7447TIP3   OH243755   6.656   1.198  15.327  0.4381 -0.2240 -0.1931
 7447TIP3    H143756   6.563   1.215  15.344  0.2617  0.3119 -1.5487
 7447TIP3    H243757   6.686   1.276  15.281  0.7386 -1.7092 -2.6545
 7448TIP3   OH243758   4.447   5.194   0.541  0.1704  0.2852 -0.6340
 7448TIP3    H143759   4.448   5.267   0.480  2.2761  0.4201 -0.5240
 7448TIP3    H243760   4.536   5.159   0.538  0.3669  0.2832  2.3084
 7449TIP3   OH243761   2.875   5.229  14.448  0.1769  0.1731  0.6620
 7449TIP3    H143762   2.888   5.321  14.429  1.7146 -0.4068 -1.5437
 7449TIP3    H243763   2.835   5.227  14.535  0.6785  2.8640  1.0290
 7450TIP3   OH243764   1.536   3.081   6.455 -0.2041 -0.4139 -0.4306
 7450TIP3    H143765   1.529   3.175   6.439 -0.1565  0.2744  2.9929
 7450TIP3    H243766   1.625   3.069   6.488 -1.2390 -1.0024  2.3861
 7451TIP3   OH243767   4.480   0.502  11.525  0.1366 -0.2512  0.2822
 7451TIP3    H143768   4.475   0.472  11.434  0.3921  0.9649 -0.1506
 7451TIP3    H243769   4.564   0.547  11.530 -1.4802  3.1126 -0.0018
 7452TIP3   OH243770   5.979   5.399   3.948 -0.2295  0.4717 -0.2890
 7452TIP3    H143771   5.988   5.468   3.882  1.1651 -0.6114 -1.3175
 7452TIP3    H243772   6.037   5.426   4.019  1.8693 -0.5050 -1.5349
 7453TIP3   OH243773   4.907   3.296   2.796 -0.1201  1.0505 -0.9172
 7453TIP3    H143774   4.853   3.327   2.724  1.3098  0.7443 -2.1569
 7453TIP3    H243775   4.857   3.225   2.835  0.2985 -0.7963 -3.4899
 7454TIP3   OH243776   2.748   2.012   0.331  0.5645  0.0706  0.2310
 7454TIP3    H143777   2.776   2.041   0.418 -0.6610  0.7870  0.4138
 7454TIP3    H243778   2.814   2.046   0.271  0.8939  0.4246  0.7859
 7455TIP3   OH243779   3.474   4.940  13.447  0.0040 -0.3513  0.0245
 7455TIP3    H143780   3.557   4.982  13.428  1.0214 -0.6420  3.1942
 7455TIP3    H243781   3.463   4.876  13.376  3.2561 -1.3158  0.1946
 7456TIP3   OH243782   1.224   3.818  16.792 -0.6352 -0.3855  0.6093
 7456TIP3    H143783   1.269   3.895  16.759 -1.9237 -0.1094 -0.5985
 7456TIP3    H243784   1.236   3.822  16.887  0.8302  0.3017  0.4246
 7457TIP3   OH243785   1.779   1.363   4.563 -0.4976 -0.3885  0.2244
 7457TIP3    H143786   1.691   1.357   4.600 -0.7244 -0.1845 -0.2782
 7457TIP3    H243787   1.829   1.297   4.612 -0.7488 -0.0161  0.9961
 7458TIP3   OH243788   4.243   3.415   2.596  0.6619  0.4062  0.0779
 7458TIP3    H143789   4.325   3.454   2.627 -0.0993  1.7918  0.4436
 7458TIP3    H243790   4.225   3.458   2.513  1.8218 -2.0921 -1.5720
 7459TIP3   OH243791   3.687   6.777  16.912  1.1068 -0.5805 -0.2304
 7459TIP3    H143792   3.618   6.760  16.848  0.1817  0.9547  0.3007
 7459TIP3    H243793   3.651   6.747  16.995  0.0330  2.2292  0.4590
 7460TIP3   OH243794   4.870   1.000   2.294  0.8508  0.8633  0.0940
 7460TIP3    H143795   4.882   1.083   2.340  1.3494  0.2135  1.1732
 7460TIP3    H243796   4.958   0.965   2.284  0.6563  0.5196 -0.4809
 7461TIP3   OH243797   3.015   0.527  14.479  0.0882  0.2999  0.1541
 7461TIP3    H143798   3.087   0.465  14.468 -0.7596 -0.4748 -1.3188
 7461TIP3    H243799   3.059   0.611  14.491  1.2570 -0.0863 -1.1122
 7462TIP3   OH243800   3.205   2.429  13.573  0.7644  0.4092  0.6063
 7462TIP3    H143801   3.171   2.436  13.662  1.1258  1.7067  0.6642
 7462TIP3    H243802   3.196   2.517  13.537  1.2547  0.0587 -0.4077
 7463TIP3   OH243803   4.242   6.420   2.141  0.8964  0.8415  0.3097
 7463TIP3    H143804   4.196   6.339   2.162  0.0780  0.3919 -2.7388
 7463TIP3    H243805   4.327   6.412   2.185  0.9024 -1.7844 -0.0469
 7464TIP3   OH243806   5.094   6.084  14.417 -0.1307 -0.4978 -1.1229
 7464TIP3    H143807   5.169   6.142  14.423 -0.5494 -0.0693  0.4684
 7464TIP3    H243808   5.126   6.007  14.370  0.7870  0.4460 -2.0706
 7465TIP3   OH243809   0.382   3.709  12.291 -0.3519  0.5482  0.0738
 7465TIP3    H143810   0.405   3.635  12.235 -0.6614  0.6340 -0.1707
 7465TIP3    H243811   0.427   3.692  12.373 -0.1466  0.2601 -0.0959
 7466TIP3   OH243812   0.257   2.615  15.639 -0.2859 -0.0480  0.0920
 7466TIP3    H143813   0.195   2.546  15.663 -0.9393 -1.3324 -4.2839
 7466TIP3    H243814   0.210   2.697  15.657 -1.9141 -0.9277  0.0340
 7467TIP3   OH243815   1.565   0.326  14.265  0.0571 -0.3681  0.0147
 7467TIP3    H143816   1.586   0.309  14.173 -1.1722  1.9165 -0.7709
 7467TIP3    H243817   1.516   0.408  14.264 -0.7028 -0.6764  2.6501
 7468TIP3   OH243818   0.461   2.367  12.290  0.2255  0.4371 -0.2611
 7468TIP3    H143819   0.549   2.376  12.326 -0.2934  0.1311  1.1635
 7468TIP3    H243820   0.429   2.457  12.281  0.6715  0.5475 -0.7849
 7469TIP3   OH243821   2.611   1.776   1.822 -0.4762 -0.1794 -0.1675
 7469TIP3    H143822   2.654   1.789   1.907 -0.6120  0.7471 -0.2292
 7469TIP3    H243823   2.676   1.806   1.758 -1.0000  0.7364 -0.2901
 7470TIP3   OH243824   6.253   5.737   0.314  0.9977  0.4114 -0.3000
 7470TIP3    H143825   6.210   5.817   0.282 -2.5324 -0.4294  1.7985
 7470TIP3    H243826   6.315   5.715   0.245 -1.0866  2.5097 -3.1200
 7471TIP3   OH243827   3.992   2.763   3.901 -0.1501  0.4621  0.4283
 7471TIP3    H143828   3.904   2.798   3.891  0.0059  1.3824  2.0575
 7471TIP3    H243829   4.042   2.806   3.831 -0.7797  0.6339  0.0739
 7472TIP3   OH243830   6.706   2.049  14.361  0.2504 -0.5324 -0.0858
 7472TIP3    H143831   6.726   2.142  14.350 -1.2120 -0.1678  0.1613
 7472TIP3    H243832   6.629   2.035  14.305 -0.8912 -1.0653  1.5586
 7473TIP3   OH243833   6.555   3.519   1.399  0.1352  0.2119  0.2463
 7473TIP3    H143834   6.551   3.427   1.427  0.0582  0.4381  1.0016
 7473TIP3    H243835   6.473   3.533   1.350  0.8637 -0.5439 -1.2528
 7474TIP3   OH243836   0.463   2.785   0.542  0.1218  0.2293  0.9415
 7474TIP3    H143837   0.444   2.829   0.458  0.7250 -1.3411 -0.0701
 7474TIP3    H243838   0.386   2.805   0.596 -0.4959  0.9224 -0.1268
 7475TIP3   OH243839   3.032   6.390  13.825  0.3383 -0.5562  0.8004
 7475TIP3    H143840   2.940   6.416  13.835  0.1908  0.1779 -1.6935
 7475TIP3    H243841   3.082   6.461  13.867 -0.2180  0.3000  0.0621
 7476TIP3   OH243842   4.924   0.844  16.982  0.2068  0.0007 -0.0853
 7476TIP3    H143843   4.846   0.840  16.927 -1.0404  1.4539  1.4706
 7476TIP3    H243844   4.964   0.928  16.960  0.0237  0.3233  0.7787
 7477TIP3   OH243845   6.049   1.846   5.128 -0.2180 -0.3695 -0.1063
 7477TIP3    H143846   6.019   1.761   5.095 -0.6084 -1.2030  2.1723
 7477TIP3    H243847   5.981   1.907   5.101  0.1553 -0.7196 -1.9356
 7478TIP3   OH243848   3.005   4.521  15.635  0.0844  0.2426  0.0983
 7478TIP3    H143849   3.000   4.447  15.575 -0.1340  0.0917  0.2977
 7478TIP3    H243850   3.019   4.481  15.721 -1.8990  0.2786  0.5062
 7479TIP3   OH243851   1.058   4.031   2.451 -0.2520 -0.0840 -0.0156
 7479TIP3    H143852   1.118   4.102   2.474  0.2604 -0.6519  0.4111
 7479TIP3    H243853   1.113   3.954   2.443 -0.9766 -0.7100  0.7931
 7480TIP3   OH243854   1.520   4.314   1.298 -0.0281  0.4785 -0.1448
 7480TIP3    H143855   1.466   4.286   1.372 -0.0765 -2.7863 -1.2626
 7480TIP3    H243856   1.606   4.330   1.335 -0.0728 -1.0116  0.6785
 7481TIP3   OH243857   1.173   0.542  13.664  0.5665  0.3977 -0.5684
 7481TIP3    H143858   1.252   0.505  13.624  0.2911 -0.9702  0.1073
 7481TIP3    H243859   1.144   0.610  13.602  0.3242 -1.4313 -2.5708
 7482TIP3   OH243860   5.881   6.506  15.501  0.0018 -0.4074  0.0767
 7482TIP3    H143861   5.928   6.572  15.451  0.6447  0.7736  2.1330
 7482TIP3    H243862   5.944   6.434  15.511  0.5676  0.1756  0.8116
 7483TIP3   OH243863   5.075   4.609  11.498  0.0949 -0.1919  0.1617
 7483TIP3    H143864   5.116   4.660  11.429  3.7999 -0.7339  1.7511
 7483TIP3    H243865   5.044   4.674  11.561  2.2516  0.2867  0.8223
 7484TIP3   OH243866   1.946   5.599  15.249  0.0513  0.8761  0.0175
 7484TIP3    H143867   1.994   5.621  15.169 -0.1469  1.7701  0.1300
 7484TIP3    H243868   2.015   5.581  15.313  0.2163  0.6205 -0.2284
 7485TIP3   OH243869   5.580   6.206  12.263  0.3743 -0.8651 -0.0998
 7485TIP3    H143870   5.670   6.183  12.287  0.1345  0.4155  2.3522
 7485TIP3    H243871   5.585   6.298  12.238  0.0041 -1.2718 -1.7634
 7486TIP3   OH243872   1.085   5.656  16.664  0.1005  0.2929 -0.3289
 7486TIP3    H143873   1.138   5.721  16.710  1.4421 -1.6559  1.0729
 7486TIP3    H243874   1.125   5.572  16.687 -1.5453 -1.0556 -2.0399
 7487TIP3   OH243875   0.444   6.652  16.941 -0.1203  0.1797 -0.1429
 7487TIP3    H143876   0.357   6.642  16.980  0.2806 -0.2137  0.6925
 7487TIP3    H243877   0.503   6.607  17.003  0.7806  1.1512 -0.2691
 7488TIP3   OH243878   4.690   2.407  11.352 -0.8950  0.1599  0.0079
 7488TIP3    H143879   4.689   2.503  11.354  0.3169  0.2035  2.4029
 7488TIP3    H243880   4.764   2.385  11.296 -0.5447  0.6664  0.2606
 7489TIP3   OH243881   4.725   4.018  12.113  0.5950  0.5028 -0.1474
 7489TIP3    H143882   4.790   3.978  12.055 -0.5160 -1.8824  0.1176
 7489TIP3    H243883   4.684   4.086  12.060  1.0217 -0.2231 -1.4549
 7490TIP3   OH243884   4.492   4.805  16.741 -0.1198 -0.5715 -0.5678
 7490TIP3    H143885   4.536   4.726  16.710  0.3824 -0.6177  0.2546
 7490TIP3    H243886   4.557   4.852  16.792  0.7991  2.2335 -3.8994
 7491TIP3   OH243887   3.858   1.808   1.341 -0.3299  0.1389  0.4393
 7491TIP3    H143888   3.935   1.822   1.395 -0.6402  1.0492  0.6711
 7491TIP3    H243889   3.860   1.716   1.318  1.0624  0.2468  0.0836
 7492TIP3   OH243890   5.914   6.447  15.888  0.1813 -0.4776 -0.1837
 7492TIP3    H143891   6.005   6.474  15.889 -0.2011  0.9201 -1.1529
 7492TIP3    H243892   5.888   6.447  15.980  0.5844  1.1581 -0.0550
 7493TIP3   OH243893   6.652   6.337  13.887  0.3607  0.6758  0.4098
 7493TIP3    H143894   6.683   6.427  13.882  0.2555  0.7403  0.9338
 7493TIP3    H243895   6.731   6.286  13.906  0.3157  0.7290  0.7458
 7494TIP3   OH243896   2.233   0.146  13.223  0.3335 -0.0558 -0.0231
 7494TIP3    H143897   2.280   0.220  13.262  1.0904 -0.6766  0.2758
 7494TIP3    H243898   2.181   0.185  13.153  1.4385  0.6448 -0.4925
 7495TIP3   OH243899   0.752   4.983  10.909  0.7785 -0.5784 -0.2061
 7495TIP3    H143900   0.797   4.989  10.825  0.1564 -0.0904 -0.5114
 7495TIP3    H243901   0.667   5.025  10.894  0.4170 -1.0450  0.4958
 7496TIP3   OH243902   1.169   3.005  12.913 -0.1932 -0.3024 -0.2330
 7496TIP3    H143903   1.157   3.052  12.830 -2.2371  0.3108  0.3464
 7496TIP3    H243904   1.215   3.068  12.969 -0.2101 -0.1177 -0.4234
 7497TIP3   OH243905   5.581   2.916   0.027 -0.0365 -0.6174 -0.1402
 7497TIP3    H143906   5.591   2.984   0.093 -0.5159 -0.5865 -0.0921
 7497TIP3    H243907   5.645   2.939  -0.041 -0.0485 -0.2377 -0.0279
 7498TIP3   OH243908   2.350   0.562  12.268 -0.2416  0.7098 -0.1229
 7498TIP3    H143909   2.427   0.557  12.211 -0.9211 -0.7093 -0.9742
 7498TIP3    H243910   2.376   0.518  12.349 -0.6335 -1.4113 -1.0590
 7499TIP3   OH243911   0.609   0.874  14.314 -0.6501 -0.0882 -0.0283
 7499TIP3    H143912   0.697   0.904  14.291 -1.0572 -0.1238 -1.7336
 7499TIP3    H243913   0.608   0.875  14.410  1.4325 -0.7904  0.0456
 7500TIP3   OH243914   5.147   4.546  12.658  0.5353 -0.2389 -0.3080
 7500TIP3    H143915   5.121   4.577  12.744 -0.0419 -0.2107 -0.4914
 7500TIP3    H243916   5.219   4.485  12.675  1.2843  0.7271  0.0970
 7501TIP3   OH243917   5.133   2.935  13.322 -0.4045 -0.9313  0.1014
 7501TIP3    H143918   5.084   3.013  13.349  1.0379  0.1383 -0.2511
 7501TIP3    H243919   5.205   2.929  13.385 -0.0007 -1.4615 -0.3998
 7502TIP3   OH243920   4.352   6.581  12.075  0.1261  0.4854  0.7030
 7502TIP3    H143921   4.301   6.646  12.027  0.8016  0.6278  0.1659
 7502TIP3    H243922   4.438   6.580  12.031 -0.1877 -1.5106  0.0114
 7503TIP3   OH243923   1.384   5.459  12.314  0.6553  0.7155  0.1863
 7503TIP3    H143924   1.470   5.489  12.285 -0.7514  2.2812 -2.7606
 7503TIP3    H243925   1.329   5.538  12.311 -1.4540 -0.6944 -0.4516
 7504TIP3   OH243926   6.802   2.548  13.086  0.2851  0.4673 -0.2328
 7504TIP3    H143927   6.829   2.592  13.167 -0.2773  1.2562 -0.4518
 7504TIP3    H243928   6.737   2.607  13.048 -1.6870 -1.2929  0.2372
 7505TIP3   OH243929   1.619   1.625  12.552 -0.2531 -0.2864  0.5225
 7505TIP3    H143930   1.637   1.531  12.553 -0.1524 -0.3235  2.8626
 7505TIP3    H243931   1.638   1.653  12.463  0.5700 -2.3248  0.0017
 7506TIP3   OH243932   5.086   5.666   1.994 -0.2045  0.4227 -0.0587
 7506TIP3    H143933   5.036   5.730   1.942 -3.9009 -1.9888  0.1542
 7506TIP3    H243934   5.072   5.583   1.949  1.8764 -0.7726  1.3549
 7507TIP3   OH243935   5.025   6.000   0.047 -0.2003  0.1810 -0.5534
 7507TIP3    H143936   4.994   6.006   0.137 -1.3566  0.3354 -0.9352
 7507TIP3    H243937   5.057   6.088   0.027 -1.7076  0.6890 -0.8733
 7508TIP3   OH243938   6.790   0.969  15.609 -0.4196 -0.1303  0.2830
 7508TIP3    H143939   6.857   0.921  15.659 -0.8607  1.2128  2.2806
 7508TIP3    H243940   6.799   1.059  15.639 -1.8468  0.4201 -0.8828
 7509TIP3   OH243941   1.420   5.204  12.105 -0.0982 -0.1294  0.1641
 7509TIP3    H143942   1.379   5.225  12.189  0.0295  0.7321  0.0231
 7509TIP3    H243943   1.358   5.147  12.062  0.0498 -0.9729  1.0389
 7510TIP3   OH243944   0.628   4.098   3.778  0.3903  0.2089  0.4456
 7510TIP3    H143945   0.680   4.176   3.762 -1.2491  1.2361 -0.0792
 7510TIP3    H243946   0.631   4.050   3.695 -0.0925  0.6321  0.1814
 7511TIP3   OH243947   5.099   5.019   2.020 -0.0933  0.1671 -0.3095
 7511TIP3    H143948   5.132   5.088   2.077 -0.4591 -0.1660  0.3174
 7511TIP3    H243949   5.059   5.065   1.946  0.1664  0.6078 -0.1718
 7512TIP3   OH243950   0.875   4.702   1.355 -0.2762  0.1682 -0.4430
 7512TIP3    H143951   0.886   4.629   1.295 -0.0977  0.6770 -1.0449
 7512TIP3    H243952   0.964   4.732   1.373 -0.3536  0.3256 -0.3171
 7513TIP3   OH243953   3.858   5.972  15.496 -0.1454  0.2478 -0.1532
 7513TIP3    H143954   3.826   5.931  15.415 -0.4173  1.0324 -0.4577
 7513TIP3    H243955   3.901   6.052  15.466  0.4455  0.1496  0.4219
 7514TIP3   OH243956   3.893   1.426   1.310  0.5177  0.6139 -0.3496
 7514TIP3    H143957   3.860   1.336   1.314  0.8267  0.5198  0.0499
 7514TIP3    H243958   3.874   1.462   1.396  2.6980  0.1246  0.3890
 7515TIP3   OH243959   3.539   5.954   4.485 -0.0497 -0.6860  0.1255
 7515TIP3    H143960   3.553   6.028   4.543  1.0746  0.0638 -1.0605
 7515TIP3    H243961   3.458   5.974   4.438 -0.2535 -0.6650  0.4903
 7516TIP3   OH243962   4.329   3.990   2.774 -0.1205 -0.2097 -0.7295
 7516TIP3    H143963   4.391   4.014   2.706  0.0029 -0.6283 -0.7673
 7516TIP3    H243964   4.250   4.039   2.753 -0.1908 -0.5822 -1.3625
 7517TIP3   OH243965   1.012   1.601  16.351  0.3660 -0.5115 -0.4497
 7517TIP3    H143966   0.960   1.553  16.286 -0.1709 -0.6981  0.1060
 7517TIP3    H243967   0.948   1.654  16.399  0.9420  0.7590 -1.0262
 7518TIP3   OH243968   1.052   4.883  12.398 -0.0300  0.4684  1.0882
 7518TIP3    H143969   1.043   4.932  12.316 -1.1864 -1.8571 -0.2634
 7518TIP3    H243970   0.976   4.911  12.450  0.3076  1.4153  1.0969
 7519TIP3   OH243971   2.899   5.486  14.399 -0.0394  0.2322 -0.3010
 7519TIP3    H143972   2.955   5.551  14.443  1.6517 -1.0571 -0.4352
 7519TIP3    H243973   2.810   5.511  14.423  0.6888  1.1351  1.6918
 7520TIP3   OH243974   3.474   6.221   4.297  0.1576  0.4335  0.0844
 7520TIP3    H143975   3.510   6.295   4.347  0.0027 -0.9342  2.3468
 7520TIP3    H243976   3.383   6.215   4.326  0.7244 -1.9082  1.5931
 7521TIP3   OH243977   3.242   6.313   2.424 -0.2327 -0.1441  0.3541
 7521TIP3    H143978   3.238   6.224   2.458 -0.2703 -0.2659  0.0324
 7521TIP3    H243979   3.332   6.322   2.393 -0.4636 -0.3576 -0.3883
 7522TIP3   OH243980   0.132   0.789   5.239 -0.3295 -0.6833 -0.1655
 7522TIP3    H143981   0.163   0.879   5.234 -0.6006 -0.5518  0.4631
 7522TIP3    H243982   0.160   0.749   5.156  1.5880 -0.6136  0.4125
 7523TIP3   OH243983   0.477   3.963   4.934 -0.4706  0.8844 -0.2051
 7523TIP3    H143984   0.548   3.947   4.996 -3.0868  1.3686  3.2113
 7523TIP3    H243985   0.442   3.875   4.916 -2.0827  0.8993  2.2844
 7524TIP3   OH243986   5.801   2.190   1.788  0.1899  0.1419 -0.0579
 7524TIP3    H143987   5.742   2.225   1.722 -1.4526 -1.5086  0.4605
 7524TIP3    H243988   5.872   2.255   1.793 -0.2979  0.9683 -2.4448
 7525TIP3   OH243989   0.820   1.772  11.306  0.7945 -0.3365 -0.5309
 7525TIP3    H143990   0.770   1.854  11.295 -0.7622 -1.1638  0.0624
 7525TIP3    H243991   0.758   1.703  11.282  1.2642 -1.4777  1.3768
 7526TIP3   OH243992   3.162   0.743  11.660 -0.4739  0.8172  0.8202
 7526TIP3    H143993   3.153   0.822  11.607 -0.7835 -0.0407 -0.4382
 7526TIP3    H243994   3.138   0.671  11.602  1.3191 -0.3701  1.4326
 7527TIP3   OH243995   5.365   2.930  10.690  0.3248 -0.0233 -0.0023
 7527TIP3    H143996   5.384   2.839  10.710  1.4967  0.7820  3.0513
 7527TIP3    H243997   5.281   2.947  10.733  1.1544  0.8640  1.3020
 7528TIP3   OH243998   0.294   6.320   0.970 -0.0347 -0.1666 -0.8112
 7528TIP3    H143999   0.322   6.336   0.880 -1.1285  1.4139 -0.9035
 7528TIP3    H244000   0.210   6.275   0.962 -1.0457  1.5928 -0.6554
 7529TIP3   OH244001   3.358   6.492   4.901 -0.2545  0.6754 -0.1183
 7529TIP3    H144002   3.345   6.454   4.988 -0.1432 -1.0415 -0.7958
 7529TIP3    H244003   3.449   6.520   4.900 -0.4277  1.2739  0.5198
 7530TIP3   OH244004   1.130   3.499  16.390  0.0634  0.7733  0.4725
 7530TIP3    H144005   1.223   3.516  16.398  0.1851  1.2720 -1.5974
 7530TIP3    H244006   1.105   3.461  16.475  2.2821 -0.1028  0.7872
 7531TIP3   OH244007   2.460   2.678   0.998  0.6028 -0.1839  0.0065
 7531TIP3    H144008   2.537   2.641   0.955 -0.6315 -0.6136 -1.9242
 7531TIP3    H244009   2.469   2.773   0.985  0.3238 -0.2962 -1.1101
 7532TIP3   OH244010   0.080   5.596  15.749  0.2760  0.2384 -0.1468
 7532TIP3    H144011   0.124   5.674  15.714 -0.2170 -0.1319 -1.6809
 7532TIP3    H244012  -0.001   5.590  15.697 -0.2606 -0.6347  0.7602
 7533TIP3   OH244013   2.656   5.831   3.681  1.1159 -0.4028 -0.2441
 7533TIP3    H144014   2.576   5.837   3.732  1.2736 -2.5764  0.3819
 7533TIP3    H244015   2.718   5.887   3.726 -0.1908  1.9330 -1.1716
 7534TIP3   OH244016   6.454   1.512   0.623 -0.1046  0.3142 -0.4580
 7534TIP3    H144017   6.517   1.439   0.621  0.7673  0.9926  0.6541
 7534TIP3    H244018   6.509   1.590   0.622 -1.0624  1.0250 -2.8131
 7535TIP3   OH244019   3.195   5.992   0.025 -0.3207  0.0089  0.7631
 7535TIP3    H144020   3.120   6.041   0.060 -1.1325 -1.1252  0.6816
 7535TIP3    H244021   3.167   5.965  -0.063  0.2113 -0.3699  0.7038
 7536TIP3   OH244022   3.545   5.922  14.848 -0.0222 -0.2555 -0.2206
 7536TIP3    H144023   3.554   5.976  14.769 -1.4676  0.3612  0.0058
 7536TIP3    H244024   3.490   5.849  14.822 -2.3815  1.0975  0.6908
 7537TIP3   OH244025   6.148   2.055   4.376  0.0447 -0.0671  0.3676
 7537TIP3    H144026   6.093   2.131   4.359  0.4882 -0.1048 -1.5179
 7537TIP3    H244027   6.087   1.981   4.374 -0.0642  0.0299 -0.2464
 7538TIP3   OH244028   0.845   0.526  10.525 -0.2218 -0.1663 -0.5443
 7538TIP3    H144029   0.832   0.447  10.577 -0.8940 -0.4381 -1.1168
 7538TIP3    H244030   0.900   0.582  10.581 -0.3411 -0.7346  0.1630
 7539TIP3   OH244031   4.485   3.198   1.818  0.0628 -0.0956  0.4704
 7539TIP3    H144032   4.518   3.208   1.728  0.6813  1.7128  0.8483
 7539TIP3    H244033   4.418   3.266   1.826 -0.2373 -0.4790  1.2854
 7540TIP3   OH244034   1.623   0.295  12.596 -0.1803  0.1881 -0.0983
 7540TIP3    H144035   1.539   0.259  12.568 -0.3395  1.3214 -1.1414
 7540TIP3    H244036   1.686   0.226  12.575 -0.4811  0.4437 -2.0374
 7541TIP3   OH244037   0.899   1.257  13.954 -0.0461 -0.4914  0.2678
 7541TIP3    H144038   0.969   1.284  14.013 -0.3150 -0.8213  0.7396
 7541TIP3    H244039   0.933   1.275  13.866  0.7590 -0.9671  0.4784
 7542TIP3   OH244040   3.454   2.348  15.135 -0.0469 -0.0397  0.3541
 7542TIP3    H144041   3.463   2.368  15.042 -0.5324 -1.2783  0.0200
 7542TIP3    H244042   3.409   2.263  15.137  1.5643 -0.9119  1.6894
 7543TIP3   OH244043   1.721   6.367  16.747 -0.1301 -0.1480  0.6952
 7543TIP3    H144044   1.745   6.356  16.839  1.8169 -0.0903  0.2393
 7543TIP3    H244045   1.796   6.333  16.698  0.9133  3.8049 -0.8367
 7544TIP3   OH244046   6.145   4.938   3.385 -0.0571 -0.4192 -0.1797
 7544TIP3    H144047   6.148   4.939   3.290  0.6060  0.3786 -0.1584
 7544TIP3    H244048   6.237   4.943   3.412 -0.2777  0.0505  0.4998
 7545TIP3   OH244049   6.422   4.199   0.371  0.1306  1.0457  0.7599
 7545TIP3    H144050   6.473   4.229   0.446  1.5681  2.7713 -0.7739
 7545TIP3    H244051   6.463   4.243   0.296 -1.3415 -0.4337 -1.0172
 7546TIP3   OH244052   3.673   0.065  15.380 -0.6840  0.3730 -0.3250
 7546TIP3    H144053   3.590   0.032  15.413 -0.1471 -1.1776 -0.4103
 7546TIP3    H244054   3.677   0.032  15.290 -0.2991  1.0572 -0.5652
 7547TIP3   OH244055   4.402   3.674   1.698  0.0370  0.1658 -0.2901
 7547TIP3    H144056   4.426   3.765   1.717 -0.4711  0.5606 -1.4363
 7547TIP3    H244057   4.315   3.664   1.735  0.2142  0.0380  0.1047
 7548TIP3   OH244058   0.725   0.952   5.755  0.6126 -0.2012  0.9020
 7548TIP3    H144059   0.666   0.880   5.735  1.2539 -0.5392  0.1537
 7548TIP3    H244060   0.667   1.024   5.779 -0.1426 -0.4103 -0.1776
 7549TIP3   OH244061   0.050   0.245   1.533 -0.4425 -0.8207  0.9687
 7549TIP3    H144062   0.068   0.198   1.615 -0.8712  0.4792  1.8385
 7549TIP3    H244063  -0.042   0.271   1.539 -0.1469  0.3694  0.6491
 7550TIP3   OH244064   3.492   4.342  16.800 -0.6249 -0.6901  0.0957
 7550TIP3    H144065   3.473   4.248  16.794  0.0911 -0.8561  0.3188
 7550TIP3    H244066   3.585   4.348  16.779 -0.5529 -0.0875  0.5869
 7551TIP3   OH244067   0.014   2.205  12.741 -0.0202  0.3760  0.3591
 7551TIP3    H144068  -0.047   2.131  12.748 -1.9060  1.7731 -0.2196
 7551TIP3    H244069   0.083   2.174  12.682 -1.1891 -0.6571 -0.5329
 7552TIP3   OH244070   1.077   5.450  13.142 -0.0767  0.3016 -0.1734
 7552TIP3    H144071   1.169   5.477  13.142 -0.4457  1.7119  0.9311
 7552TIP3    H244072   1.077   5.365  13.100  1.5727  0.8199 -1.3303
 7553TIP3   OH244073   1.266   1.238  11.588 -0.7697  0.3971 -0.2622
 7553TIP3    H144074   1.177   1.211  11.564 -0.3480 -1.7642  0.4553
 7553TIP3    H244075   1.252   1.307  11.654 -1.9196 -0.3395  0.2981
 7554TIP3   OH244076   1.347   3.523  11.586 -0.0010 -0.1734  0.0467
 7554TIP3    H144077   1.414   3.472  11.631  0.3352  0.6937  0.5660
 7554TIP3    H244078   1.269   3.513  11.640 -0.1660 -0.7926 -0.2973
 7555TIP3   OH244079   6.138   4.251  11.398 -0.2894 -0.1845 -0.0163
 7555TIP3    H144080   6.096   4.193  11.335 -0.4204 -2.4730  2.0011
 7555TIP3    H244081   6.232   4.246  11.376 -0.1029 -2.5163  1.0378
 7556TIP3   OH244082   5.677   0.197  15.481 -0.3138  0.0443  0.7648
 7556TIP3    H144083   5.665   0.172  15.389 -2.2799 -2.2466  1.5410
 7556TIP3    H244084   5.664   0.291  15.481  0.9232  0.3013 -1.4505
 7557TIP3   OH244085   6.386   0.365  11.859 -0.9168  0.6662  0.7292
 7557TIP3    H144086   6.291   0.357  11.859 -0.8819 -0.2090 -0.9424
 7557TIP3    H244087   6.416   0.292  11.805  0.7250  0.7853  1.4277
 7558TIP3   OH244088   3.387   4.253  11.630 -0.5314 -0.6695  0.3465
 7558TIP3    H144089   3.409   4.177  11.683 -2.1633 -1.1545  0.3826
 7558TIP3    H244090   3.458   4.260  11.567 -0.1632 -1.9922  0.5950
 7559TIP3   OH244091   6.093   4.887   5.523  0.5337 -0.4364 -0.7326
 7559TIP3    H144092   6.093   4.917   5.432  0.2202  1.6648 -0.0889
 7559TIP3    H244093   6.063   4.963   5.573 -0.2603 -1.8447  1.0418
 7560TIP3   OH244094   6.296   3.772   4.875 -0.0575 -0.7551  0.3880
 7560TIP3    H144095   6.233   3.771   4.802 -1.4428  1.2655  1.4512
 7560TIP3    H244096   6.361   3.838   4.849  0.2948 -1.1135  0.3460
 7561TIP3   OH244097   0.021   3.946  15.831 -0.0915 -0.4043  0.1421
 7561TIP3    H144098  -0.040   3.895  15.883  0.3814 -0.4492  0.6617
 7561TIP3    H244099   0.001   4.037  15.852 -1.1110 -0.3382 -0.9819
 7562TIP3   OH244100   3.065   5.568   1.611  0.0025 -0.4409  0.5115
 7562TIP3    H144101   3.070   5.510   1.687  0.6486  0.1654  0.9457
 7562TIP3    H244102   2.972   5.571   1.590 -0.2383 -0.3189  1.5263
 7563TIP3   OH244103   3.374   6.457  16.189  0.1510 -0.0084 -0.1533
 7563TIP3    H144104   3.429   6.525  16.150  0.1085 -1.0559 -2.1382
 7563TIP3    H244105   3.301   6.505  16.228  1.7680  1.3078  1.4309
 7564TIP3   OH244106   1.695   5.999   5.789 -0.0545 -0.2436 -0.1377
 7564TIP3    H144107   1.638   5.985   5.713  0.6839 -0.4386 -0.6679
 7564TIP3    H244108   1.780   5.964   5.762  0.2151 -0.3288  0.7892
 7565TIP3   OH244109   0.747   3.914  13.527 -0.1250 -0.2763 -0.1970
 7565TIP3    H144110   0.813   3.863  13.574  0.0328 -0.9610 -1.1221
 7565TIP3    H244111   0.794   3.992  13.497 -0.0088 -0.2475  0.0562
 7566TIP3   OH244112   2.291   6.193  15.618 -0.4844 -0.8144  0.4292
 7566TIP3    H144113   2.205   6.173  15.657 -0.8957 -1.9813 -0.9607
 7566TIP3    H244114   2.344   6.115  15.637 -0.2592 -0.7968 -0.1001
 7567TIP3   OH244115   5.662   1.319  15.285  0.6320 -0.2916  0.6737
 7567TIP3    H144116   5.746   1.333  15.241  1.1746  1.7720  2.2200
 7567TIP3    H244117   5.681   1.331  15.378 -0.9080 -2.3807  1.3413
 7568TIP3   OH244118   3.502   3.376  13.551 -0.6335  0.1673  0.2633
 7568TIP3    H144119   3.560   3.451  13.562  0.7775 -0.3283 -2.9154
 7568TIP3    H244120   3.418   3.414  13.523  0.1205  0.6211 -1.4970
 7569TIP3   OH244121   1.347   1.118   5.508  0.2976  0.1230  0.5436
 7569TIP3    H144122   1.353   1.033   5.552  0.3807  0.0834  0.4579
 7569TIP3    H244123   1.411   1.173   5.553 -1.4417  0.8795  2.2103
 7570TIP3   OH244124   0.060   0.640  12.599  0.1862 -0.3892 -0.6899
 7570TIP3    H144125   0.089   0.599  12.681  1.5661 -1.0970 -1.5004
 7570TIP3    H244126   0.119   0.714  12.587 -1.0979  0.7628 -0.2122
 7571TIP3   OH244127   3.405   6.490  12.005  0.0014  0.2363 -0.1128
 7571TIP3    H144128   3.332   6.510  12.063 -1.0932 -0.5677 -1.1595
 7571TIP3    H244129   3.429   6.400  12.028 -0.7433 -0.2505 -1.1998
 7572TIP3   OH244130   1.248   3.541  12.222  0.0519 -0.2827  0.1242
 7572TIP3    H144131   1.189   3.529  12.147 -1.9925 -1.2114  1.7618
 7572TIP3    H244132   1.243   3.457  12.269  2.2710 -0.1620  0.6486
 7573TIP3   OH244133   5.954   4.688  12.096 -0.0599 -0.2070  0.0546
 7573TIP3    H144134   5.930   4.661  12.185 -0.2078 -0.4086 -0.0451
 7573TIP3    H244135   6.013   4.762  12.109  0.2529 -0.4982  0.3332
 7574TIP3   OH244136   0.352   6.007   0.179 -0.1491  0.2063  0.3322
 7574TIP3    H144137   0.370   6.093   0.142 -1.3339  0.5029  0.3931
 7574TIP3    H244138   0.295   5.965   0.114  0.7125 -0.6759  0.1346
 7575TIP3   OH244139   2.116   4.020   1.256  0.0734  0.1228 -0.2356
 7575TIP3    H144140   2.105   3.927   1.236 -0.1603  0.0383  0.2748
 7575TIP3    H244141   2.203   4.025   1.296 -0.7931 -0.2547  1.8520
 7576TIP3   OH244142   5.054   1.310  15.267 -0.4894 -0.4042  0.0767
 7576TIP3    H144143   5.140   1.274  15.244 -0.6227 -0.0970 -0.9708
 7576TIP3    H244144   5.072   1.402  15.287 -0.9048  0.3907 -2.8160
 7577TIP3   OH244145   4.022   6.404  15.534 -0.6197 -0.5559  0.1311
 7577TIP3    H144146   3.958   6.475  15.538 -1.0521 -0.8457 -1.2012
 7577TIP3    H244147   4.094   6.439  15.481 -0.3776 -0.7766  0.3056
 7578TIP3   OH244148   4.472   5.375   2.762 -0.0544  0.1400  0.4894
 7578TIP3    H144149   4.527   5.356   2.685  0.3896  1.8163  0.3420
 7578TIP3    H244150   4.393   5.323   2.749  1.4842 -2.4319  0.7416
 7579TIP3   OH244151   5.304   6.389   4.577  0.4353  0.0022  0.1663
 7579TIP3    H144152   5.333   6.477   4.602  1.1169 -0.4237  0.9318
 7579TIP3    H244153   5.240   6.365   4.643 -0.9237  0.5075 -0.9104
 7580TIP3   OH244154   1.268   4.143   4.419 -0.4181 -0.4757  0.1485
 7580TIP3    H144155   1.313   4.146   4.503 -1.1691 -0.7306  0.5695
 7580TIP3    H244156   1.178   4.117   4.440 -1.2803  1.7898 -0.4521
 7581TIP3   OH244157   2.047   1.319   5.622  0.0932  0.3684  0.6009
 7581TIP3    H144158   2.054   1.406   5.663  1.3067  0.5726  0.0083
 7581TIP3    H244159   2.048   1.337   5.528 -1.5849 -0.1757  0.4540
 7582TIP3   OH244160   0.337   4.315  15.275 -0.2103  0.8198  0.8877
 7582TIP3    H144161   0.405   4.256  15.309  0.4978  1.8236  1.2483
 7582TIP3    H244162   0.276   4.257  15.229  0.9539 -0.1029  0.4418
 7583TIP3   OH244163   5.609   2.613  14.885  0.0658  0.1392  0.1630
 7583TIP3    H144164   5.567   2.645  14.965  1.0952  1.5814  0.1719
 7583TIP3    H244165   5.580   2.674  14.817  0.8273  0.1679 -0.1503
 7584TIP3   OH244166   1.366   6.412  16.110  0.4369 -0.1317 -0.3717
 7584TIP3    H144167   1.398   6.323  16.093 -0.0933 -0.3162 -0.4290
 7584TIP3    H244168   1.392   6.461  16.032 -0.0888 -0.4632 -0.7663
 7585TIP3   OH244169   0.525   5.559  15.628  0.1947  0.0859 -0.0462
 7585TIP3    H144170   0.595   5.564  15.693 -0.6650 -0.7351  0.9591
 7585TIP3    H244171   0.560   5.501  15.560  0.3193 -0.7293  0.6937
 7586TIP3   OH244172   2.131   6.441  11.838 -0.3519 -0.0377 -0.3843
 7586TIP3    H144173   2.082   6.475  11.763  0.6429  0.5941 -0.7801
 7586TIP3    H244174   2.093   6.486  11.913 -0.9346 -0.1898 -0.5843
 7587TIP3   OH244175   3.817   3.380   4.515  0.4998  0.1217  0.0894
 7587TIP3    H144176   3.777   3.320   4.578  0.7992  0.0834  0.2445
 7587TIP3    H244177   3.910   3.358   4.517  0.1608 -2.0454 -2.6793
 7588TIP3   OH244178   0.646   4.862   0.762  0.1706  0.2729  0.1769
 7588TIP3    H144179   0.699   4.840   0.839  2.0287  1.0419 -0.8088
 7588TIP3    H244180   0.684   4.809   0.691 -1.1363 -0.0025 -0.3389
 7589TIP3   OH244181   1.877   3.979   5.378 -0.2999  0.2895  0.1915
 7589TIP3    H144182   1.860   4.071   5.398  0.2560 -0.1141  2.8969
 7589TIP3    H244183   1.826   3.930   5.443  0.1466 -1.3079 -0.5998
 7590TIP3   OH244184   2.883   0.179  15.697  0.0072  0.5221 -0.3112
 7590TIP3    H144185   2.803   0.232  15.700 -0.1260  0.3090 -0.0568
 7590TIP3    H244186   2.919   0.186  15.786 -0.9309 -1.2148  0.2564
 7591TIP3   OH244187   3.152   1.376   2.242  0.3262 -0.2550 -0.1096
 7591TIP3    H144188   3.189   1.343   2.324 -2.6261  1.2266  2.0179
 7591TIP3    H244189   3.129   1.297   2.193 -0.2795 -1.2647  1.7147
 7592TIP3   OH244190   6.088   4.488  12.887 -0.2915 -0.9257 -0.2946
 7592TIP3    H144191   6.065   4.417  12.946 -1.2256 -0.7569 -0.4463
 7592TIP3    H244192   6.176   4.515  12.915 -0.8202 -0.6657  1.1870
 7593TIP3   OH244193   4.939   3.722  13.240 -0.0313  0.1555  0.3930
 7593TIP3    H144194   4.975   3.800  13.282 -1.6249  0.8913  0.4682
 7593TIP3    H244195   4.946   3.653  13.307  1.6089  0.1388  0.2382
 7594TIP3   OH244196   2.133   6.258  16.310 -0.7721  0.6451  1.0248
 7594TIP3    H144197   2.106   6.172  16.344 -0.9832 -0.3876 -1.5541
 7594TIP3    H244198   2.187   6.295  16.380 -1.2004 -1.2885  2.4757
 7595TIP3   OH244199   5.537   5.291   3.949 -0.3529  0.2593  0.1668
 7595TIP3    H144200   5.512   5.339   3.870 -0.3056 -1.3860 -0.8837
 7595TIP3    H244201   5.618   5.334   3.978 -0.3061  0.7998 -0.7338
 7596TIP3   OH244202   1.668   6.097  16.335 -0.0826  0.1307 -0.3187
 7596TIP3    H144203   1.686   6.191  16.347  0.6808  0.0338 -0.6428
 7596TIP3    H244204   1.681   6.082  16.241 -0.6256 -0.2174 -0.3448
 7597TIP3   OH244205   5.457   0.697  12.263 -0.1286  0.0747  0.0823
 7597TIP3    H144206   5.517   0.673  12.192 -0.8843  1.1566 -0.9544
 7597TIP3    H244207   5.513   0.741  12.328  0.7712 -1.9227  0.7457
 7598TIP3   OH244208   6.405   2.383  15.218 -0.0789  0.1290  0.0007
 7598TIP3    H144209   6.333   2.386  15.154 -1.9886  0.0059  2.0312
 7598TIP3    H244210   6.384   2.452  15.281  0.6654 -1.0381  1.5874
 7599TIP3   OH244211   4.446   3.628  16.744 -0.2437 -0.0104  0.0671
 7599TIP3    H144212   4.453   3.620  16.839  1.8950 -2.0164 -0.1865
 7599TIP3    H244213   4.525   3.674  16.718  0.1745 -1.2223 -0.8772
 7600TIP3   OH244214   6.229   2.447  13.730  0.0291 -0.0117 -0.1114
 7600TIP3    H144215   6.294   2.440  13.660 -1.8591  0.1423 -1.9797
 7600TIP3    H244216   6.214   2.541  13.740  0.4148 -0.0224  0.6624
 7601TIP3   OH244217   5.313   1.866  12.880 -0.0390 -0.3246  0.0898
 7601TIP3    H144218   5.257   1.943  12.890 -0.4438 -0.7864  1.5749
 7601TIP3    H244219   5.399   1.902  12.856 -0.6255  0.4586 -0.9614
 7602TIP3   OH244220   0.173   2.120  14.505  0.3962 -0.4279  0.0306
 7602TIP3    H144221   0.149   2.031  14.481 -0.1058 -0.0634 -0.8728
 7602TIP3    H244222   0.120   2.176  14.448  1.3930  0.4353 -0.1020
 7603TIP3   OH244223   1.444   3.741  13.598 -0.1521 -0.4786 -0.4706
 7603TIP3    H144224   1.504   3.771  13.530  1.5318 -1.6285  0.4195
 7603TIP3    H244225   1.446   3.811  13.664 -0.6314 -0.0339 -0.9243
 7604TIP3   OH244226   1.403   4.710  12.838  0.1027  0.3649  0.2046
 7604TIP3    H144227   1.370   4.621  12.823  0.1149  0.4525 -0.3624
 7604TIP3    H244228   1.349   4.765  12.781  0.6088  0.6251 -0.0240
 7605TIP3   OH244229   0.730   2.299  14.679 -0.1214 -0.4804 -0.4524
 7605TIP3    H144230   0.650   2.311  14.629 -0.4363  0.6293  0.2874
 7605TIP3    H244231   0.726   2.365  14.748  1.1843 -0.7435 -0.0881
 7606TIP3   OH244232   2.067   1.398   5.360  0.2773 -0.0578 -0.3675
 7606TIP3    H144233   2.049   1.426   5.270  0.9154 -0.2995 -0.5809
 7606TIP3    H244234   2.050   1.475   5.413 -0.4319 -0.0092 -0.6547
 7607TIP3   OH244235   2.855   0.540  16.847 -0.0875  0.1495 -0.2524
 7607TIP3    H144236   2.855   0.633  16.872  0.7361  0.4689 -1.3713
 7607TIP3    H244237   2.945   0.512  16.860 -0.5283 -0.7873  1.0097
 7608TIP3   OH244238   0.740   1.841   2.436  0.1013 -0.6055 -0.1975
 7608TIP3    H144239   0.818   1.820   2.385  1.8119  1.8588  1.2252
 7608TIP3    H244240   0.752   1.795   2.519 -0.7446 -1.4019 -0.4922
 7609TIP3   OH244241   3.059   3.061  12.428 -0.7194 -0.5501 -0.3653
 7609TIP3    H144242   3.140   3.053  12.377 -0.8914 -0.5351 -0.6412
 7609TIP3    H244243   3.069   2.996  12.497  1.3185  2.1094  2.0810
 7610TIP3   OH244244   0.827   6.357   1.031  0.1666  0.1149 -0.0379
 7610TIP3    H144245   0.900   6.299   1.011  0.3772  0.3739 -0.0252
 7610TIP3    H244246   0.841   6.385   1.121 -0.7776 -1.0402  0.4966
 7611TIP3   OH244247   3.314   0.797   3.523 -0.6770  0.1421  0.1763
 7611TIP3    H144248   3.370   0.858   3.474  2.0680 -1.5700  0.9325
 7611TIP3    H244249   3.246   0.852   3.562  0.2331  2.3149 -1.1350
 7612TIP3   OH244250   6.429   0.527   1.286  0.7590 -0.5441  0.7043
 7612TIP3    H144251   6.473   0.477   1.355 -0.1873  1.0088  2.5253
 7612TIP3    H244252   6.355   0.568   1.330 -0.3171 -0.0637 -1.4419
 7613TIP3   OH244253   1.333   6.329   4.494  0.3805  0.0209 -0.3654
 7613TIP3    H144254   1.404   6.371   4.446  0.3467  0.5585  0.0407
 7613TIP3    H244255   1.288   6.401   4.537  1.2714 -0.5666  1.6393
 7614TIP3   OH244256   2.637   1.129   2.637 -0.4586  0.4707 -0.1055
 7614TIP3    H144257   2.687   1.159   2.713  1.3839 -1.2303 -0.5602
 7614TIP3    H244258   2.653   1.196   2.570 -1.1531  1.3869  0.6205
 7615TIP3   OH244259   2.243   1.247   4.039 -0.1243 -0.3260 -0.0411
 7615TIP3    H144260   2.154   1.222   4.015 -1.3785  2.1233  1.6415
 7615TIP3    H244261   2.285   1.165   4.066 -1.0740 -1.8882 -2.9045
 7616TIP3   OH244262   3.694   4.224   0.609 -0.2920 -0.0306  0.2906
 7616TIP3    H144263   3.688   4.138   0.651 -1.0238 -0.2630 -0.2735
 7616TIP3    H244264   3.679   4.287   0.680 -0.0439 -0.3686  0.6468
 7617TIP3   OH244265   5.157   5.480   3.133  0.2051  0.4215  0.6004
 7617TIP3    H144266   5.216   5.431   3.075 -0.4685  1.5431 -1.0933
 7617TIP3    H244267   5.120   5.548   3.078  0.1407  2.0769  2.5766
 7618TIP3   OH244268   3.435   3.161  14.171 -0.1135 -0.1313 -0.0999
 7618TIP3    H144269   3.492   3.164  14.248 -0.6444 -1.0792  0.3519
 7618TIP3    H244270   3.405   3.070  14.167 -2.6773  0.5902  0.5254
 7619TIP3   OH244271   4.196   0.278   2.308 -0.5028  0.0341  0.6193
 7619TIP3    H144272   4.269   0.329   2.272  0.1638 -0.4814  1.2202
 7619TIP3    H244273   4.132   0.276   2.237  0.3068  0.0092 -0.1298
 7620TIP3   OH244274   5.004   1.059   0.060  0.0907 -0.0446 -0.1945
 7620TIP3    H144275   4.988   0.974   0.102  0.7653 -0.2170 -0.2754
 7620TIP3    H244276   4.917   1.098   0.051 -0.1275 -0.2874  0.7669
 7621TIP3   OH244277   1.075   4.622  12.454 -0.0951 -0.1494 -0.1905
 7621TIP3    H144278   1.067   4.712  12.423  0.1720 -0.5481 -1.4745
 7621TIP3    H244279   1.161   4.593  12.423 -0.1351 -0.8198  0.2921
 7622TIP3   OH244280   1.334   5.663  15.100  0.4674  0.7070  0.0003
 7622TIP3    H144281   1.293   5.648  15.015  1.0126  0.8052 -0.2821
 7622TIP3    H244282   1.415   5.612  15.098 -0.0133 -0.1410  0.8661
 7623TIP3   OH244283   4.513   2.955   5.633  0.1821 -0.0567  0.5766
 7623TIP3    H144284   4.511   2.879   5.574 -0.2824  0.2219  0.2242
 7623TIP3    H244285   4.548   2.921   5.715  0.0770 -0.6307  0.3874
 7624TIP3   OH244286   0.455   6.740   4.229  0.0398 -0.0078 -0.6684
 7624TIP3    H144287   0.522   6.678   4.258 -1.4573 -1.2479  0.2977
 7624TIP3    H244288   0.452   6.805   4.299 -0.8606 -0.8392  0.0779
 7625TIP3   OH244289   2.183   4.166   4.441 -0.3659  0.1329 -0.0655
 7625TIP3    H144290   2.186   4.245   4.496 -1.9480  0.3393 -0.2260
 7625TIP3    H244291   2.178   4.199   4.352  0.9759 -0.1924 -0.2764
 7626TIP3   OH244292   0.506   0.087   1.633  0.6054  0.5797  0.7992
 7626TIP3    H144293   0.560   0.163   1.613  2.8868 -0.1339  3.4975
 7626TIP3    H244294   0.555   0.013   1.597  0.3682  0.1118  1.4174
 7627TIP3   OH244295   0.107   4.321  13.752  0.4221 -0.3338 -0.5435
 7627TIP3    H144296   0.156   4.272  13.686  1.1869  0.4101 -0.5437
 7627TIP3    H244297   0.067   4.393  13.704  0.3981 -0.1942 -0.3157
 7628TIP3   OH244298   4.644   3.838   5.612  0.0765  0.5774 -0.4761
 7628TIP3    H144299   4.594   3.911   5.576 -1.1690 -0.6189 -1.3040
 7628TIP3    H244300   4.645   3.773   5.542  1.0736 -0.2419  0.2635
 7629TIP3   OH244301   0.661   1.926  13.427 -0.1669  0.8279 -0.2918
 7629TIP3    H144302   0.567   1.942  13.419 -0.2889  0.4787  0.3777
 7629TIP3    H244303   0.697   1.950  13.341 -0.8941  0.7394 -0.6275
 7630TIP3   OH244304   4.368   1.038   4.473  0.2410 -0.0762 -0.4270
 7630TIP3    H144305   4.284   0.993   4.482 -0.1747  0.4236 -1.5874
 7630TIP3    H244306   4.357   1.120   4.522  0.7469 -0.8629  1.0665
 7631TIP3   OH244307   6.441   6.360  15.516 -0.2676 -0.1400 -0.2225
 7631TIP3    H144308   6.417   6.304  15.442  1.0249 -0.8651 -0.1186
 7631TIP3    H244309   6.529   6.332  15.540 -0.3281  0.6752  1.0514
 7632TIP3   OH244310   5.584   4.417  13.446 -0.2181 -0.0708 -0.1069
 7632TIP3    H144311   5.538   4.338  13.475 -0.9222  1.2771  2.6791
 7632TIP3    H244312   5.540   4.441  13.365 -2.0502 -0.8323  0.6037
 7633TIP3   OH244313   1.632   4.655  14.102  0.3309  0.2167 -0.1085
 7633TIP3    H144314   1.578   4.727  14.068  1.3620  0.3398 -1.6062
 7633TIP3    H244315   1.620   4.585  14.038  1.7876  0.2023 -0.3890
 7634TIP3   OH244316   4.862   4.132   5.144 -0.0869 -0.6170 -0.0657
 7634TIP3    H144317   4.830   4.180   5.068  0.4713 -1.6389 -0.9623
 7634TIP3    H244318   4.956   4.150   5.147  0.0721 -1.3788 -0.2275
 7635TIP3   OH244319   5.539   4.078   6.598  0.1529  0.2022 -0.6698
 7635TIP3    H144320   5.588   3.998   6.581 -0.7570 -0.2688 -1.1481
 7635TIP3    H244321   5.453   4.063   6.559 -0.1119  1.3244 -0.5726
 7636TIP3   OH244322   6.261   2.052   0.482  0.6341 -0.2219 -0.4619
 7636TIP3    H144323   6.229   2.062   0.571  1.2458  1.4986 -0.3902
 7636TIP3    H244324   6.183   2.036   0.429 -0.0036  0.9514  0.0968
 7637TIP3   OH244325   1.806   6.797   1.370  0.2488  0.1631  0.2999
 7637TIP3    H144326   1.779   6.708   1.346 -1.4353  0.9242 -0.8720
 7637TIP3    H244327   1.758   6.816   1.450  0.7396 -0.0429  0.6430
 7638TIP3   OH244328   2.020   2.871   3.668  0.2056  0.2209 -0.0742
 7638TIP3    H144329   2.086   2.885   3.736  0.5305 -0.3911 -0.2457
 7638TIP3    H244330   2.071   2.859   3.588 -0.0169 -1.5674  0.0079
 7639TIP3   OH244331   6.099   1.139  16.278 -0.6628  0.1087 -0.4119
 7639TIP3    H144332   6.169   1.092  16.233 -1.1715  0.7219 -1.9055
 7639TIP3    H244333   6.033   1.072  16.296 -1.4449  0.1951 -2.6426
 7640TIP3   OH244334   1.956   6.444  12.265 -0.4597  0.4264  0.2672
 7640TIP3    H144335   2.027   6.491  12.220 -0.2376 -1.2898 -1.2876
 7640TIP3    H244336   1.891   6.428  12.197 -1.8244  0.9028  1.4066
 7641TIP3   OH244337   0.421   3.436  11.609 -0.2344 -0.0450 -0.4810
 7641TIP3    H144338   0.369   3.360  11.635 -0.7359  0.3439 -0.3369
 7641TIP3    H244339   0.511   3.404  11.607 -0.6336 -1.2178 -2.4816
 7642TIP3   OH244340   0.490   4.408   1.541  0.7481 -0.0044 -0.0291
 7642TIP3    H144341   0.467   4.431   1.631  0.0376 -0.5435 -0.0649
 7642TIP3    H244342   0.556   4.472   1.516  0.3458  0.6630  0.5848
 7643TIP3   OH244343   2.771   3.028  14.384  0.0596 -0.4846 -0.3462
 7643TIP3    H144344   2.853   2.981  14.365  0.0706 -0.5351 -0.1711
 7643TIP3    H244345   2.737   3.052  14.298  0.4581 -0.1271 -0.4089
 7644TIP3   OH244346   0.768   1.812  15.631 -0.1742 -0.2625 -0.1537
 7644TIP3    H144347   0.863   1.826  15.631 -0.2756  0.4558 -0.3502
 7644TIP3    H244348   0.731   1.900  15.624 -0.8785 -0.3948  1.3771
 7645TIP3   OH244349   0.985   4.474   0.295  0.4018 -0.2841  0.3815
 7645TIP3    H144350   1.037   4.515   0.225 -0.2740  0.1707  0.1389
 7645TIP3    H244351   1.023   4.387   0.305 -0.2180 -0.8017 -1.3659
 7646TIP3   OH244352   4.845   1.178  16.086 -0.1974  0.2354  0.4228
 7646TIP3    H144353   4.800   1.100  16.054 -0.2960  0.7659 -0.8346
 7646TIP3    H244354   4.786   1.250  16.062 -0.3658  0.6653  2.0451
 7647TIP3   OH244355   0.128   5.253  11.176  0.0203 -0.0222  0.2667
 7647TIP3    H144356   0.040   5.216  11.181  0.0722 -0.0552  0.9791
 7647TIP3    H244357   0.116   5.346  11.197  0.0928  0.0718 -0.1019
 7648TIP3   OH244358   3.201   3.299   6.429  0.1059 -0.1264 -0.3414
 7648TIP3    H144359   3.152   3.228   6.387  0.6911 -0.6130 -0.2243
 7648TIP3    H244360   3.242   3.346   6.357  0.6869 -0.6471 -0.3693
 7649TIP3   OH244361   4.568   3.032  13.086 -0.2079  0.6568  0.3228
 7649TIP3    H144362   4.609   2.995  13.164 -2.2632 -1.0140  0.7131
 7649TIP3    H244363   4.558   2.958  13.027 -0.1466  1.5809 -0.8761
 7650TIP3   OH244364   6.797   3.880  10.995  0.0215  0.4398  0.5240
 7650TIP3    H144365   6.726   3.817  11.008  0.4246 -0.3056 -0.6765
 7650TIP3    H244366   6.753   3.963  10.979 -0.5981 -0.0107 -0.1869
 7651TIP3   OH244367   5.509   2.770  15.091 -0.0530 -0.5187 -0.3012
 7651TIP3    H144368   5.531   2.711  15.163  1.8565  0.7957  0.2682
 7651TIP3    H244369   5.422   2.804  15.114  0.3731 -0.3791  1.2268
 7652TIP3   OH244370   4.677   2.986   0.865  0.3602  0.2642  0.2921
 7652TIP3    H144371   4.680   3.075   0.901 -2.0711  1.7684 -2.7610
 7652TIP3    H244372   4.769   2.964   0.849  1.0345  2.1315  1.2987
 7653TIP3   OH244373   6.379   5.246   5.513 -0.0475 -0.0390 -0.3178
 7653TIP3    H144374   6.461   5.199   5.498 -0.5366 -1.0757  0.1849
 7653TIP3    H244375   6.368   5.247   5.608  0.0059  1.2104 -0.3047
 7654TIP3   OH244376   0.694   3.505   1.153  0.5044  0.3972  0.1411
 7654TIP3    H144377   0.627   3.440   1.132  1.6321 -0.5615 -0.6310
 7654TIP3    H244378   0.752   3.504   1.077  2.7044 -0.5493  1.7394
 7655TIP3   OH244379   1.258   6.278   4.958  0.0023 -0.4437 -0.1473
 7655TIP3    H144380   1.223   6.203   5.006  2.0227 -1.0826  0.4337
 7655TIP3    H244381   1.254   6.350   5.021 -1.9160 -0.0074 -0.6964
 7656TIP3   OH244382   0.697   2.141   3.553 -0.4696  0.3077  0.0409
 7656TIP3    H144383   0.781   2.179   3.525 -0.0221 -0.6949 -0.0209
 7656TIP3    H244384   0.681   2.069   3.491 -1.4983  0.6296 -0.0882
 7657TIP3   OH244385   1.901   5.305  13.362 -0.2290  0.1281 -0.2092
 7657TIP3    H144386   1.944   5.220  13.368 -3.7945 -1.8070  0.4932
 7657TIP3    H244387   1.861   5.319  13.448 -2.6179  0.7655 -1.3297
 7658TIP3   OH244388   1.513   2.680   5.427  0.4852  0.0498  0.9657
 7658TIP3    H144389   1.524   2.586   5.413 -2.0105 -0.3494  1.1653
 7658TIP3    H244390   1.602   2.715   5.430  1.4880 -1.7745 -2.4537
 7659TIP3   OH244391   0.084   5.983  11.874 -0.2311  0.5644 -0.4122
 7659TIP3    H144392   0.107   6.057  11.930 -0.4398  0.8644 -0.7245
 7659TIP3    H244393   0.133   5.998  11.793  0.6346 -0.2393 -0.0653
 7660TIP3   OH244394   0.145   2.849   4.679  0.3888  0.3428 -0.2540
 7660TIP3    H144395   0.126   2.943   4.683 -1.5531 -0.0045 -0.0176
 7660TIP3    H244396   0.207   2.834   4.750 -1.2693  1.0698  1.4457
 7661TIP3   OH244397   3.222   4.835   4.236 -0.3449  0.5767 -0.6912
 7661TIP3    H144398   3.241   4.779   4.161  0.6033 -2.6028  1.6774
 7661TIP3    H244399   3.213   4.774   4.310 -3.0477  3.3006  1.5316
 7662TIP3   OH244400   5.799   5.093  11.849  0.3749  0.1877 -0.0908
 7662TIP3    H144401   5.789   5.000  11.866  1.4830 -0.2354 -1.5954
 7662TIP3    H244402   5.892   5.111  11.863  0.4531  0.7472 -1.2200
 7663TIP3   OH244403   1.066   3.113   4.268  0.3553 -0.1874 -0.3877
 7663TIP3    H144404   1.026   3.040   4.219 -0.8264  0.6430 -0.6951
 7663TIP3    H244405   1.142   3.073   4.311  0.0507 -1.4846 -0.9807
 7664TIP3   OH244406   2.445   3.933  12.422 -0.1117 -0.7448 -0.0283
 7664TIP3    H144407   2.526   3.919  12.471 -0.1241 -1.1850 -0.1334
 7664TIP3    H244408   2.414   3.845  12.401 -0.8639 -0.5947  0.4145
 7665TIP3   OH244409   5.106   4.744   6.502 -0.1304 -0.9100 -0.6178
 7665TIP3    H144410   5.109   4.839   6.496  0.8342 -0.8067  1.0082
 7665TIP3    H244411   5.141   4.713   6.418 -1.2921  0.1174 -1.5307
 7666TIP3   OH244412   3.428   6.751  15.424  0.6846 -0.3207 -0.2051
 7666TIP3    H144413   3.382   6.804  15.489 -0.4861 -1.0016 -0.4503
 7666TIP3    H244414   3.458   6.674  15.473  0.7501 -0.3212 -0.2458
 7667TIP3   OH244415   1.044   6.053  11.053 -0.6451  0.5153  0.6151
 7667TIP3    H144416   1.087   5.993  10.993 -1.1060  0.2854  0.5058
 7667TIP3    H244417   0.984   5.998  11.103 -3.5729  1.2505 -1.7251
 7668TIP3   OH244418   1.346   2.270  15.652  0.0601 -0.2623 -0.2962
 7668TIP3    H144419   1.298   2.252  15.732  0.4378 -1.3862 -0.3014
 7668TIP3    H244420   1.305   2.348  15.615  1.4302  1.7858  2.2228
 7669TIP3   OH244421   6.564   1.083   2.461  0.4009  0.3448  0.0511
 7669TIP3    H144422   6.562   1.079   2.365  0.1735 -0.8663  0.0815
 7669TIP3    H244423   6.654   1.108   2.482  0.1038  1.9694 -0.4849
 7670TIP3   OH244424   5.949   2.791   1.673  0.0452  0.1916 -0.0807
 7670TIP3    H144425   5.967   2.755   1.760 -0.1326 -0.7212 -0.4109
 7670TIP3    H244426   6.028   2.841   1.652  0.9265 -1.2029 -0.2090
 7671TIP3   OH244427   4.333   0.238   0.040 -0.0795 -0.6925 -0.0385
 7671TIP3    H144428   4.280   0.183   0.097 -0.9100 -0.1256 -0.2245
 7671TIP3    H244429   4.292   0.229  -0.046 -0.2322  0.1856 -0.0752
 7672TIP3   OH244430   4.923   4.939  11.374  0.1819 -0.6399 -0.3789
 7672TIP3    H144431   5.002   4.970  11.330  0.9999  0.1746  1.5375
 7672TIP3    H244432   4.870   4.900  11.305  3.2184 -3.3076 -1.4332
 7673TIP3   OH244433   0.847   5.005   4.050 -0.0363 -0.3613 -0.7469
 7673TIP3    H144434   0.832   5.098   4.064 -0.3422 -0.5083 -0.0600
 7673TIP3    H244435   0.824   4.990   3.959  1.4770  0.5256 -1.3150
 7674TIP3   OH244436   2.944   0.816   2.298  0.3060 -0.2565  0.7954
 7674TIP3    H144437   2.928   0.884   2.363 -0.0217  1.4710 -0.9737
 7674TIP3    H244438   2.857   0.787   2.272  0.1800  1.7215 -1.4023
 7675TIP3   OH244439   1.785   0.104  14.667  0.1998  0.1614  0.7708
 7675TIP3    H144440   1.763   0.074  14.755 -0.7308 -3.0016 -0.3917
 7675TIP3    H244441   1.702   0.133  14.629  0.4936  0.9937  0.7551
 7676TIP3   OH244442   5.389   3.329  12.546  0.1816  0.2181  0.0100
 7676TIP3    H144443   5.345   3.391  12.488  1.5109  0.3167 -0.9462
 7676TIP3    H244444   5.426   3.264  12.488 -0.6319 -1.1400  0.9597
 7677TIP3   OH244445   5.816   1.039  16.819  0.7892  0.3944  0.3266
 7677TIP3    H144446   5.892   0.996  16.859 -0.3456 -3.7944 -1.4514
 7677TIP3    H244447   5.741   0.987  16.848 -0.5162 -0.2319 -3.5241
 7678TIP3   OH244448   2.768   3.169   4.268  0.5017 -0.3085 -0.1873
 7678TIP3    H144449   2.705   3.234   4.298  1.3590 -0.3191  1.7966
 7678TIP3    H244450   2.741   3.088   4.310  0.5323 -0.8263 -1.1431
 7679TIP3   OH244451   5.229   3.165   3.201 -0.1697 -0.0133  0.7297
 7679TIP3    H144452   5.183   3.090   3.240 -1.5620  0.4205 -0.0217
 7679TIP3    H244453   5.254   3.135   3.114  0.8786 -0.1928  1.0776
 7680TIP3   OH244454   2.537   2.485  13.549 -0.0977  0.8074  0.2251
 7680TIP3    H144455   2.451   2.524  13.565  0.1204  2.0844 -1.4596
 7680TIP3    H244456   2.599   2.556  13.564  0.6150  0.1082  0.6588
 7681TIP3   OH244457   6.802   6.719  14.389 -0.2886 -0.0013  0.3024
 7681TIP3    H144458   6.786   6.808  14.422 -0.0167 -0.1229  0.7674
 7681TIP3    H244459   6.890   6.698  14.421 -0.3850 -0.4713  0.2556
 7682TIP3   OH244460   6.301   2.256  13.905  0.3087  0.3363  0.1730
 7682TIP3    H144461   6.395   2.242  13.891  0.3129  0.9073 -0.3941
 7682TIP3    H244462   6.284   2.344  13.871 -0.1877  0.7578  1.4596
 7683TIP3   OH244463   3.007   3.290  13.884  0.0832 -0.3267  0.7032
 7683TIP3    H144464   3.090   3.338  13.874 -0.8816  1.4707  0.8912
 7683TIP3    H244465   2.999   3.240  13.802  0.6434  0.6376  0.0359
 7684TIP3   OH244466   6.708   1.049  12.942  0.1573  0.0933  0.2726
 7684TIP3    H144467   6.764   1.062  12.865  1.8607  0.2690  1.4892
 7684TIP3    H244468   6.712   1.132  12.989  0.5043 -0.5435  1.4010
 7685TIP3   OH244469   0.991   1.664  12.221  0.2682 -0.3377 -0.0782
 7685TIP3    H144470   1.043   1.744  12.219  1.4141 -1.0774 -1.4710
 7685TIP3    H244471   0.914   1.684  12.168 -0.6347  0.5578  1.4845
 7686TIP3   OH244472   1.771   3.245   1.460 -0.1865  0.3069  0.3021
 7686TIP3    H144473   1.723   3.239   1.378  1.2108 -0.6365 -0.4922
 7686TIP3    H244474   1.749   3.164   1.507 -2.0226  1.4437  1.4938
 7687TIP3   OH244475   0.827   4.756   4.935  0.7039 -0.4455  0.1656
 7687TIP3    H144476   0.809   4.732   5.026  1.7577 -1.2207  0.1839
 7687TIP3    H244477   0.900   4.817   4.939 -0.8306  1.5154 -0.0174
 7688TIP3   OH244478   1.466   3.448   0.606  0.3027  0.3843  0.0068
 7688TIP3    H144479   1.421   3.365   0.621  3.5386 -1.3950  1.0878
 7688TIP3    H244480   1.412   3.494   0.542 -1.9400 -2.3028 -0.2387
 7689TIP3   OH244481   4.155   1.976  17.210  0.4027  0.0315 -0.2024
 7689TIP3    H144482   4.145   1.886  17.238 -0.6509  0.0908 -0.3343
 7689TIP3    H244483   4.229   2.010  17.260  2.5433 -1.6383 -2.0225
 7690TIP3   OH244484   6.322   2.329  16.141 -0.2823 -0.2503 -0.0343
 7690TIP3    H144485   6.341   2.238  16.165 -0.9553 -0.5782 -0.7049
 7690TIP3    H244486   6.259   2.359  16.207 -2.4441 -1.2784 -1.5172
 7691TIP3   OH244487   4.859   5.493  13.803  0.3739  0.5699  0.2929
 7691TIP3    H144488   4.825   5.460  13.720  1.6840  1.4221 -0.6009
 7691TIP3    H244489   4.782   5.529  13.848 -0.0015  2.1665 -1.5366
 7692TIP3   OH244490   5.975   6.778  16.235 -0.4527  0.1887 -0.1530
 7692TIP3    H144491   5.935   6.809  16.316 -0.4899 -0.3197  0.0260
 7692TIP3    H244492   5.958   6.684  16.234 -0.6048  0.2177 -0.8377
 7693TIP3   OH244493   3.973   6.092   5.017 -0.1123 -0.1752 -0.0431
 7693TIP3    H144494   3.932   6.011   4.986  0.2091 -0.1370 -0.5786
 7693TIP3    H244495   3.934   6.107   5.103 -0.1596 -0.9047  0.0662
 7694TIP3   OH244496   4.606   2.232  14.980  0.3102  0.3434  0.4092
 7694TIP3    H144497   4.580   2.306  14.925  0.3589  1.0739  1.3428
 7694TIP3    H244498   4.629   2.271  15.064  1.2463 -0.6339  0.6383
 7695TIP3   OH244499   1.707   1.310  15.382 -0.4290 -0.0518 -0.4709
 7695TIP3    H144500   1.686   1.404  15.378 -1.4489 -0.3035 -1.8755
 7695TIP3    H244501   1.674   1.275  15.299  0.0593 -1.6375 -0.0234
 7696TIP3   OH244502   5.205   2.230   4.861  0.1525 -0.4695 -0.1039
 7696TIP3    H144503   5.175   2.196   4.777 -2.0215 -0.3603  0.5631
 7696TIP3    H244504   5.274   2.292   4.839 -1.0443  0.2872 -1.9102
 7697TIP3   OH244505   1.349   4.010   1.456  0.1534 -0.1426  0.3275
 7697TIP3    H144506   1.323   4.102   1.466  1.7725  0.1218  3.2737
 7697TIP3    H244507   1.342   3.974   1.544  0.1868 -2.7092 -0.6579
 7698TIP3   OH244508   1.280   1.379  12.465  0.3411  0.2376 -0.1511
 7698TIP3    H144509   1.324   1.451  12.420  1.7260 -1.0959 -1.0499
 7698TIP3    H244510   1.189   1.383  12.434  1.4059 -1.2935 -4.2558
 7699TIP3   OH244511   6.351   2.363  15.612 -0.1507  0.3474 -0.1922
 7699TIP3    H144512   6.256   2.356  15.614 -0.1248 -0.0361  1.9861
 7699TIP3    H244513   6.380   2.332  15.698  1.9986 -0.2313 -1.0293
 7700TIP3   OH244514   5.690   2.722   5.924 -0.2535 -0.2088  0.1558
 7700TIP3    H144515   5.747   2.738   5.849 -1.0755 -0.7463 -0.6035
 7700TIP3    H244516   5.741   2.750   6.000  1.2914 -1.3251 -0.4282
 7701TIP3   OH244517   0.201   0.618  14.985 -0.1367 -0.6073 -0.3682
 7701TIP3    H144518   0.128   0.648  14.931  1.2512  3.1450 -0.4054
 7701TIP3    H244519   0.168   0.624  15.075 -0.6982 -1.5592 -0.5004
 7702TIP3   OH244520   3.321   5.465   6.695 -0.1244  0.0259 -0.5134
 7702TIP3    H144521   3.273   5.387   6.720 -2.7249  2.2761  2.2399
 7702TIP3    H244522   3.409   5.452   6.731 -0.8378 -1.1616  0.8541
 7703TIP3   OH244523   3.294   5.096  17.150  0.2624  0.8479 -0.2717
 7703TIP3    H144524   3.289   5.082  17.244 -1.2914 -1.5459 -0.6244
 7703TIP3    H244525   3.297   5.191  17.140  1.6357  1.1388  2.1961
 7704TIP3   OH244526   2.881   2.340  13.634 -0.4911 -0.1031 -0.5571
 7704TIP3    H144527   2.838   2.322  13.718 -0.4057 -2.0979 -0.8757
 7704TIP3    H244528   2.968   2.300  13.643 -0.6925 -0.8632 -1.7819
 7705TIP3   OH244529   2.456   4.944   2.205 -0.2580  0.0666 -0.4454
 7705TIP3    H144530   2.441   4.991   2.287  0.1600  0.5368 -0.6292
 7705TIP3    H244531   2.497   4.862   2.231  0.2743  0.4048 -0.2100
 7706TIP3   OH244532   3.062   0.764  11.347 -0.3348  0.3868  0.8757
 7706TIP3    H144533   2.967   0.763  11.354 -0.5591 -1.6414 -1.4771
 7706TIP3    H244534   3.091   0.684  11.391  0.0276 -0.3704 -0.6758
 7707TIP3   OH244535   3.149   3.608   0.711  0.3582 -0.2544 -0.4087
 7707TIP3    H144536   3.234   3.568   0.732 -0.0627 -0.8115  0.3109
 7707TIP3    H244537   3.134   3.587   0.619  0.3827 -1.3645 -0.1785
 7708TIP3   OH244538   3.543   4.919   1.451 -0.1090  0.2798  0.0219
 7708TIP3    H144539   3.478   4.854   1.424 -0.1215  0.2766  0.0594
 7708TIP3    H244540   3.552   4.977   1.375 -0.5363  0.5837  0.2004
 7709TIP3   OH244541   0.008   4.861   2.895 -0.6376  0.1758  0.4469
 7709TIP3    H144542   0.092   4.886   2.857 -1.5365  1.6750 -0.6932
 7709TIP3    H244543   0.030   4.798   2.963  1.3408 -0.0227 -0.3007
 7710TIP3   OH244544   5.470   4.489  13.741 -0.1726 -0.2081 -0.2537
 7710TIP3    H144545   5.463   4.516  13.833 -2.0310 -1.4436  0.0187
 7710TIP3    H244546   5.544   4.428  13.740  0.2138  0.2368  0.3003
 7711TIP3   OH244547   0.401   1.318   0.649  0.5025  0.2317 -0.3677
 7711TIP3    H144548   0.424   1.325   0.556 -1.4696 -1.5823 -1.0724
 7711TIP3    H244549   0.373   1.227   0.660 -1.2523  0.9261  1.5167
 7712TIP3   OH244550   5.852   3.344   4.350 -0.1771  0.5889  1.0056
 7712TIP3    H144551   5.935   3.389   4.363 -0.2197  0.3428  2.1786
 7712TIP3    H244552   5.806   3.397   4.284  1.0513  0.5058  0.0459
 7713TIP3   OH244553   2.457   6.534  13.409  0.0453 -0.4382  0.1869
 7713TIP3    H144554   2.374   6.578  13.424  0.9062  0.8119  1.6169
 7713TIP3    H244555   2.492   6.575  13.330 -1.3590 -2.1115 -1.3995
 7714TIP3   OH244556   1.661   1.475  16.996  0.3901  0.2784 -0.2208
 7714TIP3    H144557   1.646   1.456  16.903 -1.3446 -3.0393  0.5641
 7714TIP3    H244558   1.744   1.433  17.016  1.0363  1.4681 -0.3561
 7715TIP3   OH244559   3.173   2.942  15.465  0.2350  0.0350 -0.1469
 7715TIP3    H144560   3.124   3.024  15.462  0.4550  0.1837  0.2349
 7715TIP3    H244561   3.110   2.876  15.438  0.5001  0.5244 -2.0899
 7716TIP3   OH244562   4.931   1.085  14.938  0.1439 -0.6391 -0.2329
 7716TIP3    H144563   4.891   1.103  15.023 -1.4909 -1.3974 -0.7884
 7716TIP3    H244564   5.024   1.076  14.956  0.2043  1.8571  1.0314
 7717TIP3   OH244565   0.607   0.292   2.693  0.3149  0.6690 -0.9850
 7717TIP3    H144566   0.623   0.274   2.601  1.2647 -0.1013 -0.6807
 7717TIP3    H244567   0.684   0.342   2.722  0.6667 -0.2519 -0.2902
 7718TIP3   OH244568   2.787   3.870   0.131  0.8841 -0.3469  0.5287
 7718TIP3    H144569   2.816   3.780   0.121 -0.0158 -0.3712 -3.2614
 7718TIP3    H244570   2.861   3.923   0.099  1.1042  0.2834  1.9795
 7719TIP3   OH244571   1.036   0.780   3.703 -0.2165 -0.7312  0.1868
 7719TIP3    H144572   1.086   0.843   3.755 -1.6585  0.6520 -0.0087
 7719TIP3    H244573   1.098   0.710   3.684  0.6300 -0.8424  2.9510
 7720TIP3   OH244574   3.184   1.798  13.292  0.4867  0.1740  0.5366
 7720TIP3    H144575   3.136   1.813  13.373  1.1498  0.9610  0.8028
 7720TIP3    H244576   3.162   1.873  13.237  2.4667  1.3160  1.1996
 7721TIP3   OH244577   2.307   5.557  17.048 -0.1382 -0.5422 -0.5581
 7721TIP3    H144578   2.219   5.564  17.086  0.3046 -0.7472  0.5558
 7721TIP3    H244579   2.307   5.471  17.005 -0.0961 -1.1099  0.5275
 7722TIP3   OH244580   0.996   1.949  11.961 -0.5738  0.0948  0.1370
 7722TIP3    H144581   0.925   1.889  11.940 -1.2801  0.4243  1.4537
 7722TIP3    H244582   1.076   1.898  11.947 -0.9757  0.0155 -2.2945
 7723TIP3   OH244583   6.344   3.988   2.476 -0.3701  0.3386 -0.0085
 7723TIP3    H144584   6.254   3.955   2.467 -0.1990 -0.8591  1.9049
 7723TIP3    H244585   6.337   4.082   2.461 -1.1685 -0.1788 -4.1615
 7724TIP3   OH244586   3.241   5.110   1.545  0.1159  0.7930  0.1158
 7724TIP3    H144587   3.303   5.046   1.580 -0.6434  0.2549  0.5120
 7724TIP3    H244588   3.209   5.070   1.464 -0.8676  0.3438  0.7141
 7725TIP3   OH244589   4.734   3.224  14.359 -0.2335  0.5782  0.2301
 7725TIP3    H144590   4.650   3.188  14.387  0.1655  0.5509  1.4406
 7725TIP3    H244591   4.778   3.249  14.440  1.2140 -0.0255 -0.3371
 7726TIP3   OH244592   1.178   1.743  11.503 -0.2753  0.4967 -0.7859
 7726TIP3    H144593   1.133   1.815  11.458  0.6207  2.2285  0.9169
 7726TIP3    H244594   1.235   1.787  11.566  0.3246 -1.7480  0.3282
 7727TIP3   OH244595   2.935   4.583   4.087  0.5597  0.6253  0.0708
 7727TIP3    H144596   2.887   4.575   4.005 -0.9725  0.1753  0.9675
 7727TIP3    H244597   2.984   4.501   4.096  0.0793  0.3262 -0.0110
 7728TIP3   OH244598   3.303   2.284  10.676  0.2913  0.0080 -0.3070
 7728TIP3    H144599   3.290   2.201  10.722  1.6247  0.5283  1.1237
 7728TIP3    H244600   3.262   2.272  10.591 -1.8847 -1.1784  0.8310
 7729TIP3   OH244601   2.404   3.807  12.937  0.2851  0.1252  0.3075
 7729TIP3    H144602   2.361   3.808  13.023  1.9063 -1.4494  1.2004
 7729TIP3    H244603   2.385   3.719  12.903 -1.5019  1.1805 -1.6230
 7730TIP3   OH244604   2.918   6.456   3.303  0.4592 -0.1576 -0.0504
 7730TIP3    H144605   2.985   6.392   3.283  0.6297 -0.2058  0.6639
 7730TIP3    H244606   2.958   6.541   3.281  0.8412 -0.1670  0.5914
 7731TIP3   OH244607   5.140   1.215  11.253  0.1307 -0.1313  0.1457
 7731TIP3    H144608   5.134   1.245  11.162  2.3402 -0.6985 -0.2380
 7731TIP3    H244609   5.147   1.120  11.246  0.9130 -0.1320  0.8716
 7732TIP3   OH244610   1.878   0.191  12.297  0.1163  0.8433  0.1989
 7732TIP3    H144611   1.864   0.159  12.386  0.0894 -1.1399 -0.4804
 7732TIP3    H244612   1.797   0.239  12.276 -0.8904 -0.7000  0.4211
 7733TIP3   OH244613   5.169   0.560  11.533  0.2121  0.1580 -0.3158
 7733TIP3    H144614   5.251   0.593  11.497  1.4577 -2.5571 -0.2458
 7733TIP3    H244615   5.188   0.543  11.625 -1.0577  1.2578  0.1862
 7734TIP3   OH244616   4.901   4.924   0.728 -0.1302  0.1128  0.1490
 7734TIP3    H144617   4.839   4.891   0.663  0.1739  0.0200 -0.0975
 7734TIP3    H244618   4.896   5.019   0.721  0.1201  0.0998 -0.2193
 7735TIP3   OH244619   0.243   5.689   3.664  0.5676 -0.3353 -0.6162
 7735TIP3    H144620   0.314   5.753   3.672  0.7671 -0.2504 -2.6323
 7735TIP3    H244621   0.286   5.609   3.633  0.2269 -1.3238  1.2863
 7736TIP3   OH244622   4.127   3.115   2.489  0.4401  0.3421  0.0960
 7736TIP3    H144623   4.153   3.030   2.453  0.6515 -0.3656  1.8148
 7736TIP3    H244624   4.209   3.160   2.506  0.3698  2.1528 -3.3679
 7737TIP3   OH244625   2.495   1.868   3.450 -0.2553 -0.1768 -0.0021
 7737TIP3    H144626   2.572   1.910   3.490 -0.2031 -0.4670  0.2072
 7737TIP3    H244627   2.495   1.779   3.486 -1.2037  0.0955  0.7075
 7738TIP3   OH244628   3.172   4.890   2.514 -0.8424 -0.1138 -0.1401
 7738TIP3    H144629   3.158   4.941   2.434  0.7588 -1.5351 -1.4092
 7738TIP3    H244630   3.138   4.945   2.584 -0.5745  2.0104 -1.5875
 7739TIP3   OH244631   1.270   4.092   1.703 -0.2781 -0.5595 -0.4089
 7739TIP3    H144632   1.203   4.038   1.745  0.8500 -1.1988  0.6420
 7739TIP3    H244633   1.301   4.150   1.772  0.1281 -0.1436 -0.9328
 7740TIP3   OH244634   6.585   3.859   3.817  0.0128  0.0362 -0.0500
 7740TIP3    H144635   6.608   3.854   3.724  2.5341  0.7719  0.4402
 7740TIP3    H244636   6.548   3.773   3.837  0.8037 -0.6676 -1.4302
 7741TIP3   OH244637   0.416   2.279  14.091 -0.3302 -0.0667 -0.0208
 7741TIP3    H144638   0.438   2.342  14.159  0.7747 -0.3179 -0.1278
 7741TIP3    H244639   0.481   2.209  14.101 -0.0462 -0.0259 -1.4294
 7742TIP3   OH244640   4.415   0.362   3.341  0.2466  0.0873 -0.2414
 7742TIP3    H144641   4.429   0.312   3.422 -1.2188 -1.3405 -0.8129
 7742TIP3    H244642   4.356   0.433   3.367 -0.3857 -0.4869 -0.0950
 7743TIP3   OH244643   4.327   2.752   3.882  0.3738  0.0569  1.0762
 7743TIP3    H144644   4.352   2.806   3.807  0.0617 -1.6977 -0.3499
 7743TIP3    H244645   4.294   2.815   3.946 -0.6482  1.5291 -0.7814
 7744TIP3   OH244646   6.548   6.650   2.960  0.2484  0.3410  0.0440
 7744TIP3    H144647   6.579   6.684   2.876 -1.2906  2.6919  0.3312
 7744TIP3    H244648   6.453   6.642   2.949  0.0982  0.1109  1.3552
 7745TIP3   OH244649   2.076   5.636   0.293 -0.5149  0.2021 -0.1639
 7745TIP3    H144650   2.106   5.712   0.242 -0.5120  0.6133  0.4313
 7745TIP3    H244651   2.110   5.653   0.381 -2.4396  0.6566  0.5388
 7746TIP3   OH244652   3.113   1.248   5.370  0.0222  0.0891 -0.1683
 7746TIP3    H144653   3.133   1.336   5.402 -0.6981  0.0213  0.4823
 7746TIP3    H244654   3.082   1.200   5.447  0.1925 -0.6712 -0.5619
 7747TIP3   OH244655   2.482   3.414   1.305  0.2187 -0.1924  0.5133
 7747TIP3    H144656   2.480   3.510   1.309  1.0624 -0.2186  2.4510
 7747TIP3    H244657   2.406   3.391   1.252  0.1393  1.5456 -0.1964
 7748TIP3   OH244658   1.838   6.314   5.955  0.2518  0.0480  0.6702
 7748TIP3    H144659   1.823   6.288   5.864  2.6687 -0.4658  0.3253
 7748TIP3    H244660   1.764   6.370   5.977  0.2775  1.3297 -2.0638
 7749TIP3   OH244661   6.041   0.503  16.903  0.1060 -0.0791  0.0194
 7749TIP3    H144662   6.102   0.539  16.838  0.8987 -0.8960  0.2858
 7749TIP3    H244663   6.062   0.410  16.905 -1.1228 -0.3556  0.1738
 7750TIP3   OH244664   6.264   0.313   5.379  0.0703 -0.2051  0.2498
 7750TIP3    H144665   6.343   0.259   5.382  0.7556  0.8045  1.1245
 7750TIP3    H244666   6.220   0.287   5.299  0.8161 -1.4538  0.2239
 7751TIP3   OH244667   2.238   4.257   4.169 -0.4108 -0.2931  0.3742
 7751TIP3    H144668   2.187   4.304   4.103 -0.5269 -0.9726 -0.0243
 7751TIP3    H244669   2.221   4.165   4.152  2.5410 -0.6720 -1.1303
 7752TIP3   OH244670   4.266   3.179   3.683  0.2798  0.2893  0.4065
 7752TIP3    H144671   4.330   3.238   3.644  0.9233 -1.3398 -1.1840
 7752TIP3    H244672   4.181   3.210   3.652  0.6476  0.1298 -0.8090
 7753TIP3   OH244673   6.544   3.559   4.037  0.2180  0.2009  0.1419
 7753TIP3    H144674   6.479   3.490   4.053  0.9010 -0.3858  0.4423
 7753TIP3    H244675   6.584   3.535   3.953 -0.1000  0.6789 -0.1464
 7754TIP3   OH244676   2.289   1.944  13.282 -0.0226  0.0267  0.0282
 7754TIP3    H144677   2.323   2.014  13.339  1.6988 -1.8456  1.4750
 7754TIP3    H244678   2.346   1.946  13.206  1.4345 -1.0853  1.0325
 7755TIP3   OH244679   3.392   4.007  12.273  0.0962  0.0766 -0.1510
 7755TIP3    H144680   3.411   4.082  12.329 -0.1490 -0.4429  0.6384
 7755TIP3    H244681   3.301   3.986  12.291  0.5976 -1.4279  0.9002
 7756TIP3   OH244682   2.757   0.089   0.800 -0.3727  0.4627  0.3669
 7756TIP3    H144683   2.821   0.148   0.839  0.0742  0.0290  0.2924
 7756TIP3    H244684   2.711   0.143   0.736 -0.3492  0.8762  0.6917
 7757TIP3   OH244685   3.185   1.267  15.888 -0.3008 -0.2983  0.0571
 7757TIP3    H144686   3.178   1.360  15.866 -1.3787 -0.6036 -1.0098
 7757TIP3    H244687   3.259   1.262  15.948  1.0816  0.9740 -1.4675
 7758TIP3   OH244688   6.078   5.104   0.233 -0.3023  0.0043  0.7436
 7758TIP3    H144689   6.075   5.029   0.173  1.3320 -0.4250  1.1447
 7758TIP3    H244690   5.989   5.138   0.233 -0.1527  0.8605 -3.0067
 7759TIP3   OH244691   6.015   0.288   0.654  0.1950  0.1855 -0.3380
 7759TIP3    H144692   6.082   0.251   0.712 -0.8915 -0.6801  0.3959
 7759TIP3    H244693   6.016   0.382   0.674 -0.4718 -0.1474  1.4638
 7760TIP3   OH244694   2.557   1.460  11.559  0.3652 -0.1150 -0.0748
 7760TIP3    H144695   2.538   1.451  11.652  0.4402  1.7399  0.1723
 7760TIP3    H244696   2.478   1.501  11.523  0.0181 -1.5320 -1.0050
 7761TIP3   OH244697   6.540   3.037  10.757  0.0349  0.1956 -0.6912
 7761TIP3    H144698   6.525   3.129  10.734 -0.2470  0.5098  0.6436
 7761TIP3    H244699   6.573   2.997  10.677 -0.6983  1.2525 -1.5459
 7762TIP3   OH244700   4.192   1.966   1.756 -0.3242 -0.1745  0.1852
 7762TIP3    H144701   4.142   2.027   1.702 -1.1253 -1.3487 -0.4358
 7762TIP3    H244702   4.157   1.980   1.845 -2.0749 -1.2325 -0.2913
 7763TIP3   OH244703   4.544   5.972  10.853 -0.1495 -0.3640  0.7481
 7763TIP3    H144704   4.530   5.877  10.845  0.1591 -0.3634  0.0812
 7763TIP3    H244705   4.485   6.000  10.922 -1.1943 -0.8421  0.0728
 7764TIP3   OH244706   5.867   1.944   4.076 -0.5715  0.2353 -0.6878
 7764TIP3    H144707   5.854   1.863   4.025 -1.2342 -0.3960  0.4446
 7764TIP3    H244708   5.821   2.011   4.025 -1.5329 -0.4546 -0.7610
 7765TIP3   OH244709   0.812   0.088  13.388  0.4292 -0.2597  0.1409
 7765TIP3    H144710   0.811   0.131  13.474 -0.6137 -0.9680  0.4995
 7765TIP3    H244711   0.895   0.039  13.387  0.5858 -0.0144  0.6213
 7766TIP3   OH244712   4.259   4.643   3.018 -0.2022 -0.5426 -0.1445
 7766TIP3    H144713   4.263   4.548   3.031  0.3311 -0.6198 -0.8304
 7766TIP3    H244714   4.344   4.666   2.981  0.3996  0.4966  1.7386
 7767TIP3   OH244715   6.092   1.401  16.198 -0.6090 -0.1510  0.4095
 7767TIP3    H144716   6.087   1.307  16.215  1.6534 -0.1140  1.7305
 7767TIP3    H244717   6.020   1.438  16.249 -1.9682 -1.1726 -0.6853
 7768TIP3   OH244718   3.502   4.874  13.731  0.3431 -0.3816 -0.4493
 7768TIP3    H144719   3.514   4.876  13.636 -0.7819 -2.5368 -0.7144
 7768TIP3    H244720   3.539   4.790  13.757 -0.6739 -0.4752  0.7894
 7769TIP3   OH244721   2.299   4.275  11.483 -0.1072  0.3789 -0.0592
 7769TIP3    H144722   2.352   4.261  11.562  0.5407 -1.3939 -0.7625
 7769TIP3    H244723   2.363   4.282  11.412 -0.7570 -1.2468 -0.8484
 7770TIP3   OH244724   2.236   3.923  13.121 -0.0450  0.4865 -0.1107
 7770TIP3    H144725   2.204   3.905  13.210  0.7832  0.0895  0.1168
 7770TIP3    H244726   2.161   3.961  13.076 -1.0739 -1.0858  0.2002
 7771TIP3   OH244727   2.320   2.899   2.083 -0.0230 -0.2734 -0.8623
 7771TIP3    H144728   2.312   2.963   2.154  1.1737 -1.0782  0.0236
 7771TIP3    H244729   2.231   2.866   2.071 -0.7875  1.8796 -1.6956
 7772TIP3   OH244730   4.967   5.667   3.885  0.1524 -0.2428  0.3257
 7772TIP3    H144731   4.915   5.591   3.914 -0.6341 -0.2570 -1.0067
 7772TIP3    H244732   5.035   5.677   3.952  0.5206 -2.3687  0.3392
 7773TIP3   OH244733   0.457   3.594   1.959 -0.2843 -0.1837 -0.3552
 7773TIP3    H144734   0.457   3.528   2.029 -0.3614  0.8146  0.6062
 7773TIP3    H244735   0.545   3.588   1.921  0.1760  0.0552  0.6168
 7774TIP3   OH244736   3.340   0.874  15.384 -0.3241 -0.1551  0.1303
 7774TIP3    H144737   3.274   0.909  15.443 -1.3106 -4.3885  1.8950
 7774TIP3    H244738   3.423   0.890  15.430 -0.4222  1.7921 -0.2807
 7775TIP3   OH244739   5.235   2.285  17.075  0.4907  0.0853 -0.4167
 7775TIP3    H144740   5.192   2.264  16.992  0.7417  1.1119 -0.8232
 7775TIP3    H244741   5.328   2.292  17.052  0.4650  1.2113 -0.2311
 7776TIP3   OH244742   2.295   0.219  13.776  0.7755  0.0580 -0.9406
 7776TIP3    H144743   2.330   0.140  13.817 -0.3839  0.0698  0.1359
 7776TIP3    H244744   2.369   0.279  13.771  1.3410 -0.5967 -0.4920
 7777TIP3   OH244745   2.929   5.575  16.307 -0.2160 -0.2211  0.0888
 7777TIP3    H144746   2.986   5.618  16.243  0.1093 -1.0068 -0.1520
 7777TIP3    H244747   2.842   5.611  16.289  0.5428  3.2915  2.3788
 7778TIP3   OH244748   1.519   3.743   2.001 -0.4264  0.1747 -0.0031
 7778TIP3    H144749   1.557   3.702   2.079 -1.5238  1.4717  1.2757
 7778TIP3    H244750   1.593   3.757   1.943  0.0577 -3.1870 -0.3727
 7779TIP3   OH244751   0.369   3.870  14.145  0.1208  0.3883 -0.8630
 7779TIP3    H144752   0.436   3.803  14.134  1.3489  1.1714  1.2082
 7779TIP3    H244753   0.389   3.935  14.077  0.9593  0.2050 -0.8037
 7780TIP3   OH244754   1.715   3.323   2.055  0.2820  0.0546 -0.4281
 7780TIP3    H144755   1.778   3.351   1.989  1.7771 -4.3186 -1.1890
 7780TIP3    H244756   1.742   3.369   2.134  2.4501  0.7408 -1.4712
 7781TIP3   OH244757   0.320   4.070   4.215  0.5265  0.3634  0.2209
 7781TIP3    H144758   0.243   4.014   4.214  1.2018 -0.6395 -1.7724
 7781TIP3    H244759   0.351   4.069   4.125  3.6030 -0.3175  1.1678
 7782TIP3   OH244760   5.160   5.138   5.981 -0.6493 -0.0874  0.2139
 7782TIP3    H144761   5.223   5.172   6.045 -0.0843 -1.4821  0.4317
 7782TIP3    H244762   5.113   5.070   6.029 -1.3357 -0.0366 -0.3859
 7783TIP3   OH244763   3.901   1.783   6.355  0.0704  0.1905 -0.1476
 7783TIP3    H144764   3.970   1.789   6.420  0.4343 -0.4694 -0.4549
 7783TIP3    H244765   3.892   1.872   6.320 -1.4451  1.0002  2.0987
 7784TIP3   OH244766   0.331   6.597   0.677 -0.1586  0.3484 -0.6423
 7784TIP3    H144767   0.353   6.509   0.708 -0.3535 -0.0618 -1.6424
 7784TIP3    H244768   0.412   6.630   0.639  0.5825  1.5384  1.7607
 7785TIP3   OH244769   2.362   5.622   1.459  0.5111 -0.0524 -0.2552
 7785TIP3    H144770   2.285   5.660   1.502  0.6102  0.0960 -0.2100
 7785TIP3    H244771   2.435   5.643   1.517  0.8395  1.2049 -1.0709
 7786TIP3   OH244772   6.271   5.050  15.075 -0.0087 -0.3282  0.3534
 7786TIP3    H144773   6.246   5.031  14.984  0.8465  0.0446  0.0217
 7786TIP3    H244774   6.366   5.034  15.077 -0.1068 -0.8768  1.3307
 7787TIP3   OH244775   0.993   2.750  11.441 -0.2077 -0.0658  0.0654
 7787TIP3    H144776   1.031   2.668  11.409  1.9007  0.1290  1.8332
 7787TIP3    H244777   1.023   2.816  11.379 -0.7542 -0.4044 -0.5811
 7788TIP3   OH244778   6.569   2.421   5.532 -0.0419 -0.3894 -0.1315
 7788TIP3    H144779   6.625   2.494   5.505  0.3559 -0.1865  1.1697
 7788TIP3    H244780   6.608   2.391   5.614  1.3259 -3.7135 -1.8262
 7789TIP3   OH244781   6.196   5.756   6.039 -0.0583  0.6248 -0.0291
 7789TIP3    H144782   6.218   5.678   6.090  0.2148  1.0010  0.4388
 7789TIP3    H244783   6.102   5.768   6.054 -0.0345  0.5731  0.1671
 7790TIP3   OH244784   6.796   1.665   2.779  0.7095  0.0946  0.2884
 7790TIP3    H144785   6.866   1.691   2.719  0.1861 -0.8232 -0.7561
 7790TIP3    H244786   6.779   1.744   2.831 -0.4844  1.7624 -2.4148
 7791TIP3   OH244787   4.614   0.419  10.977  0.3412  0.0886  0.6465
 7791TIP3    H144788   4.673   0.368  10.922  1.3545  1.4637  0.3850
 7791TIP3    H244789   4.596   0.498  10.925 -0.9568  0.1403  1.1418
 7792TIP3   OH244790   1.905   2.960   2.503  0.2364  0.2290  0.0333
 7792TIP3    H144791   1.819   2.920   2.516 -0.1258  1.0030  0.0618
 7792TIP3    H244792   1.893   3.021   2.430  0.2483  1.7787  1.2644
 7793TIP3   OH244793   0.884   2.685   5.335  0.7700  0.4011  0.3257
 7793TIP3    H144794   0.888   2.593   5.312  1.9239  0.3530  0.6482
 7793TIP3    H244795   0.792   2.709   5.324  0.3138 -0.9711  0.9874
 7794TIP3   OH244796   0.153   5.003   6.253  0.4296 -0.3752 -0.4844
 7794TIP3    H144797   0.139   4.920   6.207 -1.0766  0.1425 -1.0094
 7794TIP3    H244798   0.086   5.005   6.321 -0.6984  1.1567 -1.5772
 7795TIP3   OH244799   6.500   2.738   5.063 -0.4206 -0.2408 -0.5832
 7795TIP3    H144800   6.544   2.726   4.979  0.3820 -0.7196 -0.0959
 7795TIP3    H244801   6.424   2.679   5.059  0.2117 -1.0696 -0.5498
 7796TIP3   OH244802   2.990   3.634  16.436 -0.3385 -0.1500 -0.3017
 7796TIP3    H144803   2.958   3.593  16.355  0.1573 -2.3183  0.5189
 7796TIP3    H244804   3.084   3.646  16.421 -0.5481  1.1469 -0.6901
 7797TIP3   OH244805   2.050   5.392   2.081  0.1783 -0.2777  0.5351
 7797TIP3    H144806   2.079   5.300   2.075  0.9666 -0.0345  0.4726
 7797TIP3    H244807   2.007   5.408   1.997 -0.4941 -0.7638  0.7795
 7798TIP3   OH244808   5.918   5.831  16.913 -0.3074 -0.6179  0.2326
 7798TIP3    H144809   5.877   5.745  16.927 -3.6915  0.8683  0.5193
 7798TIP3    H244810   5.915   5.872  17.000 -0.1176  0.3075 -0.1906
 7799TIP3   OH244811   1.486   0.025   3.337 -1.0188  0.2319  0.5278
 7799TIP3    H144812   1.396  -0.003   3.320 -0.3374 -2.5640  1.1216
 7799TIP3    H244813   1.494   0.022   3.433 -0.2479  0.3705  0.4705
 7800TIP3   OH244814   3.673   5.264   5.484  0.3468 -0.3007 -0.1839
 7800TIP3    H144815   3.647   5.260   5.392  0.3089  0.3311 -0.2089
 7800TIP3    H244816   3.633   5.188   5.524 -0.1474 -0.2475 -0.5660
 7801TIP3   OH244817   1.545   0.009   1.178  0.0566  0.2749  0.2380
 7801TIP3    H144818   1.453  -0.009   1.194  0.1732 -0.3087  0.2594
 7801TIP3    H244819   1.591  -0.070   1.205  0.3218 -0.5390 -2.3219
 7802TIP3   OH244820   1.633   4.968   5.605 -0.4445  0.6497  0.1126
 7802TIP3    H144821   1.567   5.014   5.553  0.4710  1.2726 -0.5314
 7802TIP3    H244822   1.584   4.930   5.678 -1.5729  0.7552 -0.5680
 7803TIP3   OH244823   5.311   5.876  12.015 -0.0852  0.0359 -0.4765
 7803TIP3    H144824   5.360   5.885  11.933 -1.6672 -0.3105 -1.4877
 7803TIP3    H244825   5.379   5.877  12.083  1.2487  0.4891 -1.7614
 7804TIP3   OH244826   5.791   4.535  16.413  0.3092 -0.1420  0.5666
 7804TIP3    H144827   5.813   4.470  16.346 -0.0414  0.2630  0.0529
 7804TIP3    H244828   5.876   4.560  16.450  0.6202  0.4400 -0.4922
 7805TIP3   OH244829   1.650   1.591  15.398 -0.3760  0.2161  0.1143
 7805TIP3    H144830   1.702   1.665  15.429 -0.0291 -0.4778  1.2395
 7805TIP3    H244831   1.587   1.630  15.337 -0.7187  1.5582  1.2770
 7806TIP3   OH244832   1.174   0.602  16.361  0.3571  0.1829 -0.3104
 7806TIP3    H144833   1.118   0.588  16.285 -0.3562  0.0949  0.2097
 7806TIP3    H244834   1.249   0.544  16.348  0.5006  0.5615 -1.1886
 7807TIP3   OH244835   1.333   4.688   5.735  0.1290 -0.1830 -0.1345
 7807TIP3    H144836   1.241   4.692   5.710 -0.1879 -0.4327  0.9687
 7807TIP3    H244837   1.378   4.739   5.667 -0.4502 -2.3747 -2.3371
 7808TIP3   OH244838   1.062   5.863  11.834  0.3630  0.0269 -0.3359
 7808TIP3    H144839   0.969   5.849  11.853  0.4128 -1.3173 -0.9217
 7808TIP3    H244840   1.067   5.952  11.801 -0.4119  0.7993  1.4792
 7809TIP3   OH244841   1.331   5.766   2.220  0.1516  0.4353  0.2855
 7809TIP3    H144842   1.239   5.793   2.212 -0.5920 -1.9163 -0.1191
 7809TIP3    H244843   1.341   5.741   2.311  0.2875  0.3793  0.2551
 7810TIP3   OH244844   5.544   1.769   5.532  0.2558  0.0671  0.0724
 7810TIP3    H144845   5.612   1.757   5.466 -0.3332  2.5927 -1.1263
 7810TIP3    H244846   5.592   1.802   5.609  0.5207  1.0244 -0.4828
 7811TIP3   OH244847   6.070   3.294   0.488  0.2551 -0.0353 -0.8188
 7811TIP3    H144848   6.109   3.227   0.545 -0.9532  0.6363  0.8864
 7811TIP3    H244849   6.106   3.377   0.520 -1.1667  0.4353 -0.3443
 7812TIP3   OH244850   4.682   6.600   4.727  0.1887 -0.5675  0.1489
 7812TIP3    H144851   4.761   6.553   4.702  0.0716 -0.5097 -0.3307
 7812TIP3    H244852   4.713   6.688   4.752 -0.0096  0.5013 -2.9753
 7813TIP3   OH244853   2.752   6.271  13.314 -0.6536  0.4601  0.4370
 7813TIP3    H144854   2.673   6.253  13.365 -1.3709  0.5943 -0.5724
 7813TIP3    H244855   2.761   6.366  13.314 -0.4992  0.4457  0.5449
 7814TIP3   OH244856   4.656   0.987  14.145 -0.7336 -0.7046 -0.0930
 7814TIP3    H144857   4.603   0.984  14.224 -1.9644  1.4144 -0.7742
 7814TIP3    H244858   4.642   0.901  14.104 -0.6028 -1.5849  1.5956
 7815TIP3   OH244859   5.409   0.327  11.251  0.4318 -0.7697  0.1794
 7815TIP3    H144860   5.330   0.334  11.303  0.4041 -0.1109  0.0644
 7815TIP3    H244861   5.381   0.347  11.162  0.9018  0.5380  0.3033
 7816TIP3   OH244862   1.340   5.774  13.897 -0.5250 -0.4563  0.3319
 7816TIP3    H144863   1.389   5.760  13.816  2.3165  1.6359  1.5196
 7816TIP3    H244864   1.326   5.686  13.933  2.2098 -1.2194 -0.2449
 7817TIP3   OH244865   6.448   2.607   2.506  0.3043 -0.2958 -0.1633
 7817TIP3    H144866   6.467   2.675   2.572  0.2750 -0.4815  0.0389
 7817TIP3    H244867   6.519   2.544   2.516 -0.4986 -1.0999  0.7361
 7818TIP3   OH244868   4.352   2.006  11.710 -0.1014 -0.3343 -0.5067
 7818TIP3    H144869   4.367   2.100  11.694 -1.4558 -0.0423 -0.2445
 7818TIP3    H244870   4.336   2.000  11.804  1.3954 -1.0642 -0.2801
 7819TIP3   OH244871   3.738   6.132   4.370  0.3877 -0.3378 -0.0828
 7819TIP3    H144872   3.744   6.205   4.432  1.0741  0.5866 -1.1940
 7819TIP3    H244873   3.650   6.138   4.334  0.5019  0.0580 -0.2993
 7820TIP3   OH244874   3.662   0.893   4.731  0.1542  0.1278 -0.8222
 7820TIP3    H144875   3.744   0.860   4.695  1.2270  2.7034 -0.9506
 7820TIP3    H244876   3.654   0.982   4.696 -0.8964  1.2294  1.9206
 7821TIP3   OH244877   2.748   1.165   3.196 -0.0485  0.1878  0.1863
 7821TIP3    H144878   2.688   1.236   3.174 -0.2695 -0.7560 -2.6857
 7821TIP3    H244879   2.835   1.201   3.177  0.0924  0.5509  1.4196
 7822TIP3   OH244880   4.767   4.348  17.186  0.1620 -0.3140 -0.5739
 7822TIP3    H144881   4.677   4.317  17.196 -0.9295  2.8694  0.5731
 7822TIP3    H244882   4.778   4.414  17.254  3.2582 -0.2889 -0.9524
 7823TIP3   OH244883   2.895   2.024  14.619  0.1547  0.1286 -0.1845
 7823TIP3    H144884   2.849   1.954  14.574  0.2016  0.0756 -0.1509
 7823TIP3    H244885   2.875   2.103  14.569 -1.6213  0.4633  0.9645
 7824TIP3   OH244886   3.706   3.918  13.966 -0.6749 -0.0635  0.5449
 7824TIP3    H144887   3.769   3.876  13.907 -0.9307 -0.3046  0.4429
 7824TIP3    H244888   3.713   4.011  13.945  0.1754 -0.0094  1.0469
 7825TIP3   OH244889   5.036   6.300  13.563 -0.2284 -0.1582  0.5405
 7825TIP3    H144890   4.947   6.324  13.536 -0.3721 -0.6646  0.5468
 7825TIP3    H244891   5.029   6.208  13.589  0.1908 -0.0572  1.0338
 7826TIP3   OH244892   0.376   3.774   2.682 -0.4000 -0.3655 -0.3352
 7826TIP3    H144893   0.359   3.680   2.688 -2.9503  0.0597  0.1574
 7826TIP3    H244894   0.391   3.802   2.772  0.4765 -0.2901 -0.4943
 7827TIP3   OH244895   3.879   0.721   4.657 -0.1422 -0.1433 -0.5536
 7827TIP3    H144896   3.971   0.745   4.654  0.0229 -0.4755  1.1317
 7827TIP3    H244897   3.864   0.675   4.575  1.2970 -0.4475 -0.6733
 7828TIP3   OH244898   4.354   3.675   0.634  0.2719  0.3533 -0.1941
 7828TIP3    H144899   4.304   3.627   0.700  0.5215  1.8660  1.1583
 7828TIP3    H244900   4.340   3.626   0.553  1.2890 -2.5545  1.2391
 7829TIP3   OH244901   0.421   5.455  12.590 -0.0310  0.2310 -0.0832
 7829TIP3    H144902   0.470   5.441  12.671  1.5380 -0.8148 -1.1564
 7829TIP3    H244903   0.447   5.543  12.562  0.1293  0.2400  0.0864
 7830TIP3   OH244904   4.847   5.871  15.656 -0.1152 -0.5582  0.4436
 7830TIP3    H144905   4.858   5.844  15.747 -0.1767  0.7891  0.8737
 7830TIP3    H244906   4.755   5.895  15.649 -0.4369 -1.9255 -0.3563
 7831TIP3   OH244907   3.586   6.677  14.071 -0.0775  0.0404 -0.2049
 7831TIP3    H144908   3.539   6.708  13.993 -1.4418  0.1692  0.6254
 7831TIP3    H244909   3.675   6.712  14.061 -0.4595  0.7637 -1.2914
 7832TIP3   OH244910   1.815   2.718  15.693 -0.1204 -0.0849  0.1970
 7832TIP3    H144911   1.729   2.728  15.653 -1.6747 -1.8286  2.7311
 7832TIP3    H244912   1.824   2.794  15.751 -0.3576 -0.3118  0.5380
 7833TIP3   OH244913   6.659   0.417   4.509 -0.0807  0.4107 -0.2257
 7833TIP3    H144914   6.739   0.436   4.558  0.0033  0.0197 -0.2132
 7833TIP3    H244915   6.612   0.501   4.506 -0.1500  0.4080  0.6345
 7834TIP3   OH244916   3.574   3.248   1.868 -0.2608 -0.4306 -0.1458
 7834TIP3    H144917   3.507   3.249   1.800  1.3541  1.9817 -1.8592
 7834TIP3    H244918   3.649   3.205   1.828  0.6010  0.7242  0.1743
 7835TIP3   OH244919   2.189   1.082   4.449 -0.0212 -0.0166 -0.6314
 7835TIP3    H144920   2.209   1.097   4.541 -0.1848 -1.4801 -0.3274
 7835TIP3    H244921   2.094   1.084   4.443 -0.1108 -1.8806 -0.3604
 7836TIP3   OH244922   6.077   5.749   2.017 -0.2029  0.3362 -0.0005
 7836TIP3    H144923   5.988   5.754   2.052 -0.2769 -2.5054  0.4511
 7836TIP3    H244924   6.065   5.726   1.925  0.0016 -1.8875  0.4794
 7837TIP3   OH244925   4.466   4.042  16.813 -0.6653 -0.1420 -0.1560
 7837TIP3    H144926   4.419   4.125  16.804  1.4228  1.0671 -0.4965
 7837TIP3    H244927   4.436   3.989  16.739  0.1127  1.4409 -1.6752
 7838TIP3   OH244928   4.084   5.137   1.273 -0.1242 -0.8943 -0.0166
 7838TIP3    H144929   4.084   5.172   1.362  0.0476  2.4350 -1.2020
 7838TIP3    H244930   4.175   5.144   1.244 -0.2290 -1.6626 -0.5691
 7839TIP3   OH244931   5.686   2.576   0.259  0.2897 -0.5936  0.1771
 7839TIP3    H144932   5.612   2.532   0.217 -0.2237 -0.6805  1.1503
 7839TIP3    H244933   5.757   2.570   0.195 -0.6594 -0.1083 -0.9722
 7840TIP3   OH244934   0.317   0.169   3.548 -0.2066 -0.1580  0.1565
 7840TIP3    H144935   0.320   0.258   3.584  2.5807 -0.1941  0.2782
 7840TIP3    H244936   0.312   0.112   3.625  1.2392 -0.1357  0.2926
 7841TIP3   OH244937   3.988   5.282   3.547  0.0225  0.5611 -0.0005
 7841TIP3    H144938   4.000   5.341   3.473  0.3619  0.7694  0.2188
 7841TIP3    H244939   3.998   5.338   3.624  2.3779 -0.1031  0.2620
 7842TIP3   OH244940   3.170   4.331  12.568 -0.7045  0.2310  0.0185
 7842TIP3    H144941   3.258   4.368  12.558 -0.6624  0.4665  1.1243
 7842TIP3    H244942   3.123   4.358  12.490  0.3932 -0.4368 -0.9011
 7843TIP3   OH244943   3.362   1.151  11.172  0.3092 -0.4169 -0.1180
 7843TIP3    H144944   3.356   1.245  11.161  2.0818 -0.2833 -0.1378
 7843TIP3    H244945   3.311   1.133  11.251 -2.8076  0.0806 -1.8490
 7844TIP3   OH244946   3.036   3.969   1.698  0.0659  0.0528  0.0291
 7844TIP3    H144947   3.106   3.927   1.648 -0.9661 -0.1090 -1.3431
 7844TIP3    H244948   2.994   3.897   1.745 -0.1628 -0.0989 -0.3994
 7845TIP3   OH244949   3.209   1.320   5.110 -0.1361 -0.0300  0.1508
 7845TIP3    H144950   3.181   1.305   5.201 -0.7527  1.9418  0.3310
 7845TIP3    H244951   3.233   1.233   5.078  1.1263 -0.6507  2.5161
 7846TIP3   OH244952   5.933   4.704  13.146  0.0128  0.0856  0.1952
 7846TIP3    H144953   5.902   4.650  13.219 -1.8357  1.1325  0.2586
 7846TIP3    H244954   6.024   4.677  13.133 -0.0588 -1.1725  1.9025
 7847TIP3   OH244955   1.604   3.162  14.270  0.0684 -0.3306  0.2418
 7847TIP3    H144956   1.682   3.136  14.221  0.5630  0.3674  0.6505
 7847TIP3    H244957   1.535   3.166  14.204  0.9202  1.4877 -0.6024
 7848TIP3   OH244958   1.566   1.957  12.303 -0.3088 -0.1878  0.1747
 7848TIP3    H144959   1.517   2.027  12.259  2.6186  1.1957 -1.1390
 7848TIP3    H244960   1.584   1.990  12.390 -0.0151  0.1787 -0.0215
 7849TIP3   OH244961   2.403   4.655   4.812  0.7501 -0.0821  0.5172
 7849TIP3    H144962   2.378   4.684   4.900 -1.1149 -0.8315  0.2894
 7849TIP3    H244963   2.332   4.687   4.756  1.1318 -0.9384 -0.4781
 7850TIP3   OH244964   6.004   1.585   1.059 -0.7942  0.6478 -0.8784
 7850TIP3    H144965   6.029   1.503   1.016 -0.7226 -0.8911  1.8736
 7850TIP3    H244966   6.087   1.624   1.087 -0.9390 -0.4606  1.3204
 7851TIP3   OH244967   2.538   0.621   3.773  0.4319 -0.1138  0.3824
 7851TIP3    H144968   2.592   0.693   3.740 -0.5687  0.2497 -0.5216
 7851TIP3    H244969   2.457   0.663   3.802  0.2796 -0.7494  0.9030
 7852TIP3   OH244970   1.488   5.450   2.147 -0.0270  0.5804  0.3388
 7852TIP3    H144971   1.456   5.380   2.203  1.6507 -2.0395 -1.7510
 7852TIP3    H244972   1.576   5.468   2.180 -0.3829  1.6820  0.7569
 7853TIP3   OH244973   1.670   1.056  16.705  0.5090  0.6139 -0.0230
 7853TIP3    H144974   1.722   1.059  16.624  1.6276  0.0250  0.6567
 7853TIP3    H244975   1.664   1.147  16.733  1.4720  0.6596  0.0662
 7854TIP3   OH244976   0.053   6.033  15.642  0.1257  0.3969 -0.5125
 7854TIP3    H144977   0.044   6.124  15.614  2.2281  1.4139  1.7570
 7854TIP3    H244978   0.088   6.039  15.731  2.7556 -2.6512 -1.1881
 7855TIP3   OH244979   6.743   3.718   4.207 -0.1555 -0.0632 -0.1660
 7855TIP3    H144980   6.665   3.684   4.165  0.0398 -1.4894  0.5267
 7855TIP3    H244981   6.719   3.726   4.300  0.4024 -0.1760 -0.0059
 7856TIP3   OH244982   3.382   2.544   3.202 -0.2948 -0.3052  0.7341
 7856TIP3    H144983   3.385   2.612   3.269 -0.2603 -0.0370  0.4642
 7856TIP3    H244984   3.438   2.474   3.237 -0.3789 -0.2213  1.0407
 7857TIP3   OH244985   3.321   4.073   0.102 -0.5978  0.3240 -0.1708
 7857TIP3    H144986   3.365   4.128   0.036 -0.9766  2.3535  1.1626
 7857TIP3    H244987   3.393   4.042   0.158 -0.5616  1.6788  0.5971
 7858TIP3   OH244988   0.328   3.894  15.329 -0.2722 -0.5572 -0.2171
 7858TIP3    H144989   0.284   3.810  15.342 -0.8231  0.0766  2.6073
 7858TIP3    H244990   0.274   3.957  15.375  0.1843  1.3988 -2.2069
 7859TIP3   OH244991   5.940   3.303   1.394  0.2656 -0.3390 -0.3375
 7859TIP3    H144992   5.874   3.234   1.397 -0.2353 -0.1127 -3.2203
 7859TIP3    H244993   6.023   3.256   1.383 -0.0424 -0.5618 -1.9824
 7860TIP3   OH244994   2.840   5.104   3.603 -0.2000 -0.1827  0.0202
 7860TIP3    H144995   2.804   5.192   3.612 -0.3126 -0.2118 -0.1367
 7860TIP3    H244996   2.935   5.116   3.603 -0.1745 -0.2152  1.6424
 7861TIP3   OH244997   1.944   1.210  16.628 -0.0225 -0.1265  0.2617
 7861TIP3    H144998   1.914   1.178  16.543  1.2636  1.2580 -0.7583
 7861TIP3    H244999   2.019   1.154  16.649 -0.4691 -0.6082  0.6236
 7862TIP3   OH245000   6.631   2.573   0.824  0.1838 -0.3283  0.4921
 7862TIP3    H145001   6.725   2.564   0.812  0.2538  0.4729  0.3638
 7862TIP3    H245002   6.594   2.557   0.736  0.1658 -0.9577  0.6074
 7863TIP3   OH245003   3.154   2.581  12.271 -0.0054  0.0598 -0.1942
 7863TIP3    H145004   3.073   2.606  12.316  0.5627 -2.7030  2.7605
 7863TIP3    H245005   3.131   2.580  12.178 -2.9779  0.5432  0.4393
 7864TIP3   OH245006   0.219   1.646   3.722  0.2636  0.1322 -0.0460
 7864TIP3    H145007   0.186   1.726   3.762 -1.0904 -1.1888  1.6645
 7864TIP3    H245008   0.163   1.632   3.646  0.5451  0.8137 -0.3863
 7865TIP3   OH245009   5.270   5.045  14.519 -0.2691 -0.2102 -0.0855
 7865TIP3    H145010   5.252   5.089  14.436 -0.4146 -0.3698 -0.1403
 7865TIP3    H245011   5.290   4.954  14.494 -1.5640 -0.5708  0.1525
 7866TIP3   OH245012   2.642   1.262   4.921 -0.1287  0.1121 -0.3601
 7866TIP3    H145013   2.661   1.203   4.848  2.4321 -0.0942  0.3769
 7866TIP3    H245014   2.562   1.308   4.895  1.0029  0.5127 -3.5673
 7867TIP3   OH245015   4.158   4.890   1.518 -0.0107 -0.2909  0.0446
 7867TIP3    H145016   4.089   4.916   1.456  0.1611  0.0480 -0.0064
 7867TIP3    H245017   4.163   4.963   1.580  0.1177 -0.4377  0.2073
 7868TIP3   OH245018   6.197   1.205   4.273  0.2069  0.1934 -0.3723
 7868TIP3    H145019   6.222   1.262   4.201  1.9675 -0.0188  0.0318
 7868TIP3    H245020   6.269   1.142   4.281 -0.5739 -0.6194  0.7099
 7869TIP3   OH245021   2.422   1.942  13.606  0.1388 -0.4746  0.5018
 7869TIP3    H145022   2.506   1.936  13.652 -0.3741  0.9986  1.7125
 7869TIP3    H245023   2.433   2.015  13.545  0.5747 -1.9672 -1.3009
 7870TIP3   OH245024   1.298   5.890  12.951  0.1646 -0.1298 -0.0460
 7870TIP3    H145025   1.243   5.925  13.022 -0.3152 -0.0077 -0.4710
 7870TIP3    H245026   1.256   5.808  12.926  1.4754 -1.2168  1.1662
 7871TIP3   OH245027   4.085   1.451   0.124 -0.5835  0.0990  0.1892
 7871TIP3    H145028   4.102   1.358   0.108  0.3324  0.5682 -1.8544
 7871TIP3    H245029   3.992   1.462   0.106 -0.8154 -0.5025  0.9577
 7872TIP3   OH245030   0.623   2.890  12.386 -0.3205 -0.3061  0.0660
 7872TIP3    H145031   0.588   2.869  12.473 -0.7228 -1.5338 -0.3703
 7872TIP3    H245032   0.684   2.818  12.367 -0.1511  0.0125 -0.6219
 7873TIP3   OH245033   6.200   3.557   1.505  0.6130  0.1750 -0.2442
 7873TIP3    H145034   6.247   3.635   1.537  1.8722 -0.7999  0.3917
 7873TIP3    H245035   6.216   3.557   1.411  0.6636  0.6442 -0.2411
 7874TIP3   OH245036   3.269   4.836  12.187 -0.2626  0.2549  0.4261
 7874TIP3    H145037   3.277   4.915  12.241 -2.2072  1.4420 -0.9256
 7874TIP3    H245038   3.211   4.779  12.238 -1.0035  0.8138  0.2242
 7875TIP3   OH245039   2.165   3.186   0.482  0.1852 -0.0619 -0.0583
 7875TIP3    H145040   2.137   3.177   0.391 -0.7570  0.7681  0.1334
 7875TIP3    H245041   2.208   3.271   0.486 -0.7911  0.4216  0.5063
 7876TIP3   OH245042   2.033   5.068   3.419  0.0639 -0.0829 -0.1661
 7876TIP3    H145043   1.991   5.103   3.497  0.9161  0.2768  0.1341
 7876TIP3    H245044   2.037   5.142   3.358 -0.3415 -0.2907 -0.4559
 7877TIP3   OH245045   1.401   4.462   4.127  0.1963 -0.2236 -0.6476
 7877TIP3    H145046   1.440   4.540   4.088 -0.4801  0.6270  0.3256
 7877TIP3    H245047   1.315   4.454   4.085 -0.4426  0.5682  0.4603
 7878TIP3   OH245048   0.788   6.708   4.121 -0.2446  0.0007  0.9661
 7878TIP3    H145049   0.758   6.618   4.132 -2.1658  0.6637  1.6931
 7878TIP3    H245050   0.728   6.746   4.057  0.2001  0.8999  1.0589
 7879TIP3   OH245051   0.241   3.906   5.747  0.0649  0.5488 -0.0053
 7879TIP3    H145052   0.328   3.869   5.756 -1.3314 -3.0991  0.1298
 7879TIP3    H245053   0.184   3.849   5.799 -2.5650  2.1543 -0.8795
 7880TIP3   OH245054   6.728   4.997  15.273 -0.3519 -0.3608  0.6942
 7880TIP3    H145055   6.667   4.940  15.226 -0.8422  1.0509 -0.4422
 7880TIP3    H245056   6.677   5.031  15.346 -0.9663  0.7913 -0.2356
 7881TIP3   OH245057   5.877   0.224  13.701 -0.4082  0.2976 -0.2992
 7881TIP3    H145058   5.880   0.151  13.639  0.1005  3.1836 -4.0326
 7881TIP3    H245059   5.787   0.225  13.733 -1.2688 -0.2625 -2.5050
 7882TIP3   OH245060   0.175   2.763  16.359  0.7870 -0.2002  0.4087
 7882TIP3    H145061   0.228   2.792  16.284  2.5122  2.2162  2.3838
 7882TIP3    H245062   0.114   2.835  16.373 -0.8807 -1.5144  0.1993
 7883TIP3   OH245063   6.738   0.762  13.974 -0.0573 -0.5364 -0.3239
 7883TIP3    H145064   6.783   0.835  13.932 -0.0443 -0.0208  0.5580
 7883TIP3    H245065   6.769   0.685  13.928  2.6073 -0.3242  0.9151
 7884TIP3   OH245066   2.126   4.396  11.843 -0.1206 -0.4578  0.0765
 7884TIP3    H145067   2.127   4.436  11.757 -0.3334 -0.9915 -0.1809
 7884TIP3    H245068   2.206   4.427  11.886 -0.0643 -0.1192 -0.2756
 7885TIP3   OH245069   4.683   5.704  14.400 -0.4461 -1.1606 -0.2316
 7885TIP3    H145070   4.681   5.730  14.308  1.6163 -0.6762 -0.1973
 7885TIP3    H245071   4.731   5.621  14.400  2.2445  0.2800  0.6020
 7886TIP3   OH245072   2.207   4.831  12.220  0.5035  0.0139  0.0772
 7886TIP3    H145073   2.171   4.910  12.259 -0.0513  0.8963 -2.0865
 7886TIP3    H245074   2.135   4.793  12.170  0.9734 -1.4756  0.4791
 7887TIP3   OH245075   0.351   6.697  12.718 -0.2212 -0.2013  0.4249
 7887TIP3    H145076   0.390   6.630  12.662  1.8457  1.2244  0.0560
 7887TIP3    H245077   0.327   6.768  12.657 -0.4595  0.2403  1.0230
 7888TIP3   OH245078   1.913   0.911  16.338 -0.8151  0.6309  0.0569
 7888TIP3    H145079   1.872   0.871  16.262 -2.3869 -0.4975  1.4095
 7888TIP3    H245080   2.003   0.880  16.337 -0.1987  2.2999 -2.4240
 7889TIP3   OH245081   6.574   5.194   1.505  0.1857  0.2223  0.3777
 7889TIP3    H145082   6.562   5.280   1.465  1.0565  0.0534 -0.2729
 7889TIP3    H245083   6.594   5.136   1.432  0.5914 -0.3285  0.9141
 7890TIP3   OH245084   1.627   3.396   2.446 -0.1030 -0.1490  0.4164
 7890TIP3    H145085   1.570   3.358   2.380  1.4636 -0.8268 -0.6230
 7890TIP3    H245086   1.568   3.428   2.514 -1.7019 -0.5082 -0.7468
 7891TIP3   OH245087   5.660   1.406   6.711  0.0737  0.1464  0.3307
 7891TIP3    H145088   5.653   1.454   6.793 -2.2565  2.3725 -1.0528
 7891TIP3    H245089   5.597   1.335   6.720  1.4033 -0.9814  1.2318
 7892TIP3   OH245090   6.015   5.269  13.552 -0.0679  0.5951  0.0687
 7892TIP3    H145091   5.976   5.219  13.480 -2.9273 -0.5138  2.1573
 7892TIP3    H245092   5.993   5.218  13.630 -0.5123  3.6016  2.0837
 7893TIP3   OH245093   3.365   5.838   2.687 -0.3656  0.1547 -0.3177
 7893TIP3    H145094   3.289   5.781   2.682 -1.8063  1.6018  2.4674
 7893TIP3    H245095   3.436   5.788   2.647 -2.1164 -2.4542 -0.3714
 7894TIP3   OH245096   4.216   5.943  14.223 -0.7234 -0.1473 -0.1279
 7894TIP3    H145097   4.236   5.936  14.129 -2.3683 -1.2550 -0.4343
 7894TIP3    H245098   4.296   5.979  14.261  1.2254 -2.6183 -1.4898
 7895TIP3   OH245099   6.770   3.286  16.985  0.2991 -0.4291 -0.2983
 7895TIP3    H145100   6.757   3.247  17.072 -0.4308 -1.8075 -0.9886
 7895TIP3    H245101   6.685   3.276  16.942  0.7168  0.0565 -1.2557
 7896TIP3   OH245102   1.353   2.502  16.548 -0.0472  0.3450 -0.2032
 7896TIP3    H145103   1.298   2.570  16.588 -0.8182 -0.9273  1.0077
 7896TIP3    H245104   1.386   2.452  16.623  2.9923  1.1650 -0.8606
 7897TIP3   OH245105   0.905   4.121  13.446  0.0487 -0.1278  0.1094
 7897TIP3    H145106   0.965   4.095  13.376 -1.3393  1.7062 -1.8829
 7897TIP3    H245107   0.955   4.181  13.500  0.4743  0.2171 -0.6546
 7898TIP3   OH245108   2.078   2.846   6.395 -0.7433  0.5337  0.1110
 7898TIP3    H145109   2.059   2.880   6.308 -0.0154  0.2726 -0.1645
 7898TIP3    H245110   2.166   2.809   6.387 -1.2114 -0.7187  0.6003
 7899TIP3   OH245111   6.204   4.098   4.814 -0.1388 -0.0838 -0.0640
 7899TIP3    H145112   6.226   4.085   4.722 -0.9146 -1.2740 -0.1051
 7899TIP3    H245113   6.127   4.042   4.829 -2.2000  2.6419  0.4495
 7900TIP3   OH245114   0.141   0.592  11.374  0.4987  0.5042  0.0543
 7900TIP3    H145115   0.091   0.575  11.454  1.8527  2.1030  1.3117
 7900TIP3    H245116   0.105   0.675  11.340  0.6996  0.4299 -0.3485
 7901TIP3   OH245117   3.831   1.248   2.017  0.5121  1.0292  0.5163
 7901TIP3    H145118   3.886   1.265   2.093  0.4267 -1.8795  1.3357
 7901TIP3    H245119   3.839   1.327   1.963  3.1610  1.8639  1.9789
 7902TIP3   OH245120   5.704   5.829  13.088  0.4990  0.6836  0.0620
 7902TIP3    H145121   5.625   5.882  13.078  0.8803  1.1593 -0.5303
 7902TIP3    H245122   5.674   5.738  13.081  0.1120  0.8848 -0.9696
 7903TIP3   OH245123   2.301   4.181  13.160 -0.3152 -0.8947 -0.7917
 7903TIP3    H145124   2.274   4.107  13.105  1.3504 -1.6466 -0.6386
 7903TIP3    H245125   2.383   4.154  13.200 -1.1771 -0.1498  1.6950
 7904TIP3   OH245126   4.207   5.180  10.955 -0.5049  0.7695  0.4480
 7904TIP3    H145127   4.127   5.228  10.977  0.4844  2.4759  0.5392
 7904TIP3    H245128   4.207   5.177  10.860 -1.1827 -0.1728  0.4666
 7905TIP3   OH245129   3.619   3.168  11.327  0.3952  0.1608 -0.1190
 7905TIP3    H145130   3.646   3.084  11.289  0.1614  0.1070 -0.1679
 7905TIP3    H245131   3.524   3.159  11.340  0.7072 -0.4717  2.1155
 7906TIP3   OH245132   4.523   6.402   5.825  0.5478  0.2157 -0.6814
 7906TIP3    H145133   4.512   6.310   5.849  0.3286  0.1178 -1.1397
 7906TIP3    H245134   4.556   6.400   5.735  0.0879  0.5842 -0.8669
 7907TIP3   OH245135   3.461   2.383   1.106 -0.2178 -0.0305  0.1393
 7907TIP3    H145136   3.410   2.392   1.187 -1.6805 -1.6551 -0.5308
 7907TIP3    H245137   3.494   2.293   1.108  0.8440  0.3303 -0.4608
 7908TIP3   OH245138   4.374   5.056   2.712 -0.0124 -0.4353 -0.1410
 7908TIP3    H145139   4.383   5.063   2.807  2.3976  0.8215 -0.3845
 7908TIP3    H245140   4.320   5.131   2.687 -1.6085 -1.3932  0.2846
 7909TIP3   OH245141   5.876   4.543   4.255  0.1328 -0.5737  0.4672
 7909TIP3    H145142   5.886   4.638   4.262  0.5799 -0.5097 -0.8247
 7909TIP3    H245143   5.783   4.528   4.273  0.3534 -0.0724  2.1990
 7910TIP3   OH245144   2.913   3.514   3.307 -0.0044  0.0955 -0.1680
 7910TIP3    H145145   2.989   3.465   3.339 -0.8253 -1.6718 -0.8075
 7910TIP3    H245146   2.880   3.560   3.385  1.0773  0.0233  0.3476
 7911TIP3   OH245147   4.613   6.406   4.065 -0.4824 -0.1522  0.0691
 7911TIP3    H145148   4.701   6.415   4.028 -0.2721  1.3443  0.8570
 7911TIP3    H245149   4.593   6.493   4.102 -2.1044 -0.5910  0.3140
 7912TIP3   OH245150   3.118   5.884  12.408  0.0952  0.6784  0.0259
 7912TIP3    H145151   3.170   5.962  12.428 -1.2332  1.6487 -0.1565
 7912TIP3    H245152   3.081   5.857  12.492 -2.8612  2.8296 -0.4247
 7913TIP3   OH245153   2.227   3.804  12.142  0.5510 -0.0506 -0.1957
 7913TIP3    H145154   2.178   3.734  12.098  0.0797  1.1484 -1.6641
 7913TIP3    H245155   2.165   3.877  12.148  1.5389  0.8234 -0.2566
 7914TIP3   OH245156   1.072   0.932  15.391 -0.1323 -0.2077  0.5808
 7914TIP3    H145157   0.993   0.976  15.422  0.0378 -0.0733  0.8315
 7914TIP3    H245158   1.131   1.004  15.368 -1.6841 -0.0781 -4.1212
 7915TIP3   OH245159   5.927   1.086   2.352  0.6562 -0.0608 -0.5478
 7915TIP3    H145160   5.837   1.116   2.341  0.9435  0.6111 -1.1355
 7915TIP3    H245161   5.921   1.013   2.413 -0.1438  0.7773  0.3963
 7916TIP3   OH245162   5.582   3.418  15.387  0.7932  0.4001  0.1932
 7916TIP3    H145163   5.505   3.475  15.380 -0.7226 -1.5891 -0.3663
 7916TIP3    H245164   5.570   3.372  15.469  0.2220 -1.4281 -0.8506
 7917TIP3   OH245165   3.527   5.501  15.807  0.1290  0.1990 -0.1753
 7917TIP3    H145166   3.459   5.511  15.742 -0.7557  0.0763  0.7098
 7917TIP3    H245167   3.524   5.409  15.832  1.8664 -0.2509 -1.4338
 7918TIP3   OH245168   3.460   5.539  14.914  0.1812  0.4144  0.5285
 7918TIP3    H145169   3.507   5.543  14.997  3.1999  1.9173 -1.0794
 7918TIP3    H245170   3.403   5.616  14.914  1.1235  1.1273  0.7208
 7919TIP3   OH245171   4.509   3.008  16.661  0.4871 -0.1243  0.3163
 7919TIP3    H145172   4.600   3.019  16.687  0.2632  2.6863  0.2285
 7919TIP3    H245173   4.464   2.975  16.739  1.5410 -1.6394  0.3222
 7920TIP3   OH245174   0.608   5.952   2.364 -0.0297 -0.4417 -0.4265
 7920TIP3    H145175   0.669   5.950   2.437  1.3428 -1.9444 -1.5461
 7920TIP3    H245176   0.558   6.032   2.377  1.1463  0.0601  1.3637
 7921TIP3   OH245177   2.248   3.695  15.726 -0.0000  0.0586  0.1656
 7921TIP3    H145178   2.218   3.647  15.649 -0.3708  1.3331 -0.5066
 7921TIP3    H245179   2.169   3.708  15.779 -0.0579  0.6332 -0.0555
 7922TIP3   OH245180   5.878   4.410  14.477  0.4108 -0.3144 -0.1241
 7922TIP3    H145181   5.884   4.504  14.460  1.1878 -0.2620  0.3666
 7922TIP3    H245182   5.801   4.400  14.534 -0.2641 -0.1075 -0.9790
 7923TIP3   OH245183   5.181   4.123   4.612 -0.2078  0.0872 -0.4206
 7923TIP3    H145184   5.210   4.076   4.691  1.5551 -1.2196 -1.7325
 7923TIP3    H245185   5.230   4.205   4.614 -0.4346  0.2148  0.0105
 7924TIP3   OH245186   1.054   2.780  12.339  0.6157  0.2597  0.0372
 7924TIP3    H145187   1.076   2.735  12.421 -0.4763  0.2770  0.3526
 7924TIP3    H245188   0.966   2.749  12.317 -0.0578  2.0095  0.1218
 7925TIP3   OH245189   1.833   0.344  14.827  0.3440 -0.0863 -0.2206
 7925TIP3    H145190   1.809   0.288  14.753 -0.4144 -1.6691  1.1322
 7925TIP3    H245191   1.754   0.395  14.845  0.2439 -0.3120 -0.0065
 7926TIP3   OH245192   5.295   4.255  13.657 -0.0046  0.4276 -0.1376
 7926TIP3    H145193   5.325   4.339  13.694 -0.2838  0.7524 -0.6360
 7926TIP3    H245194   5.350   4.189  13.700  0.4184  0.8893  0.0477
 7927TIP3   OH245195   0.245   2.224  11.593  0.0470 -0.4423 -0.1025
 7927TIP3    H145196   0.176   2.282  11.626 -0.5809 -1.0776 -0.2792
 7927TIP3    H245197   0.321   2.245  11.647 -0.3442  0.1018  0.2520
 7928TIP3   OH245198   3.774   0.610   0.248 -0.0002 -0.3119 -0.1782
 7928TIP3    H145199   3.845   0.597   0.310 -1.0395 -2.9352  0.5890
 7928TIP3    H245200   3.735   0.694   0.273  0.4382 -0.6783  1.8825
 7929TIP3   OH245201   1.271   4.419  14.279  0.3251 -0.1136 -0.1347
 7929TIP3    H145202   1.237   4.422  14.368 -1.5511 -0.4227 -0.7913
 7929TIP3    H245203   1.267   4.326  14.255  2.4023 -0.2880 -0.0094
 7930TIP3   OH245204   2.011   0.844  11.464  0.0688 -0.0244  0.6383
 7930TIP3    H145205   2.043   0.783  11.530  0.8936  0.9395  1.1676
 7930TIP3    H245206   2.089   0.894  11.438 -0.5138  0.5675 -0.0210
 7931TIP3   OH245207   0.587   2.509  16.819  0.0884 -0.3438 -0.8030
 7931TIP3    H145208   0.541   2.510  16.903 -1.0081  2.1630 -1.3448
 7931TIP3    H245209   0.582   2.600  16.788  2.3711 -0.7295 -2.5680
 7932TIP3   OH245210   6.320   0.039   4.134 -0.1989 -0.0998 -0.0421
 7932TIP3    H145211   6.379   0.032   4.208 -0.2051 -1.6263 -0.1484
 7932TIP3    H245212   6.233   0.018   4.170 -0.4445  0.6061 -0.1975
 7933TIP3   OH245213   5.413   0.605  14.670 -0.2851  0.0206  0.3095
 7933TIP3    H145214   5.386   0.593  14.761  0.1586 -0.7472  0.3487
 7933TIP3    H245215   5.357   0.544  14.621  0.3011 -0.4590  0.2193
 7934TIP3   OH245216   6.104   2.320   0.538  0.5627  0.0160  0.5808
 7934TIP3    H145217   6.123   2.226   0.547  1.1056  0.1070  0.4679
 7934TIP3    H245218   6.078   2.348   0.625  1.1446 -0.0916  0.7977
 7935TIP3   OH245219   6.246   4.065   4.536 -0.3097  0.6851 -0.3108
 7935TIP3    H145220   6.298   3.985   4.534 -2.7855 -1.1515  1.4303
 7935TIP3    H245221   6.215   4.077   4.446 -0.1124 -0.4882 -0.5429
 7936TIP3   OH245222   2.491   3.367  13.118  0.0849 -0.2904 -0.6357
 7936TIP3    H145223   2.401   3.357  13.149  0.2750  0.0762  0.0338
 7936TIP3    H245224   2.503   3.295  13.056 -0.4457 -0.7540 -0.2050
 7937TIP3   OH245225   0.104   3.836  16.678  0.2889 -0.1409  0.1894
 7937TIP3    H145226   0.113   3.896  16.752  1.0211 -0.0706  0.0570
 7937TIP3    H245227   0.136   3.886  16.603  1.2158 -0.7925  0.1339
 7938TIP3   OH245228   5.039   4.216  15.170  0.7492 -0.2979 -0.4938
 7938TIP3    H145229   5.042   4.277  15.244 -0.1994 -1.8884  0.9208
 7938TIP3    H245230   4.968   4.248  15.115  1.7977  1.2033 -1.0560
 7939TIP3   OH245231   1.905   0.455  15.947 -0.5939 -0.3258 -0.1357
 7939TIP3    H145232   1.870   0.531  15.902 -2.7801  0.2483  2.3341
 7939TIP3    H245233   1.976   0.489  16.001 -0.3472 -0.4024 -0.4043
 7940TIP3   OH245234   5.680   2.611   3.176 -0.0899 -0.6783 -0.5782
 7940TIP3    H145235   5.709   2.672   3.245  1.9622 -2.2146  0.0231
 7940TIP3    H245236   5.614   2.557   3.219  1.1311 -1.5865  0.2238
 7941TIP3   OH245237   0.995   6.158   1.838  0.5242 -0.2670  0.2705
 7941TIP3    H145238   0.905   6.168   1.867  1.1557  0.7406  2.0030
 7941TIP3    H245239   0.989   6.155   1.742 -1.2522  0.8417  0.3054
 7942TIP3   OH245240   0.612   2.847   1.142  0.1328 -0.2874 -0.5508
 7942TIP3    H145241   0.627   2.913   1.210  0.0089  1.2457 -1.9353
 7942TIP3    H245242   0.692   2.796   1.141  0.7910  0.7021 -0.3324
 7943TIP3   OH245243   4.674   1.551  13.891  0.2781  0.0961 -0.1063
 7943TIP3    H145244   4.694   1.577  13.980 -3.0914  0.7812  0.5865
 7943TIP3    H245245   4.639   1.630  13.849 -0.2056 -0.7186 -1.3286
 7944TIP3   OH245246   0.437   3.848  11.595 -0.3828  0.1339  0.6905
 7944TIP3    H145247   0.427   3.938  11.627 -0.7201  1.0204 -1.7054
 7944TIP3    H245248   0.347   3.817  11.583 -0.3377 -1.2506  3.1101
 7945TIP3   OH245249   1.643   4.484  14.575  0.3540 -0.1921 -0.1775
 7945TIP3    H145250   1.660   4.411  14.515 -1.3704 -1.5705  0.9129
 7945TIP3    H245251   1.611   4.554  14.518  0.7353 -0.7387 -1.0957
 7946TIP3   OH245252   5.711   1.174   0.132 -0.0276 -0.1889 -0.7616
 7946TIP3    H145253   5.776   1.144   0.068 -1.0400  1.1863 -2.5355
 7946TIP3    H245254   5.687   1.262   0.102  0.0950  0.9028  2.0679
 7947TIP3   OH245255   0.168   2.286  15.464  0.5983  0.9640  0.1578
 7947TIP3    H145256   0.126   2.283  15.551 -0.4469  0.7247 -0.3351
 7947TIP3    H245257   0.257   2.255  15.480  0.0583 -0.2843  0.9568
 7948TIP3   OH245258   1.083   0.685   2.150  0.6121 -0.0198 -0.4406
 7948TIP3    H145259   1.138   0.691   2.072 -0.7531 -0.3506 -1.4793
 7948TIP3    H245260   1.088   0.772   2.190  0.4361  0.5214 -1.5619
 7949TIP3   OH245261   1.460   4.690   0.661 -0.5061 -0.5868 -0.0351
 7949TIP3    H145262   1.394   4.693   0.731 -1.1837  0.8571 -0.6943
 7949TIP3    H245263   1.520   4.761   0.683 -0.5200 -0.3637 -0.7176
 7950TIP3   OH245264   3.535   5.594  15.165 -0.6571  0.6513 -0.2792
 7950TIP3    H145265   3.462   5.572  15.222 -0.4796  0.3525 -0.1611
 7950TIP3    H245266   3.535   5.689  15.161 -1.6939  0.6309 -1.1329
 7951TIP3   OH245267   0.727   6.637   2.844  0.1781 -0.0394 -0.4976
 7951TIP3    H145268   0.778   6.640   2.762  0.6210  1.2519 -0.1923
 7951TIP3    H245269   0.792   6.645   2.913 -0.0162 -2.6954  0.0996
 7952TIP3   OH245270   6.611   0.424  10.610 -0.4329  0.1192  0.6069
 7952TIP3    H145271   6.581   0.409  10.700 -1.2733  0.0786  0.3189
 7952TIP3    H245272   6.543   0.478  10.570  0.6356  1.4133  0.4328
 7953TIP3   OH245273   3.752   5.560   2.619  0.0122  0.1715 -0.0924
 7953TIP3    H145274   3.657   5.568   2.609 -0.3971 -2.6473  0.7076
 7953TIP3    H245275   3.784   5.650   2.622 -2.3051  1.2389 -2.9133
 7954TIP3   OH245276   4.071   0.457  12.779  0.2276  0.2826 -0.2199
 7954TIP3    H145277   4.038   0.486  12.864  0.3510  0.4186 -0.2165
 7954TIP3    H245278   4.060   0.362  12.780 -1.2527  0.4270 -0.6900
 7955TIP3   OH245279   5.583   0.713  14.174 -0.3247  0.6920  0.0360
 7955TIP3    H145280   5.587   0.693  14.267 -0.1498  0.4906 -0.0155
 7955TIP3    H245281   5.606   0.805  14.168  2.4156  0.0861 -0.0728
 7956TIP3   OH245282   0.894   3.362   0.052 -0.2499 -0.5149 -0.1766
 7956TIP3    H145283   0.970   3.414   0.080 -1.5637  1.7062 -0.5475
 7956TIP3    H245284   0.852   3.336   0.134 -1.8875  2.6521  0.1434
 7957TIP3   OH245285   5.416   0.651   3.670 -0.2370 -0.2008  0.2767
 7957TIP3    H145286   5.362   0.577   3.644  0.5378 -0.6124 -0.2081
 7957TIP3    H245287   5.439   0.694   3.588  0.1527 -0.0245  0.4736
 7958TIP3   OH245288   5.526   2.757   0.595  0.4711  0.9205  0.5376
 7958TIP3    H145289   5.535   2.665   0.619  2.3319  0.6916 -0.8409
 7958TIP3    H245290   5.463   2.757   0.522  0.0591  0.8199  0.8886
 7959TIP3   OH245291   2.307   2.301  11.106  0.5962 -0.1217  0.3203
 7959TIP3    H145292   2.330   2.287  11.014  1.2098 -1.0630  0.6095
 7959TIP3    H245293   2.213   2.283  11.110  0.8153 -1.4243  0.1196
 7960TIP3   OH245294   5.149   0.075   1.679 -0.5633 -0.0098 -0.1743
 7960TIP3    H145295   5.119   0.001   1.626  1.2630  0.1798 -1.5976
 7960TIP3    H245296   5.143   0.045   1.769 -1.0460 -1.4289 -0.6560
 7961TIP3   OH245297   5.922   4.500   2.374 -0.4102 -0.6714 -0.8071
 7961TIP3    H145298   5.849   4.558   2.397 -0.6844 -1.7869  1.3918
 7961TIP3    H245299   5.978   4.553   2.317 -1.0896  1.4816  0.4097
 7962TIP3   OH245300   5.154   6.715   5.835  0.0193  0.0198 -0.0621
 7962TIP3    H145301   5.159   6.801   5.877 -0.3976  0.1930 -0.3640
 7962TIP3    H245302   5.231   6.712   5.778 -0.4077  0.5321 -0.6775
 7963TIP3   OH245303   5.232   3.513   5.300 -0.4331 -0.3361  0.5006
 7963TIP3    H145304   5.212   3.546   5.387  1.8748  0.0329  0.9521
 7963TIP3    H245305   5.280   3.431   5.315 -1.6252 -1.2467 -0.4903
 7964TIP3   OH245306   3.851   2.319   3.421  0.2932  0.7796  0.3312
 7964TIP3    H145307   3.903   2.253   3.376 -0.0976  1.1764 -0.7521
 7964TIP3    H245308   3.818   2.375   3.351  0.5403  2.0677  1.2183
 7965TIP3   OH245309   6.330   5.189  12.328  0.5018 -0.4941 -0.0549
 7965TIP3    H145310   6.245   5.149  12.348 -0.2680  1.4236  0.8056
 7965TIP3    H245311   6.326   5.211  12.235  0.0120 -0.3553 -0.0025
 7966TIP3   OH245312   2.802   0.966   2.877 -0.1577 -0.1371  0.5549
 7966TIP3    H145313   2.783   0.889   2.930 -0.8080 -1.2838 -1.2574
 7966TIP3    H245314   2.828   0.931   2.792 -1.0074  1.6431 -0.4940
 7967TIP3   OH245315   4.949   6.060  14.675 -0.1785  0.6302 -0.0797
 7967TIP3    H145316   4.980   6.046  14.586  1.0599 -1.7762  0.6645
 7967TIP3    H245317   5.009   6.126  14.711  2.1197 -1.5006  0.2608
 7968TIP3   OH245318   3.061   2.588  15.579 -0.2111 -0.1205  0.3324
 7968TIP3    H145319   3.131   2.648  15.604  0.3151 -0.7639  0.4303
 7968TIP3    H245320   2.997   2.643  15.535  0.0016  0.6092  0.9082
 7969TIP3   OH245321   4.507   0.290   5.765 -0.6736 -0.0374 -0.0207
 7969TIP3    H145322   4.476   0.288   5.856 -0.7729 -0.5220 -0.0616
 7969TIP3    H245323   4.495   0.200   5.734 -2.5234  0.5388 -1.1444
 7970TIP3   OH245324   6.463   1.140  12.666 -0.0335  0.5781  0.0927
 7970TIP3    H145325   6.488   1.085  12.741 -0.9021  0.0909  0.0372
 7970TIP3    H245326   6.418   1.214  12.706 -0.3068  0.4271  0.0620
 7971TIP3   OH245327   4.253   3.864   3.221  0.2715  0.1410 -0.3692
 7971TIP3    H145328   4.207   3.865   3.137 -1.5766  0.9466  0.5812
 7971TIP3    H245329   4.184   3.849   3.285  0.9411  3.4766  1.3454
 7972TIP3   OH245330   4.733   4.732   1.125  0.0998 -0.0386  0.0433
 7972TIP3    H145331   4.693   4.663   1.178 -1.9247 -0.2322 -1.6087
 7972TIP3    H245332   4.779   4.685   1.056  1.3546  0.2398  0.6728
 7973TIP3   OH245333   4.495   6.332   2.233 -0.1032  0.1677 -0.2120
 7973TIP3    H145334   4.530   6.245   2.251  0.3745 -0.5315 -3.7473
 7973TIP3    H245335   4.561   6.392   2.268  0.2449 -0.8914  1.0368
 7974TIP3   OH245336   0.945   4.096   3.973 -0.4040  0.0912 -0.5426
 7974TIP3    H145337   0.972   4.093   4.065 -1.2085 -0.3187 -0.3053
 7974TIP3    H245338   0.854   4.125   3.976 -0.7653 -0.9341 -1.1319
 7975TIP3   OH245339   1.609   6.062   5.505  0.3632 -1.1676  0.1862
 7975TIP3    H145340   1.551   5.987   5.515 -0.8140 -0.3974 -0.7045
 7975TIP3    H245341   1.569   6.115   5.436  2.2904 -0.7778 -0.7025
 7976TIP3   OH245342   4.826   0.441   5.975  0.5016  0.8743 -0.2069
 7976TIP3    H145343   4.785   0.483   6.050  2.0387  1.8536  0.1244
 7976TIP3    H245344   4.801   0.495   5.900 -2.1615 -0.8440 -0.7307
 7977TIP3   OH245345   2.211   0.144   3.940  0.5315  0.0621  0.0064
 7977TIP3    H145346   2.288   0.087   3.941 -0.1230 -0.8426  0.4724
 7977TIP3    H245347   2.189   0.156   3.848  1.1081  0.1727 -0.1189
 7978TIP3   OH245348   3.718   3.224   4.730  0.1174 -0.2734  0.4463
 7978TIP3    H145349   3.696   3.230   4.823  1.0045 -0.2320  0.6629
 7978TIP3    H245350   3.682   3.139   4.702  0.7952 -0.7813  1.0919
 7979TIP3   OH245351   4.535   6.656  15.265  0.0088 -0.2402  0.4846
 7979TIP3    H145352   4.525   6.643  15.359  0.1071 -0.5725  0.4503
 7979TIP3    H245353   4.554   6.568  15.231  0.8550  0.0218  0.2663
 7980TIP3   OH245354   5.654   4.586  14.649  0.3402  0.0107 -0.1199
 7980TIP3    H145355   5.641   4.619  14.560 -3.2243 -1.3253 -0.2463
 7980TIP3    H245356   5.670   4.492  14.637  1.5726  0.1051  0.6109
 7981TIP3   OH245357   1.413   0.412   2.649  0.1259  0.0615  0.1181
 7981TIP3    H145358   1.320   0.387   2.650  0.6409 -2.1821 -1.3885
 7981TIP3    H245359   1.413   0.502   2.681 -2.6446  0.3266 -0.3251
 7982TIP3   OH245360   2.241   2.325  14.549  0.3250  0.3777 -0.4817
 7982TIP3    H145361   2.191   2.396  14.589  0.3634 -0.9559  2.1171
 7982TIP3    H245362   2.309   2.370  14.499 -0.0220  2.1984  0.5912
 7983TIP3   OH245363   5.277   5.208  16.573 -0.1797  0.4014  0.3246
 7983TIP3    H145364   5.273   5.170  16.485  0.2985  0.4223  0.2955
 7983TIP3    H245365   5.295   5.300  16.558 -2.2670  0.8736  0.3453
 7984TIP3   OH245366   3.801   5.384  14.925  0.1822 -0.1440 -0.1476
 7984TIP3    H145367   3.876   5.418  14.876  0.8304  0.7515  1.3823
 7984TIP3    H245368   3.733   5.450  14.913  0.8100  0.8219  1.2434
 7985TIP3   OH245369   0.830   0.335   6.461 -0.2196  0.2960 -0.2190
 7985TIP3    H145370   0.792   0.270   6.519  0.0905 -0.3116 -0.6843
 7985TIP3    H245371   0.879   0.284   6.396  0.6590  1.0202 -0.1490
 7986TIP3   OH245372   1.902   0.099   2.798 -0.0163  0.4652 -0.4586
 7986TIP3    H145373   1.979   0.046   2.820  0.2665  1.8363  2.3587
 7986TIP3    H245374   1.916   0.124   2.707  0.9694 -2.3323 -1.1786
 7987TIP3   OH245375   6.676   4.073   5.958  0.3746  0.0797 -0.3162
 7987TIP3    H145376   6.754   4.129   5.956  2.2935 -2.3255  1.0143
 7987TIP3    H245377   6.669   4.045   6.049 -1.0824 -1.0488 -0.7298
 7988TIP3   OH245378   6.652   6.772   0.607 -0.0223  0.0491  0.3569
 7988TIP3    H145379   6.566   6.814   0.602 -0.5775 -1.0297  0.4895
 7988TIP3    H245380   6.693   6.791   0.522 -0.4759  0.3860  0.2073
 7989TIP3   OH245381   3.236   3.781   2.892 -0.0565 -0.1401  0.6524
 7989TIP3    H145382   3.268   3.818   2.974  0.6229  2.8424 -0.8253
 7989TIP3    H245383   3.315   3.749   2.848  0.2244  2.0068 -0.5246
 7990TIP3   OH245384   1.675   0.352   1.398  0.2105  0.2431  0.0771
 7990TIP3    H145385   1.736   0.290   1.439  0.6728 -0.6902 -1.9276
 7990TIP3    H245386   1.636   0.399   1.472  0.4304 -1.8650  1.6287
 7991TIP3   OH245387   1.890   0.086   4.652 -0.3451  0.0676  0.2403
 7991TIP3    H145388   1.828   0.136   4.599  1.4185 -0.6148 -2.7483
 7991TIP3    H245389   1.915   0.013   4.596  1.2822 -1.0749  2.3093
 7992TIP3   OH245390   2.797   4.600  10.634  0.0827 -0.1451 -0.2025
 7992TIP3    H145391   2.877   4.551  10.653  0.3624  0.7611  1.0286
 7992TIP3    H245392   2.734   4.568  10.698 -0.3108 -0.2437 -0.6285
 7993TIP3   OH245393   5.749   5.008  16.549  0.4289 -0.5318  0.0080
 7993TIP3    H145394   5.770   5.011  16.643  1.1571 -1.8961 -0.0875
 7993TIP3    H245395   5.773   5.095  16.517  0.8791 -0.2902  0.9491
 7994TIP3   OH245396   4.382   1.609  13.744  0.3222  0.7368 -0.3558
 7994TIP3    H145397   4.332   1.530  13.766 -2.4769  2.3702 -0.3897
 7994TIP3    H245398   4.408   1.645  13.829 -1.2221  1.4332 -0.1469
 7995TIP3   OH245399   2.143   1.000   3.633  0.2278 -0.1978  0.0654
 7995TIP3    H145400   2.115   1.091   3.639 -1.6916 -0.6328 -1.4312
 7995TIP3    H245401   2.065   0.949   3.653  0.4655 -1.4980 -1.9799
 7996TIP3   OH245402   0.821   6.801   3.524  0.2523  0.5779 -0.1198
 7996TIP3    H145403   0.728   6.783   3.521  0.6242 -1.8604  0.5624
 7996TIP3    H245404   0.840   6.814   3.617  0.7436 -0.0056 -0.1307
 7997TIP3   OH245405   5.165   1.482   4.767 -0.0699 -0.5009  0.2342
 7997TIP3    H145406   5.158   1.432   4.686 -0.3183 -1.3430  0.7664
 7997TIP3    H245407   5.175   1.416   4.836 -0.0372  0.1926  0.9125
 7998TIP3   OH245408   1.161   6.529   5.057 -0.1030  0.0771  0.6399
 7998TIP3    H145409   1.075   6.506   5.093 -0.7862  1.1572 -0.2228
 7998TIP3    H245410   1.205   6.575   5.129  0.0011 -0.9790  1.2770
 7999TIP3   OH245411   5.192   5.428   5.132  0.1842  0.6259  0.2176
 7999TIP3    H145412   5.169   5.497   5.195  0.2992  0.8094  0.0588
 7999TIP3    H245413   5.287   5.431   5.126  0.2589 -0.1653  0.9047
 8000TIP3   OH245414   0.265   1.255   5.001 -0.2598  0.2452 -0.1641
 8000TIP3    H145415   0.245   1.187   4.937  0.7318 -1.1109  0.9271
 8000TIP3    H245416   0.357   1.276   4.986  0.4511 -1.2302  1.7957
 8001TIP3   OH245417   4.827   3.880  12.331 -0.0430 -0.1745  0.2654
 8001TIP3    H145418   4.872   3.935  12.395  3.4485 -2.2330 -0.1806
 8001TIP3    H245419   4.805   3.939  12.260  0.7149  1.2117  1.1373
 8002TIP3   OH245420   0.720   1.888   0.888  0.1925  0.1320 -0.0467
 8002TIP3    H145421   0.713   1.983   0.886  0.4533  0.1466 -0.3882
 8002TIP3    H245422   0.636   1.858   0.922  0.4049  0.5150  0.8308
 8003TIP3   OH245423   0.297   3.792  11.225  0.1830 -0.0254 -0.8482
 8003TIP3    H145424   0.263   3.829  11.143  0.5581  0.5724 -0.7451
 8003TIP3    H245425   0.380   3.750  11.200 -0.2165 -0.7631 -0.9552
 8004TIP3   OH245426   3.298   5.812  12.999 -0.0744  0.1658  0.2359
 8004TIP3    H145427   3.262   5.725  12.978  1.8300 -0.9138  1.2180
 8004TIP3    H245428   3.289   5.862  12.917 -0.1937 -1.2989 -0.6837
 8005TIP3   OH245429   5.899   2.264  14.768  0.3467  0.1642  0.1228
 8005TIP3    H145430   5.858   2.346  14.740  0.3431 -0.0031 -0.3628
 8005TIP3    H245431   5.829   2.199  14.764  0.6185 -0.0926 -0.5737
 8006TIP3   OH245432   3.212   4.645   1.620  0.2214  0.2118  0.2042
 8006TIP3    H145433   3.254   4.579   1.564 -0.9770  1.1752 -1.9885
 8006TIP3    H245434   3.244   4.729   1.585 -1.3587  0.8724  0.2705
 8007TIP3   OH245435   5.457   5.457  16.308  0.2601  0.1377  0.3589
 8007TIP3    H145436   5.411   5.376  16.287  2.7791 -1.4117  0.4443
 8007TIP3    H245437   5.445   5.469  16.402 -1.8912  1.1230  0.0321
 8008TIP3   OH245438   4.865   6.390  14.327 -0.0947 -0.1415 -0.0957
 8008TIP3    H145439   4.910   6.342  14.257 -0.9520 -0.4921 -0.4330
 8008TIP3    H245440   4.781   6.415  14.287  0.5000  2.0680 -0.0989
 8009TIP3   OH245441   5.854   5.545   3.484  0.4201 -0.0662  0.2634
 8009TIP3    H145442   5.918   5.493   3.533  0.2095  0.1161  0.7420
 8009TIP3    H245443   5.905   5.616   3.446  0.4373  0.3571  1.0457
 8010TIP3   OH245444   5.969   4.571   5.215 -0.1225 -0.7196  0.2438
 8010TIP3    H145445   5.893   4.536   5.167 -0.8850  1.0004  0.1198
 8010TIP3    H245446   5.951   4.549   5.306 -0.0917 -1.4757  0.0804
 8011TIP3   OH245447   4.097   4.528  12.887 -0.6294 -0.1579  0.3449
 8011TIP3    H145448   4.059   4.530  12.975  1.1241 -0.6257  1.1717
 8011TIP3    H245449   4.067   4.608  12.845 -1.0341  0.3612  1.5840
 8012TIP3   OH245450   3.975   1.963  12.286 -0.0192  0.5915  0.3273
 8012TIP3    H145451   3.947   1.911  12.361  1.2881 -2.1142 -0.9154
 8012TIP3    H245452   3.894   1.990  12.243 -0.7473  0.6020  1.6485
 8013TIP3   OH245453   4.302   4.901  14.823  0.1521 -0.0913 -0.2057
 8013TIP3    H145454   4.354   4.853  14.889  0.2426 -1.2748 -1.0999
 8013TIP3    H245455   4.338   4.872  14.739 -1.0727  0.0971 -0.8117
 8014TIP3   OH245456   2.832   0.596  12.704  0.2747  0.2153  0.1220
 8014TIP3    H145457   2.907   0.583  12.646 -0.4278  1.9213 -1.2590
 8014TIP3    H245458   2.760   0.618  12.646 -1.2699 -1.1374  1.4480
 8015TIP3   OH245459   4.234   2.521  11.515 -0.2737  0.2242  0.6363
 8015TIP3    H145460   4.308   2.532  11.575  1.6105 -1.0712 -1.2887
 8015TIP3    H245461   4.271   2.475  11.440 -2.5576  1.4853 -1.4251
 8016TIP3   OH245462   1.308   0.463   0.056  0.0421  0.2576  0.6649
 8016TIP3    H145463   1.312   0.555   0.082  1.3372  0.7474 -1.0725
 8016TIP3    H245464   1.397   0.442   0.027 -0.2938 -1.4801  0.7548
 8017TIP3   OH245465   3.462   4.139   3.298  0.1992  0.1059  0.7086
 8017TIP3    H145466   3.472   4.232   3.318 -1.6295  0.8020 -1.1758
 8017TIP3    H245467   3.367   4.127   3.293  0.4308 -1.7028  0.2333
 8018TIP3   OH245468   6.357   3.819   1.522  0.0419  0.0687  0.1386
 8018TIP3    H145469   6.420   3.854   1.584 -0.3740  3.1170 -0.9415
 8018TIP3    H245470   6.389   3.849   1.436 -1.6890 -0.2141 -0.6533
 8019TIP3   OH245471   2.395   2.645   5.088  0.0740 -0.5437  0.3471
 8019TIP3    H145472   2.424   2.637   5.178  1.6139  2.0718  0.1984
 8019TIP3    H245473   2.303   2.670   5.095  0.2979  0.1016  1.2540
 8020TIP3   OH245474   1.271   2.300   0.986 -0.2955 -0.5663  0.0649
 8020TIP3    H145475   1.254   2.364   0.918 -0.5851 -2.2783 -1.5701
 8020TIP3    H245476   1.220   2.330   1.061  2.1444  2.8532  0.5918
 8021TIP3   OH245477   5.166   6.118   0.972 -0.0084 -0.3759  0.2265
 8021TIP3    H145478   5.140   6.046   1.029 -0.5836 -0.0644  0.3699
 8021TIP3    H245479   5.104   6.188   0.992  0.3643  0.0621 -0.1138
 8022TIP3   OH245480   2.844   6.146  13.094  0.3191 -0.4401 -0.0449
 8022TIP3    H145481   2.811   6.182  13.175  1.0735  0.6840 -0.2210
 8022TIP3    H245482   2.897   6.070  13.121  1.6526  0.6880  0.6591
 8023TIP3   OH245483   2.806   3.855  14.706 -0.0387 -0.9319  0.0981
 8023TIP3    H145484   2.781   3.898  14.624 -0.6827 -0.9700  0.2638
 8023TIP3    H245485   2.901   3.850  14.703 -0.0358 -0.6191 -0.4898
 8024TIP3   OH245486   3.954   4.528   1.502  0.2435  0.3507  0.3474
 8024TIP3    H145487   4.017   4.558   1.437  0.9046  0.6379  1.1019
 8024TIP3    H245488   3.995   4.452   1.542 -0.2416  0.0625  0.3056
 8025TIP3   OH245489   5.351   1.143   0.394 -0.3836  0.3861  0.1336
 8025TIP3    H145490   5.277   1.084   0.407  0.1469  0.1749  2.8444
 8025TIP3    H245491   5.388   1.155   0.482  2.4441  0.9718 -1.0234
 8026TIP3   OH245492   5.545   3.065   5.897  0.4673  0.7276 -0.0038
 8026TIP3    H145493   5.489   3.139   5.875 -1.3672 -0.5937  0.0165
 8026TIP3    H245494   5.488   2.989   5.891  1.4210 -0.3929  3.1189
 8027TIP3   OH245495   1.480   6.372  11.579 -0.0518 -0.0632 -0.0489
 8027TIP3    H145496   1.468   6.422  11.659  2.4879 -0.1683  0.4909
 8027TIP3    H245497   1.445   6.286  11.598 -1.9888  0.6770 -0.0567
 8028TIP3   OH245498   6.326   1.492  11.567  0.1116  0.0736 -0.1102
 8028TIP3    H145499   6.360   1.568  11.520 -0.5748  0.9534  0.7363
 8028TIP3    H245500   6.279   1.441  11.501  0.0431  0.7301 -0.5791
 8029TIP3   OH245501   5.992   4.543  15.507 -0.0473  0.0978  0.0908
 8029TIP3    H145502   6.046   4.598  15.450  0.2473 -0.5332 -0.2601
 8029TIP3    H245503   5.965   4.470  15.450 -0.7023  0.0526  0.4544
 8030TIP3   OH245504   4.231   5.648  16.607  0.1557 -0.2755  0.1486
 8030TIP3    H145505   4.293   5.699  16.659 -0.8211  1.4198 -0.2925
 8030TIP3    H245506   4.254   5.667  16.516 -1.5664  1.1496 -0.0334
 8031TIP3   OH245507   1.736   5.417  15.178  0.4976  0.2966 -0.5947
 8031TIP3    H145508   1.789   5.473  15.234 -0.4464 -1.4161  2.2105
 8031TIP3    H245509   1.768   5.328  15.197  0.2363 -0.3789 -2.9672
 8032TIP3   OH245510   0.731   6.047  14.566  0.0342  0.2300 -0.0780
 8032TIP3    H145511   0.654   5.995  14.589  1.0616 -0.9959  0.6741
 8032TIP3    H245512   0.711   6.134  14.601 -1.4151  0.2053 -0.7565
 8033TIP3   OH245513   0.933   4.396   0.924  0.0242 -0.7359  0.4279
 8033TIP3    H145514   0.975   4.319   0.963  0.6563 -0.1072  1.0067
 8033TIP3    H245515   0.865   4.421   0.987  0.1829 -0.4975  0.5070
 8034TIP3   OH245516   5.272   6.584  11.640  0.3075  0.8242  0.2617
 8034TIP3    H145517   5.355   6.537  11.635  0.3638  0.9386  0.1071
 8034TIP3    H245518   5.239   6.583  11.550 -0.0871  0.3655  0.4066
 8035TIP3   OH245519   2.373   0.551   3.120  0.4567  0.3811 -0.9443
 8035TIP3    H145520   2.282   0.555   3.149  0.4988  0.1566 -0.7715
 8035TIP3    H245521   2.385   0.459   3.093  0.6712  0.3772 -0.8357
 8036TIP3   OH245522   0.742   1.225   4.734 -0.0053 -0.0465 -0.3927
 8036TIP3    H145523   0.731   1.258   4.645 -0.8772  0.3329 -0.1590
 8036TIP3    H245524   0.753   1.131   4.724  0.3078  0.0441 -0.9256
 8037TIP3   OH245525   2.729   3.877  13.988 -0.0075 -0.3530  0.2160
 8037TIP3    H145526   2.716   3.782  13.992  2.0047 -0.7069 -0.6155
 8037TIP3    H245527   2.811   3.888  13.940 -0.6412  1.8585 -0.4612
 8038TIP3   OH245528   6.370   4.459  12.905 -0.2404 -0.1660  0.1795
 8038TIP3    H145529   6.336   4.387  12.959  0.5293 -1.7062 -1.2926
 8038TIP3    H245530   6.459   4.432  12.883  0.5753  1.9315  0.7138
 8039TIP3   OH245531   1.737   2.389  16.909 -0.1785 -0.4019 -0.0971
 8039TIP3    H145532   1.702   2.473  16.878 -0.6223 -1.0739 -1.4512
 8039TIP3    H245533   1.792   2.413  16.984 -0.6464  1.0491 -0.1865
 8040TIP3   OH245534   1.811   4.593  10.683  0.7184  0.2120 -0.2104
 8040TIP3    H145535   1.776   4.667  10.634 -0.0183  0.4800  0.6856
 8040TIP3    H245536   1.753   4.520  10.662  1.2951 -0.0618 -0.8964
 8041TIP3   OH245537   5.815   0.401  11.566  0.8492 -0.2903 -0.1765
 8041TIP3    H145538   5.871   0.322  11.564 -0.1157 -0.9920  0.0421
 8041TIP3    H245539   5.733   0.373  11.525  0.9041  0.9456 -1.2036
 8042TIP3   OH245540   2.341   3.971  11.746 -0.0200 -0.0804  0.0866
 8042TIP3    H145541   2.338   3.954  11.652 -1.8484  0.4462  0.0103
 8042TIP3    H245542   2.400   4.045  11.756  0.6827 -0.5367 -0.5576
 8043TIP3   OH245543   6.322   6.511  12.214 -0.3814  0.3779  0.2978
 8043TIP3    H145544   6.237   6.554  12.200 -0.9261 -1.0112 -0.8517
 8043TIP3    H245545   6.311   6.464  12.296 -0.1100  1.5786  1.0556
 8044TIP3   OH245546   0.435   0.811   5.335  0.6418  0.1368  0.3289
 8044TIP3    H145547   0.414   0.818   5.242 -0.5137  0.7536  0.6087
 8044TIP3    H245548   0.398   0.727   5.362  1.0115 -0.0599  0.2215
 8045TIP3   OH245549   3.072   6.797   0.875 -0.0389  0.2113  0.3987
 8045TIP3    H145550   3.067   6.888   0.846  1.5891 -0.1545 -1.2261
 8045TIP3    H245551   3.141   6.758   0.821 -0.6800 -1.9977  1.0509
 8046TIP3   OH245552   5.250   3.706  14.162 -0.0370 -0.2762  0.5346
 8046TIP3    H145553   5.169   3.728  14.208 -0.7095 -0.4372 -0.5355
 8046TIP3    H245554   5.270   3.616  14.189 -0.5359 -0.4410  0.3723
 8047TIP3   OH245555   1.803   5.793  13.038  0.2346 -0.1548 -0.6559
 8047TIP3    H145556   1.807   5.825  13.128  2.0124  1.5729 -1.2701
 8047TIP3    H245557   1.714   5.813  13.008 -0.1053  0.0128  0.4485
 8048TIP3   OH245558   3.902   6.321  17.050  0.0643  0.2668  0.1968
 8048TIP3    H145559   3.889   6.329  17.144 -0.1097 -0.0650  0.2014
 8048TIP3    H245560   3.976   6.261  17.040  0.8401  1.2137  0.1484
 8049TIP3   OH245561   6.115   3.230  11.653  0.2624  0.2096  0.0993
 8049TIP3    H145562   6.208   3.238  11.676  0.6694 -1.8396 -0.5575
 8049TIP3    H245563   6.098   3.304  11.595  1.2034  1.1858  1.0194
 8050TIP3   OH245564   0.341   2.890  12.900  0.1905  0.0072 -0.4231
 8050TIP3    H145565   0.414   2.951  12.896  1.0038 -0.6672  2.0876
 8050TIP3    H245566   0.382   2.805  12.918 -1.1356 -0.5830 -0.0811
 8051TIP3   OH245567   6.261   3.808  14.029  0.1447  0.3213 -0.2745
 8051TIP3    H145568   6.294   3.734  13.978 -2.6240 -0.9507 -0.4406
 8051TIP3    H245569   6.291   3.886  13.981  2.1627 -0.6845 -0.7403
 8052TIP3   OH245570   4.839   4.299  14.350  0.4236 -0.1396  0.2898
 8052TIP3    H145571   4.747   4.304  14.325  0.0466  0.6952  1.7233
 8052TIP3    H245572   4.886   4.289  14.267 -0.9646 -1.0488 -0.4409
 8053TIP3   OH245573   3.636   0.740   3.047  0.7156  0.4991  0.9157
 8053TIP3    H145574   3.585   0.815   3.078 -1.3313 -0.4351  0.0073
 8053TIP3    H245575   3.665   0.765   2.960 -0.5643  0.0351  0.3231
 8054TIP3   OH245576   6.294   4.192  14.849 -0.3493  0.7615  0.7508
 8054TIP3    H145577   6.352   4.139  14.794  0.8312 -0.6467  3.1722
 8054TIP3    H245578   6.349   4.219  14.923 -2.0500  1.8432  1.6877
 8055TIP3   OH245579   3.018   0.917   2.673  0.0770  0.2080  0.1093
 8055TIP3    H145580   2.974   0.862   2.608 -0.2049  0.0461  0.4299
 8055TIP3    H245581   2.995   1.007   2.649  0.4955  0.1850 -0.3860
 8056TIP3   OH245582   1.478   2.412   3.977  0.3443 -0.0695 -0.5038
 8056TIP3    H145583   1.440   2.496   3.952 -0.0023  0.7748  2.4025
 8056TIP3    H245584   1.543   2.434   4.044  2.1620 -1.9420 -1.5501
 8057TIP3   OH245585   1.708   2.117  16.967 -0.3196  0.6393 -0.4760
 8057TIP3    H145586   1.772   2.064  16.918 -2.3865 -0.5585 -2.0223
 8057TIP3    H245587   1.736   2.208  16.952  2.0232  0.1427  0.4129
 8058TIP3   OH245588   6.359   0.451  16.953 -0.1611  0.0826 -0.3897
 8058TIP3    H145589   6.314   0.478  16.873  1.1476  1.5504 -0.6867
 8058TIP3    H245590   6.451   0.444  16.927 -0.0098 -1.7673  0.4519
 8059TIP3   OH245591   6.542   2.797   0.007  0.1500  0.2360  0.3839
 8059TIP3    H145592   6.609   2.863   0.022  0.3772 -0.0321  0.5582
 8059TIP3    H245593   6.569   2.722   0.060  0.2660 -0.2493 -0.3381
 8060TIP3   OH245594   3.327   1.492  14.254 -0.0518  0.2993 -0.1438
 8060TIP3    H145595   3.269   1.535  14.192 -0.9509  0.2013  0.6071
 8060TIP3    H245596   3.282   1.500  14.338  0.9399  0.0624  0.4257
 8061TIP3   OH245597   2.169   4.014   3.891  0.0275  0.3373 -0.2931
 8061TIP3    H145598   2.164   4.017   3.986  0.5718  1.3383 -0.2834
 8061TIP3    H245599   2.086   4.052   3.861 -1.2733 -2.2563 -0.2700
 8062TIP3   OH245600   2.196   2.850  11.242 -0.0473  0.0279  0.0901
 8062TIP3    H145601   2.163   2.860  11.332  2.0058 -0.8958  0.9925
 8062TIP3    H245602   2.183   2.758  11.222  1.6207 -0.2905  0.3530
 8063TIP3   OH245603   0.032   5.605   5.342  0.2113 -0.1879 -0.0906
 8063TIP3    H145604   0.037   5.688   5.390  1.1164  0.8406 -1.8358
 8063TIP3    H245605   0.009   5.540   5.408 -1.3163  1.5652  1.1896
 8064TIP3   OH245606   5.227   2.166  11.879 -0.7245 -0.0268  0.0776
 8064TIP3    H145607   5.187   2.248  11.908 -0.8528 -0.1938  0.3792
 8064TIP3    H245608   5.240   2.116  11.960  0.8157  0.3407  0.0913
 8065TIP3   OH245609   2.137   5.217   4.202  0.1874 -0.3113  0.6777
 8065TIP3    H145610   2.136   5.132   4.247 -0.4024 -0.5056  0.3092
 8065TIP3    H245611   2.228   5.247   4.209  0.5802 -1.3207  0.1806
 8066TIP3   OH245612   6.443   0.722  15.408 -0.5317  0.6349  0.0118
 8066TIP3    H145613   6.489   0.806  15.413 -0.7909  0.8410 -0.8498
 8066TIP3    H245614   6.476   0.672  15.483  3.3343 -0.3421 -2.0816
 8067TIP3   OH245615   5.826   1.346  16.378 -0.0619 -0.0770  0.1532
 8067TIP3    H145616   5.791   1.419  16.430  1.0652  0.8888 -0.3916
 8067TIP3    H245617   5.854   1.282  16.443 -0.4799  0.2482  0.6641
 8068TIP3   OH245618   1.482   6.014   2.861 -0.2484 -0.5119 -0.6178
 8068TIP3    H145619   1.428   5.970   2.796 -0.3251 -0.5817 -0.5079
 8068TIP3    H245620   1.540   5.945   2.894 -0.6201 -0.6208 -0.1804
 8069TIP3   OH245621   1.301   1.626  15.450  0.1330 -0.0391 -0.2348
 8069TIP3    H145622   1.229   1.595  15.395  0.7501  0.1734 -1.1812
 8069TIP3    H245623   1.310   1.719  15.427  0.7701 -0.0881 -0.1798
 8070TIP3   OH245624   1.392   1.795   5.880  0.0868 -0.0345  0.2266
 8070TIP3    H145625   1.410   1.803   5.786 -0.3128  1.2453  0.2323
 8070TIP3    H245626   1.427   1.875   5.918  0.2574 -0.5529  1.1774
 8071TIP3   OH245627   5.294   5.239  11.446 -0.0738  0.2264 -0.2125
 8071TIP3    H145628   5.342   5.252  11.364 -2.3020  1.7533 -1.3936
 8071TIP3    H245629   5.350   5.276  11.514  1.4240 -0.2452 -1.1402
 8072TIP3   OH245630   6.545   1.660   2.683 -0.2425 -0.0671 -0.1409
 8072TIP3    H145631   6.641   1.658   2.689 -0.1415  0.5469 -1.4470
 8072TIP3    H245632   6.521   1.569   2.662  0.4562  0.5454 -4.5607
 8073TIP3   OH245633   0.469   6.631  14.284  0.3071  0.2608 -0.2723
 8073TIP3    H145634   0.499   6.540  14.276  1.9027  0.8539 -1.6134
 8073TIP3    H245635   0.538   6.682  14.242 -0.2749  2.1575  0.9681
 8074TIP3   OH245636   0.068   6.114  13.953 -0.0218  0.8767 -0.5253
 8074TIP3    H145637   0.109   6.033  13.922  0.8665  0.9229  0.4463
 8074TIP3    H245638   0.136   6.180  13.940 -0.3246  1.2422 -0.2342
 8075TIP3   OH245639   4.336   3.691   2.670  0.0012  0.2952  0.5743
 8075TIP3    H145640   4.356   3.692   2.576  2.0025  1.2053  0.9501
 8075TIP3    H245641   4.323   3.784   2.692  0.9640  0.2506  1.4253
 8076TIP3   OH245642   5.043   0.998   7.040  0.3799 -0.0259  0.2619
 8076TIP3    H145643   4.964   0.946   7.028  0.6435 -0.4028  0.1325
 8076TIP3    H245644   5.106   0.961   6.978  0.9766 -0.3846  1.0570
 8077TIP3   OH245645   1.520   3.918   1.277  0.5124 -0.5166  0.2071
 8077TIP3    H145646   1.465   3.942   1.352 -1.5061  0.0074 -1.3682
 8077TIP3    H245647   1.609   3.925   1.311 -0.1813  2.4687  1.8065
 8078TIP3   OH245648   6.637   0.025   3.129  0.1520 -0.0875  0.0732
 8078TIP3    H145649   6.732   0.035   3.125  0.1227  0.3532  0.4214
 8078TIP3    H245650   6.619  -0.054   3.077  0.6884 -0.0788 -0.1306
 8079TIP3   OH245651   2.139   6.634   1.012 -0.6254  0.2841 -0.8361
 8079TIP3    H145652   2.223   6.629   0.967  0.3720  0.3903  0.9348
 8079TIP3    H245653   2.161   6.653   1.103 -2.3892 -2.5695  0.3050
 8080TIP3   OH245654   5.964   5.477  15.567  0.6287 -0.5335  0.1857
 8080TIP3    H145655   5.965   5.488  15.662  1.4701  0.2856  0.0939
 8080TIP3    H245656   5.875   5.501  15.541  1.2479  2.4519  0.4492
 8081TIP3   OH245657   3.286   3.238   4.135  0.0650 -1.0096  0.7928
 8081TIP3    H145658   3.286   3.203   4.046  0.2793  0.5692  0.1251
 8081TIP3    H245659   3.194   3.232   4.162  0.1146 -2.1216  0.7321
 8082TIP3   OH245660   3.759   4.655   5.038 -0.3752 -0.0985  0.0303
 8082TIP3    H145661   3.709   4.602   5.099  1.9809 -2.7351 -0.1270
 8082TIP3    H245662   3.818   4.706   5.094 -0.8785  0.4637  0.0647
 8083TIP3   OH245663   0.058   4.512  17.051  0.0975  0.0956 -0.6711
 8083TIP3    H145664  -0.022   4.485  17.005 -0.7375 -0.8904  1.2395
 8083TIP3    H245665   0.026   4.548  17.134  1.6052  0.4693 -0.2315
 8084TIP3   OH245666   3.612   4.654  14.297  0.0903  0.0780  0.4726
 8084TIP3    H145667   3.531   4.604  14.303 -0.6087  1.1959  0.7893
 8084TIP3    H245668   3.624   4.692  14.384  1.1153 -0.2983  0.5083
 8085TIP3   OH245669   1.263   2.007   0.283  0.2154  0.2544  0.3469
 8085TIP3    H145670   1.233   2.037   0.369  1.6519 -1.6911  1.6133
 8085TIP3    H245671   1.358   2.009   0.289  0.4776  2.9800 -2.3474
 8086TIP3   OH245672   2.998   0.300   5.620  0.1999  0.2980  0.4983
 8086TIP3    H145673   3.073   0.254   5.657 -0.3036 -0.4686  0.6083
 8086TIP3    H245674   3.024   0.323   5.532  0.2417 -0.8117  0.2001
 8087TIP3   OH245675   1.331   4.192   5.391  0.7030  0.3858 -0.4614
 8087TIP3    H145676   1.377   4.200   5.474 -0.0157  1.5894 -0.1530
 8087TIP3    H245677   1.283   4.109   5.398 -1.1223  1.4849  1.2898
 8088TIP3   OH245678   2.643   0.605   4.814 -0.3034 -0.0206  0.0226
 8088TIP3    H145679   2.645   0.522   4.768 -0.1991  0.0249 -0.0555
 8088TIP3    H245680   2.629   0.671   4.746 -0.4209  0.0222  0.0879
 8089TIP3   OH245681   6.704   1.476   2.324 -0.2964  0.1876  0.0490
 8089TIP3    H145682   6.784   1.463   2.274 -1.3877  0.2866 -1.8332
 8089TIP3    H245683   6.715   1.423   2.402  0.6785 -1.6325 -1.2571
 8090TIP3   OH245684   5.885   1.439   4.141  0.1557 -0.1813  0.4571
 8090TIP3    H145685   5.835   1.502   4.192  0.4141 -1.3020  2.1470
 8090TIP3    H245686   5.869   1.464   4.050  0.4377  2.4536  1.0538
 8091TIP3   OH245687   4.189   1.853  14.005 -0.5948 -0.2018 -0.2447
 8091TIP3    H145688   4.153   1.877  14.091  0.8583 -0.7208  0.5484
 8091TIP3    H245689   4.229   1.934  13.973 -0.0715 -0.3079  0.1331
 8092TIP3   OH245690   2.446   4.124  12.198 -0.1130 -0.4383 -0.0456
 8092TIP3    H145691   2.457   4.032  12.222 -1.8748 -0.5751  0.4294
 8092TIP3    H245692   2.358   4.128  12.159  0.2668  0.8972 -0.8166
 8093TIP3   OH245693   6.148   0.892  11.531 -0.4272  0.0787  0.5387
 8093TIP3    H145694   6.069   0.862  11.485  0.0486 -0.7673  0.2703
 8093TIP3    H245695   6.210   0.912  11.462  0.2739 -1.1488  0.7866
 8094TIP3   OH245696   5.926   6.732  16.602 -0.1623 -0.1147 -0.5436
 8094TIP3    H145697   5.923   6.640  16.629  0.1594  0.0146 -0.0514
 8094TIP3    H245698   6.017   6.747  16.578 -0.0922  0.2147 -0.1014
 8095TIP3   OH245699   4.606   3.591  14.377 -0.6681 -0.4697  0.5926
 8095TIP3    H145700   4.572   3.589  14.467 -0.4797 -0.5666  0.6616
 8095TIP3    H245701   4.650   3.507  14.367 -1.3205 -0.7697  0.1636
 8096TIP3   OH245702   4.465   2.396   2.019 -0.0852  0.2364  0.5923
 8096TIP3    H145703   4.552   2.410   1.983 -0.0261  0.1094  0.6884
 8096TIP3    H245704   4.467   2.438   2.105 -0.3736  0.9628  0.2595
 8097TIP3   OH245705   2.280   1.364   2.324  0.2859  0.4080 -0.0003
 8097TIP3    H145706   2.229   1.355   2.243 -2.4963  3.4414  1.1613
 8097TIP3    H245707   2.271   1.279   2.367 -5.3781  0.9526  0.7226
 8098TIP3   OH245708   5.603   6.334   5.232  0.3164 -0.2422 -0.3646
 8098TIP3    H145709   5.653   6.330   5.151  0.1067 -3.5354 -0.4684
 8098TIP3    H245710   5.644   6.269   5.289 -1.2382  0.0014  1.1303
 8099TIP3   OH245711   5.740   2.912  11.238  0.1287  0.1729  0.4914
 8099TIP3    H145712   5.795   2.841  11.271  0.3571 -0.0833 -0.4117
 8099TIP3    H245713   5.690   2.873  11.167 -4.0696 -0.6618  3.5152
 8100TIP3   OH245714   6.615   0.768  13.065 -0.0908 -0.4787 -0.6425
 8100TIP3    H145715   6.703   0.733  13.081  0.2486  0.5469 -0.1453
 8100TIP3    H245716   6.631   0.853  13.023 -0.8564 -0.4319 -0.8520
 8101TIP3   OH245717   6.212   3.227   0.910 -0.6888 -0.2336 -0.3830
 8101TIP3    H145718   6.305   3.225   0.889 -0.2762  1.4878  1.0333
 8101TIP3    H245719   6.171   3.171   0.844  1.1371  0.3698 -2.1241
 8102TIP3   OH245720   4.210   4.260  16.389  0.2392  0.0281 -0.2738
 8102TIP3    H145721   4.173   4.317  16.321 -1.0483 -0.4572 -0.0172
 8102TIP3    H245722   4.133   4.224  16.434  1.0575  0.5724  1.6560
 8103TIP3   OH245723   2.544   1.720   4.843 -0.5022 -0.6387  0.5770
 8103TIP3    H145724   2.473   1.784   4.831 -1.9510 -2.1990  0.5533
 8103TIP3    H245725   2.589   1.718   4.759 -0.6290  0.1369  0.4813
 8104TIP3   OH245726   5.396   1.612  11.422  0.2165  0.0195  0.3913
 8104TIP3    H145727   5.412   1.704  11.441 -1.0391  0.1128  1.1007
 8104TIP3    H245728   5.346   1.612  11.341  2.0599 -0.1848 -0.8206
 8105TIP3   OH245729   3.599   0.175  17.081 -0.0179 -0.2422  0.3154
 8105TIP3    H145730   3.521   0.122  17.062 -0.5677 -0.0448  1.8965
 8105TIP3    H245731   3.620   0.155  17.172 -0.1923  2.1944  0.9580
 8106TIP3   OH245732   5.105   1.513   3.864 -0.4031 -0.1931 -0.1762
 8106TIP3    H145733   5.175   1.541   3.804 -0.5639  0.0915 -0.2347
 8106TIP3    H245734   5.076   1.429   3.829  2.1874 -2.0424  1.7440
 8107TIP3   OH245735   2.429   0.299   3.313 -0.8828 -0.0912 -0.8832
 8107TIP3    H145736   2.447   0.370   3.374  0.2905  0.1533 -1.4841
 8107TIP3    H245737   2.362   0.246   3.357  0.2572 -0.1946  0.8432
 8108TIP3   OH245738   3.234   2.300   2.222  0.1106  0.2355  0.5144
 8108TIP3    H145739   3.224   2.259   2.307 -0.2409  0.8811  0.7938
 8108TIP3    H245740   3.326   2.326   2.218  0.3760 -0.7016  0.2675
 8109TIP3   OH245741   2.677   0.969  13.742 -0.4043  0.0888  0.6049
 8109TIP3    H145742   2.703   0.878  13.734  1.5309  0.6493 -0.0191
 8109TIP3    H245743   2.595   0.967  13.791 -1.0658 -2.0469 -0.5156
 8110TIP3   OH245744   2.651   5.113  15.429 -0.4363 -0.6819 -0.4478
 8110TIP3    H145745   2.690   5.029  15.450 -1.7304 -1.0729  0.4555
 8110TIP3    H245746   2.651   5.116  15.333  1.9450 -0.5590 -0.5102
 8111TIP3   OH245747   2.402   0.478  17.200  0.1852 -0.1708  0.1523
 8111TIP3    H145748   2.441   0.391  17.194  1.2079  0.2820  0.0462
 8111TIP3    H245749   2.437   0.526  17.125  0.7426  0.7476  0.9687
 8112TIP3   OH245750   6.049   1.044   0.145 -0.3727  0.4276  0.2087
 8112TIP3    H145751   6.047   0.986   0.221  1.6504  0.4009  0.3031
 8112TIP3    H245752   6.011   0.992   0.074 -0.7076 -0.1652  0.8125
 8113TIP3   OH245753   3.801   1.841   0.350  0.0558 -0.3881 -0.5422
 8113TIP3    H145754   3.852   1.882   0.420 -1.2017 -0.4496  0.4292
 8113TIP3    H245755   3.730   1.795   0.394  0.4112 -2.1820 -1.7258
 8114TIP3   OH245756   5.677   1.363   5.737  0.0597  0.6073 -0.4822
 8114TIP3    H145757   5.629   1.298   5.789  1.3625 -0.7122 -0.8538
 8114TIP3    H245758   5.753   1.385   5.790  0.4181  0.6878 -1.0208
 8115TIP3   OH245759   3.606   1.853   1.357  0.2593  0.3562  0.2677
 8115TIP3    H145760   3.592   1.851   1.452 -0.9975 -2.5630  0.1353
 8115TIP3    H245761   3.702   1.846   1.348  0.3538 -0.0602  1.3525
 8116TIP3   OH245762   3.860   5.040  16.861  0.0640  0.0752 -0.2764
 8116TIP3    H145763   3.946   5.079  16.877  0.8815 -2.4719  2.5692
 8116TIP3    H245764   3.873   4.987  16.783  0.5454  1.0368 -0.8733
 8117TIP3   OH245765   1.518   3.750   4.797 -0.4253 -0.3266 -0.1761
 8117TIP3    H145766   1.534   3.831   4.748 -1.3920 -0.3628 -0.5839
 8117TIP3    H245767   1.422   3.743   4.800 -0.3579 -1.1176  0.4209
 8118TIP3   OH245768   1.759   1.766  15.739 -0.3376  0.1640  0.3043
 8118TIP3    H145769   1.840   1.810  15.763 -0.2822  0.5418 -0.5570
 8118TIP3    H245770   1.781   1.717  15.660 -1.0561  0.6193 -0.1871
 8119TIP3   OH245771   0.277   4.575  15.185  0.0045 -0.0112 -0.7049
 8119TIP3    H145772   0.309   4.491  15.218  1.2288  0.3868 -0.8213
 8119TIP3    H245773   0.186   4.558  15.161 -0.0756 -1.0322  0.2299
 8120TIP3   OH245774   2.105   3.136  15.621 -0.7238 -0.3580 -0.6641
 8120TIP3    H145775   2.138   3.225  15.632 -1.3872 -0.3189  1.5211
 8120TIP3    H245776   2.159   3.099  15.551  0.4273  1.3350 -0.7404
 8121TIP3   OH245777   4.210   0.145  16.487  0.5405 -0.1783  0.2199
 8121TIP3    H145778   4.236   0.081  16.553 -0.6554  0.5930  1.5062
 8121TIP3    H245779   4.285   0.203  16.478  1.5250 -1.5326 -0.7435
 8122TIP3   OH245780   6.199   5.127  10.477  0.6513 -0.0587 -0.2639
 8122TIP3    H145781   6.227   5.213  10.446  1.1282  0.3733  1.2796
 8122TIP3    H245782   6.145   5.145  10.554 -1.6631 -1.0210 -1.5513
 8123TIP3   OH245783   3.519   4.283  14.190  0.3269 -0.2677  0.8299
 8123TIP3    H145784   3.481   4.202  14.224  2.2315 -1.1573  0.9204
 8123TIP3    H245785   3.484   4.351  14.247 -4.1049 -0.4016 -1.2738
 8124TIP3   OH245786   3.274   3.144   3.178 -0.2009  0.0407  0.3254
 8124TIP3    H145787   3.340   3.115   3.116 -0.1404  0.0265  0.3957
 8124TIP3    H245788   3.211   3.193   3.126 -0.6823 -0.8055  0.0798
 8125TIP3   OH245789   4.259   5.430   0.390  0.6962  0.3877 -1.1623
 8125TIP3    H145790   4.281   5.522   0.377  2.5596  0.1269 -0.2832
 8125TIP3    H245791   4.269   5.416   0.484 -1.4569 -0.2959 -0.9977
 8126TIP3   OH245792   5.961   1.392  15.622  0.1453 -0.1730  0.3430
 8126TIP3    H145793   5.905   1.422  15.693 -0.0160  0.2149  0.0531
 8126TIP3    H245794   5.901   1.358  15.557  0.3103 -0.8535  0.5357
 8127TIP3   OH245795   4.397   1.450  16.998 -0.3035  0.0062 -0.0755
 8127TIP3    H145796   4.439   1.412  16.921 -2.3554 -0.3160 -1.1061
 8127TIP3    H245797   4.303   1.438  16.983 -0.8477  1.5274  1.6578
 8128TIP3   OH245798   2.172   5.884   4.237 -0.1149  0.3961 -0.1023
 8128TIP3    H145799   2.081   5.879   4.209  0.3612  1.9559 -2.1205
 8128TIP3    H245800   2.222   5.848   4.164  0.9923  1.2284  0.2120
 8129TIP3   OH245801   4.261   4.631  16.868  0.1603  0.7268 -0.1699
 8129TIP3    H145802   4.326   4.692  16.832  1.0103  0.7674  1.3793
 8129TIP3    H245803   4.311   4.552  16.888 -0.7945 -0.2347 -1.4362
 8130TIP3   OH245804   5.690   1.751   3.625  0.1672  0.2580 -0.3980
 8130TIP3    H145805   5.746   1.826   3.605 -0.3655  1.3106  1.7668
 8130TIP3    H245806   5.601   1.788   3.631 -0.4245 -0.9387 -1.3526
 8131TIP3   OH245807   0.595   2.559  11.537  0.7121  0.3723 -0.2477
 8131TIP3    H145808   0.591   2.554  11.442  0.9476  1.4684 -0.3301
 8131TIP3    H245809   0.570   2.649  11.558  1.2855  0.3307  0.6913
 8132TIP3   OH245810   3.012   5.758   2.314  0.7959  0.0232 -0.0440
 8132TIP3    H145811   2.991   5.808   2.235  0.7745 -1.3345 -0.9328
 8132TIP3    H245812   3.071   5.688   2.283  1.0689 -0.3201  1.2002
 8133TIP3   OH245813   2.503   6.199   6.118  0.1655 -0.5416  0.2281
 8133TIP3    H145814   2.550   6.210   6.200  0.7396  1.1743 -0.2933
 8133TIP3    H245815   2.411   6.192   6.144  0.3813 -0.5347  1.0318
 8134TIP3   OH245816   3.735   3.088   0.200 -0.2354 -0.2684 -0.1301
 8134TIP3    H145817   3.690   3.044   0.272 -0.6046  0.4745  0.1073
 8134TIP3    H245818   3.713   3.180   0.211  0.3560 -0.0440 -0.7337
 8135TIP3   OH245819   3.373   0.006  10.553  0.1381 -0.0778  0.0354
 8135TIP3    H145820   3.401   0.081  10.605  0.0245  0.1536 -0.2309
 8135TIP3    H245821   3.297   0.038  10.504 -0.7041 -0.7416  0.8674
 8136TIP3   OH245822   6.107   5.054  15.468 -0.1764  0.5204 -0.1155
 8136TIP3    H145823   6.042   5.121  15.445  0.0566  0.0137 -2.4553
 8136TIP3    H245824   6.189   5.086  15.430  0.4464  0.0102  0.7671
 8137TIP3   OH245825   5.243   4.181   1.178  0.1429 -0.2136  0.2757
 8137TIP3    H145826   5.328   4.136   1.175  0.2686 -0.1873  2.1633
 8137TIP3    H245827   5.179   4.112   1.164  0.4431 -0.1926 -1.4385
 8138TIP3   OH245828   5.009   5.479  16.947  1.0312 -0.2485 -0.0034
 8138TIP3    H145829   5.096   5.513  16.927  0.7480  1.4941  1.4491
 8138TIP3    H245830   5.001   5.486  17.042 -1.0161  0.5932 -0.1646
 8139TIP3   OH245831   2.841   5.287  12.307 -0.3658  0.3894  0.2661
 8139TIP3    H145832   2.746   5.294  12.316 -0.4479  0.1828 -0.3832
 8139TIP3    H245833   2.871   5.249  12.389 -0.9759 -0.5734  0.0578
 8140TIP3   OH245834   1.885   2.478   4.566 -0.3259  0.8999  0.6980
 8140TIP3    H145835   1.888   2.468   4.471  0.2438 -0.9120  0.8659
 8140TIP3    H245836   1.972   2.451   4.595 -1.0150 -0.1808  1.8408
 8141TIP3   OH245837   2.546   5.275  16.453 -0.6198  0.1447 -0.3370
 8141TIP3    H145838   2.623   5.295  16.400  0.1690  3.1800  1.7163
 8141TIP3    H245839   2.580   5.218  16.523 -0.8657 -0.7922 -0.9681
 8142TIP3   OH245840   3.486   3.068   2.067  0.2081  0.7860 -0.5651
 8142TIP3    H145841   3.549   3.074   2.140 -0.6074  0.3990  0.1905
 8142TIP3    H245842   3.515   3.135   2.005  0.7538  1.3223  0.2450
 8143TIP3   OH245843   1.677   6.016   2.672 -0.2172 -0.1072 -1.0633
 8143TIP3    H145844   1.613   6.045   2.736  0.8869 -2.2594  1.1709
 8143TIP3    H245845   1.656   5.923   2.658  1.6779 -0.5458 -1.1673
 8144TIP3   OH245846   0.413   0.132   1.925  0.1658 -0.2470 -0.4612
 8144TIP3    H145847   0.456   0.127   1.840 -1.4573 -0.0677 -1.3108
 8144TIP3    H245848   0.408   0.041   1.954  1.6172 -0.2339 -0.0496
 8145TIP3   OH245849   4.310   2.336   3.207  0.0249 -0.3597 -0.1521
 8145TIP3    H145850   4.235   2.386   3.173  0.9702  1.0761 -0.2235
 8145TIP3    H245851   4.379   2.350   3.142  1.2813  0.8627  1.3843
 8146TIP3   OH245852   5.025   4.783  16.074  0.0338  0.1035  0.2949
 8146TIP3    H145853   5.068   4.738  16.147  1.9722  1.5929  0.1488
 8146TIP3    H245854   5.097   4.824  16.025 -1.2313 -0.5000 -2.2436
 8147TIP3   OH245855   1.858   0.125   0.009  0.3071 -0.4294 -0.1213
 8147TIP3    H145856   1.911   0.168  -0.059 -0.9281 -0.8782 -1.4193
 8147TIP3    H245857   1.788   0.187   0.028  0.8443 -0.1629  1.0163
 8148TIP3   OH245858   1.980   4.443   2.788 -0.0047  0.3129 -0.4268
 8148TIP3    H145859   1.973   4.536   2.811  0.5893  0.7147 -1.7733
 8148TIP3    H245860   2.033   4.442   2.709  2.0880 -1.3766  0.9064
 8149TIP3   OH245861   0.999   6.546   4.480  0.1075  0.6027 -0.1467
 8149TIP3    H145862   1.062   6.530   4.550 -0.7430 -0.4470  0.4066
 8149TIP3    H245863   0.947   6.620   4.512  1.0505  1.4972 -0.6215
 8150TIP3   OH245864   6.227   6.614   0.301 -0.1927  0.0532 -0.3393
 8150TIP3    H145865   6.207   6.541   0.244 -0.4749 -0.4882  0.4370
 8150TIP3    H245866   6.271   6.575   0.377  1.5737  0.9326 -0.8620
 8151TIP3   OH245867   5.466   5.514   1.231 -0.3840 -0.3706  0.0281
 8151TIP3    H145868   5.409   5.484   1.160  1.2269 -1.6159 -0.8266
 8151TIP3    H245869   5.505   5.595   1.198 -1.0069  0.0166  0.2474
 8152TIP3   OH245870   6.288   3.518  15.659  0.3460  0.1861 -0.3387
 8152TIP3    H145871   6.230   3.524  15.583  0.8647  0.0373 -0.7560
 8152TIP3    H245872   6.317   3.609  15.673 -0.0122  0.2656 -0.1075
 8153TIP3   OH245873   5.424   6.692   2.510 -0.8500  0.4867  0.3242
 8153TIP3    H145874   5.411   6.786   2.507 -1.6770  0.3870  0.4393
 8153TIP3    H245875   5.357   6.656   2.451 -0.8762 -0.0483  0.6636
 8154TIP3   OH245876   3.155   0.963  13.948  0.2630  0.2789 -0.3942
 8154TIP3    H145877   3.066   0.951  13.915  0.1248  1.7084 -0.6241
 8154TIP3    H245878   3.211   0.920  13.884 -0.2360 -0.4568 -0.3532
 8155TIP3   OH245879   1.416   4.422   0.611 -0.2236 -0.0180  0.0474
 8155TIP3    H145880   1.441   4.485   0.679  0.2687 -0.0076 -0.1377
 8155TIP3    H245881   1.334   4.456   0.576 -0.3460  0.1162  0.4616
 8156TIP3   OH245882   1.561   1.904   5.254 -0.2467  0.1170 -0.2039
 8156TIP3    H145883   1.534   1.939   5.339 -0.3276 -1.1892  0.3324
 8156TIP3    H245884   1.480   1.899   5.204 -0.1322  1.3260 -0.5495
 8157TIP3   OH245885   4.603   2.090   1.185  0.3759  0.4704 -0.2874
 8157TIP3    H145886   4.630   2.104   1.276  1.3577  1.0693 -0.6487
 8157TIP3    H245887   4.551   2.010   1.187  0.9634  0.0995  0.7023
 8158TIP3   OH245888   6.711   2.498   5.112  0.4805 -0.0062 -0.3617
 8158TIP3    H145889   6.715   2.439   5.188 -1.2139 -0.6622 -0.7508
 8158TIP3    H245890   6.626   2.541   5.119  0.7579  0.7387 -1.3282
 8159TIP3   OH245891   6.277   5.642  12.029  0.3408 -0.5246  0.1699
 8159TIP3    H145892   6.355   5.644  11.974 -0.0788  0.3118 -0.4050
 8159TIP3    H245893   6.294   5.571  12.092  1.1142 -1.0387 -0.5981
 8160TIP3   OH245894   6.162   0.407  16.460  0.1389  0.3727  0.3202
 8160TIP3    H145895   6.151   0.317  16.430 -1.3061  0.7149 -0.2898
 8160TIP3    H245896   6.125   0.461  16.389 -0.2000  1.3793  1.2326
 8161TIP3   OH245897   2.684   2.661   1.534 -0.1430  0.3096  0.1981
 8161TIP3    H145898   2.597   2.693   1.557 -0.6396  0.5333 -1.7695
 8161TIP3    H245899   2.706   2.599   1.603 -2.3558 -0.5920  0.1990
 8162TIP3   OH245900   3.293   6.480  15.743  0.0567  0.1482  0.0063
 8162TIP3    H145901   3.299   6.385  15.738 -0.3295  0.0150  1.6994
 8162TIP3    H245902   3.248   6.505  15.662  0.6866 -1.0351 -0.7339
 8163TIP3   OH245903   3.614   3.546   0.686 -0.4200  0.1267 -0.0957
 8163TIP3    H145904   3.681   3.490   0.648 -0.9833 -1.5219  1.2475
 8163TIP3    H245905   3.658   3.591   0.758 -0.6205 -0.6092  0.4962
 8164TIP3   OH245906   2.877   3.072   3.281 -0.8068 -0.4291  0.1567
 8164TIP3    H145907   2.854   2.979   3.279  1.1495 -0.9475 -2.0031
 8164TIP3    H245908   2.869   3.101   3.190  1.7083  0.6739  0.2163
 8165TIP3   OH245909   1.896   0.579   5.201 -0.2505  0.1234 -0.8130
 8165TIP3    H145910   1.870   0.672   5.201  1.7124  0.7234 -0.7160
 8165TIP3    H245911   1.917   0.561   5.109 -0.2618 -0.1056 -0.7689
 8166TIP3   OH245912   6.517   1.095   5.598  0.2858  0.4397  0.6613
 8166TIP3    H145913   6.579   1.166   5.580 -1.8491  2.0068 -0.9593
 8166TIP3    H245914   6.553   1.020   5.551  1.8664  0.7941  1.2469
 8167TIP3   OH245915   3.859   6.363   0.066 -0.3026  0.1844 -0.3071
 8167TIP3    H145916   3.914   6.441   0.066 -1.1655  0.8206  0.4929
 8167TIP3    H245917   3.836   6.351   0.158 -0.0536 -1.1220 -0.3957
 8168TIP3   OH245918   1.728   6.531  11.680  0.3879 -0.1454  0.0328
 8168TIP3    H145919   1.819   6.514  11.654  0.6991 -0.0272  1.0030
 8168TIP3    H245920   1.725   6.625  11.698  0.3814 -0.3372  1.1139
 8169TIP3   OH245921   4.362   5.544  15.991 -0.7292 -0.1132  0.2076
 8169TIP3    H145922   4.285   5.497  15.960 -1.4284  1.1230  0.0082
 8169TIP3    H245923   4.413   5.478  16.037 -2.1067 -0.8685  0.7132
 8170TIP3   OH245924   2.784   1.116   4.718 -0.5034  0.2676  0.0992
 8170TIP3    H145925   2.850   1.048   4.730 -1.5673 -0.7041  0.6484
 8170TIP3    H245926   2.702   1.068   4.704 -1.0956  1.4388 -0.6158
 8171TIP3   OH245927   1.453   0.495  12.944 -0.4371  0.6058  0.0447
 8171TIP3    H145928   1.394   0.504  13.019 -1.5508 -1.3494 -0.5315
 8171TIP3    H245929   1.411   0.430  12.888  1.3028  0.6344 -1.3826
 8172TIP3   OH245930   1.578   3.831  11.422  0.4937 -0.4806 -0.2610
 8172TIP3    H145931   1.589   3.921  11.393  1.3737 -0.5179 -0.0915
 8172TIP3    H245932   1.536   3.839  11.508 -1.0258 -0.3237 -0.9926
 8173TIP3   OH245933   1.771   5.001   3.749  0.4298 -0.3394 -0.8696
 8173TIP3    H145934   1.699   4.966   3.696  0.1509 -0.6409 -0.3097
 8173TIP3    H245935   1.818   4.924   3.780 -0.7497 -0.3126  1.1486
 8174TIP3   OH245936   1.596   2.052   1.368  0.1355 -0.0722 -0.0133
 8174TIP3    H145937   1.617   2.117   1.301  0.4859 -0.7636 -0.5895
 8174TIP3    H245938   1.572   1.973   1.319  2.1875 -1.1800  0.6171
 8175TIP3   OH245939   4.966   0.209  14.207 -0.0326 -0.5842 -0.5853
 8175TIP3    H145940   4.878   0.214  14.243 -0.5830  0.1066 -1.9748
 8175TIP3    H245941   5.015   0.156  14.270 -1.2853 -0.5022  0.4840
 8176TIP3   OH245942   1.686   2.285  15.270  0.4480 -0.1417 -0.0026
 8176TIP3    H145943   1.750   2.257  15.204  0.4652 -0.1638  0.0240
 8176TIP3    H245944   1.702   2.378  15.281  2.1085 -0.5659  1.7859
 8177TIP3   OH245945   6.358   0.287   0.204 -0.1090  0.0587  0.9523
 8177TIP3    H145946   6.287   0.348   0.225 -0.3286 -0.2287  1.0554
 8177TIP3    H245947   6.315   0.201   0.199  0.1788 -0.0716  0.6993
 8178TIP3   OH245948   6.544   5.487   3.152 -0.0691  0.7779 -0.2471
 8178TIP3    H145949   6.456   5.508   3.120 -0.0012  1.2212 -0.1470
 8178TIP3    H245950   6.590   5.570   3.151  0.0514  0.7319  0.6258
 8179TIP3   OH245951   2.760   0.168  11.580 -0.2851  0.0880  0.7451
 8179TIP3    H145952   2.669   0.141  11.589 -0.6190  1.3590  1.3222
 8179TIP3    H245953   2.804   0.091  11.542 -1.9456  0.1017 -1.3896
 8180TIP3   OH245954   3.823   2.155   1.141  0.1741  0.2543  0.2886
 8180TIP3    H145955   3.728   2.157   1.137  0.1243  1.0469  1.3718
 8180TIP3    H245956   3.848   2.085   1.081 -1.1626 -0.9311  1.0364
 8181TIP3   OH245957   0.736   2.867   0.549  0.2580  0.5540  0.3609
 8181TIP3    H145958   0.661   2.812   0.575 -0.1820 -0.0619 -1.9824
 8181TIP3    H245959   0.696   2.941   0.504  1.0217  0.3279 -0.7315
 8182TIP3   OH245960   0.282   0.518  14.437 -0.9176  0.1463 -0.1487
 8182TIP3    H145961   0.196   0.478  14.429 -0.4674 -1.3590  1.7103
 8182TIP3    H245962   0.281   0.592  14.375 -3.6055  0.3470  0.0388
 8183TIP3   OH245963   1.643   4.845  12.810 -0.3667  0.5008  0.6366
 8183TIP3    H145964   1.697   4.790  12.753  1.2511 -1.0987  3.4653
 8183TIP3    H245965   1.573   4.787  12.840  0.7226  0.1704  2.7814
 8184TIP3   OH245966   3.087   4.223   1.186  0.0235  0.7504  0.4739
 8184TIP3    H145967   3.036   4.234   1.106  0.3843  1.9588  0.3871
 8184TIP3    H245968   3.157   4.163   1.162 -0.2737  0.5609  0.0727
 8185TIP3   OH245969   3.003   0.592   2.141 -0.2063 -0.4459 -0.4313
 8185TIP3    H145970   2.968   0.665   2.192 -0.0207 -0.7976  0.2043
 8185TIP3    H245971   3.083   0.626   2.101  0.4101 -0.5866  0.6520
 8186TIP3   OH245972   5.366   3.900   4.464  0.3614 -0.6722  0.0758
 8186TIP3    H145973   5.332   3.948   4.388 -2.1477  0.8615  2.0375
 8186TIP3    H245974   5.301   3.832   4.481  0.4183 -0.4061  1.4112
 8187TIP3   OH245975   2.205   4.331   0.899 -0.1310 -0.7228  0.0445
 8187TIP3    H145976   2.118   4.332   0.859  0.7457 -0.2929 -1.9842
 8187TIP3    H245977   2.190   4.302   0.989 -2.5110  0.5191  0.1261
 8188TIP3   OH245978   3.409   3.634  17.048  0.4808  0.1626 -0.9743
 8188TIP3    H145979   3.441   3.548  17.020  0.1607 -0.0008 -0.8316
 8188TIP3    H245980   3.439   3.643  17.138 -1.3389 -0.7339 -0.2269
 8189TIP3   OH245981   4.330   3.172   4.652  0.0295  0.2953 -0.1732
 8189TIP3    H145982   4.260   3.207   4.597  0.4656  0.8160 -0.4009
 8189TIP3    H245983   4.294   3.174   4.741 -0.2513  0.5392 -0.2899
 8190TIP3   OH245984   0.916   1.097  13.172 -0.1830  0.1352 -0.1916
 8190TIP3    H145985   0.963   1.168  13.216  0.7012 -0.9756  0.7060
 8190TIP3    H245986   0.908   1.127  13.081  1.1328  0.9209 -0.0748
 8191TIP3   OH245987   3.359   0.432  14.723  0.1994 -0.0844  0.3086
 8191TIP3    H145988   3.339   0.453  14.632  0.2210 -1.4986 -0.0436
 8191TIP3    H245989   3.337   0.512  14.771  1.0405  1.0092 -1.0272
 8192TIP3   OH245990   1.318   5.841  17.065  0.1535  1.1480  0.1876
 8192TIP3    H145991   1.241   5.813  17.114 -0.5052  1.5263 -0.6082
 8192TIP3    H245992   1.367   5.760  17.049  0.4260  1.0249  1.5045
 8193TIP3   OH245993   2.680   5.468  12.106 -0.4616  0.7057 -0.4902
 8193TIP3    H145994   2.734   5.394  12.132  0.7126  1.9014  0.5856
 8193TIP3    H245995   2.733   5.515  12.041 -1.3651  0.4054 -1.4723
 8194TIP3   OH245996   4.078   1.281  14.743  0.0422 -0.3204 -0.0622
 8194TIP3    H145997   4.163   1.261  14.782 -0.5312 -0.9620  0.9121
 8194TIP3    H245998   4.087   1.259  14.650  1.1110  0.2002 -0.0919
 8195TIP3   OH245999   4.162   1.774   6.171 -0.0169 -0.2969 -0.3296
 8195TIP3    H146000   4.227   1.704   6.160 -0.3967 -0.7871  0.4328
 8195TIP3    H246001   4.099   1.738   6.234  0.1483  0.9918  0.6204
 8196TIP3   OH246002   3.918   3.636  15.824  0.6967  0.4895  0.6404
 8196TIP3    H146003   4.000   3.589  15.807  0.1829  0.1971 -1.1738
 8196TIP3    H246004   3.877   3.587  15.895  0.3854 -1.6124 -0.8957
 8197TIP3   OH246005   6.357   5.436   2.672 -0.6457  0.8696 -0.6320
 8197TIP3    H146006   6.415   5.391   2.733  1.0388  1.4705 -1.7318
 8197TIP3    H246007   6.415   5.485   2.614 -2.1397  0.3992 -2.6823
 8198TIP3   OH246008   1.935   2.541  10.764 -0.3660 -0.7222  0.0063
 8198TIP3    H146009   2.017   2.533  10.813 -1.1360  0.2812  1.5720
 8198TIP3    H246010   1.951   2.612  10.702 -0.4117  0.3637  1.1932
 8199TIP3   OH246011   4.507   4.388  12.952  0.7731 -0.5134  0.5871
 8199TIP3    H146012   4.448   4.315  12.971  1.8479 -1.4825  0.3863
 8199TIP3    H246013   4.590   4.362  12.993  0.4530  1.9364  2.9998
 8200TIP3   OH246014   2.758   4.595   0.628  1.1094 -0.2657 -0.0036
 8200TIP3    H146015   2.720   4.547   0.555  0.6440  0.7402 -0.4317
 8200TIP3    H246016   2.770   4.684   0.596  0.7622  0.2370  1.1930
 8201TIP3   OH246017   3.655   5.491  13.041 -0.8702 -0.0241 -0.2887
 8201TIP3    H146018   3.595   5.419  13.026 -0.0251 -0.5873 -1.1127
 8201TIP3    H246019   3.601   5.570  13.031 -1.7862 -0.5197  0.5716
 8202TIP3   OH246020   6.077   3.958   2.503  0.1049 -0.1751 -0.0338
 8202TIP3    H146021   5.997   4.000   2.469 -0.2931 -0.7337  0.1950
 8202TIP3    H246022   6.084   3.990   2.593 -1.2926 -2.0596  0.8135
 8203TIP3   OH246023   3.092   4.174   2.028  0.2296  0.1984 -0.2195
 8203TIP3    H146024   3.144   4.200   1.952  0.9968 -0.7809 -0.0445
 8203TIP3    H246025   3.001   4.182   1.998  0.4170  2.2898 -0.4113
 8204TIP3   OH246026   1.579   0.037   4.418 -0.2677 -0.0269  0.0816
 8204TIP3    H146027   1.662   0.011   4.378  0.2161 -1.1233  1.7089
 8204TIP3    H246028   1.558  -0.034   4.478 -1.2205  1.3176  1.4096
 8205TIP3   OH246029   5.778   2.842   1.300 -0.2102  0.1511  0.4516
 8205TIP3    H146030   5.715   2.805   1.239 -0.4742 -3.0059  2.3988
 8205TIP3    H246031   5.855   2.861   1.246  0.0096 -3.5723 -0.8826
 8206TIP3   OH246032   1.810   2.250   5.058 -0.5385 -0.3740 -0.1219
 8206TIP3    H146033   1.881   2.236   4.995  2.6125  1.1558  2.7734
 8206TIP3    H246034   1.795   2.164   5.097 -0.3868 -0.7336 -0.8437
 8207TIP3   OH246035   2.003   3.134   3.835 -0.1530 -0.3229  0.4024
 8207TIP3    H146036   2.021   3.159   3.926  0.6005  1.6012 -0.2338
 8207TIP3    H246037   1.947   3.056   3.843  0.2085 -0.4378  2.4961
 8208TIP3   OH246038   3.912   0.355  13.751  0.1267  0.0714  0.3415
 8208TIP3    H146039   3.893   0.321  13.839 -1.3737 -0.2907 -0.0900
 8208TIP3    H246040   3.953   0.440  13.767  1.1528 -0.5888  1.3971
 8209TIP3   OH246041   3.631   4.618  13.080 -0.5298 -0.1287  0.1758
 8209TIP3    H146042   3.667   4.683  13.141 -0.3283 -0.1828  0.1156
 8209TIP3    H246043   3.679   4.538  13.100  0.3504  0.1320 -0.8249
 8210TIP3   OH246044   4.960   6.672   4.353  0.5197 -0.2559 -0.0073
 8210TIP3    H146045   4.991   6.636   4.270  0.1451 -0.1103 -0.2120
 8210TIP3    H246046   4.959   6.598   4.413 -0.0472 -0.5488 -0.3684
 8211TIP3   OH246047   0.883   6.123  13.036  0.4052  0.6624  0.6668
 8211TIP3    H146048   0.845   6.052  13.088  0.7770 -0.1027 -0.0845
 8211TIP3    H246049   0.862   6.100  12.946  0.1070  1.7684  0.4389
 8212TIP3   OH246050   1.168   3.365  11.413 -0.1756  0.4107  0.0585
 8212TIP3    H146051   1.127   3.313  11.481 -0.1318  0.1732 -0.0943
 8212TIP3    H246052   1.250   3.396  11.452  0.3428 -0.5668 -0.2227
 8213TIP3   OH246053   6.501   4.101  16.964  0.5869 -0.5398  0.3816
 8213TIP3    H146054   6.410   4.121  16.988  1.2225 -0.4436  3.0587
 8213TIP3    H246055   6.551   4.173  17.002  1.8388 -0.8030 -0.7105
 8214TIP3   OH246056   4.319   5.821  11.025 -0.2678 -0.1705 -0.1808
 8214TIP3    H146057   4.296   5.791  10.936 -0.8648  1.0791 -0.4662
 8214TIP3    H246058   4.317   5.741  11.078  3.4624 -1.6286 -1.8648
 8215TIP3   OH246059   1.769   6.633  17.161  0.1366 -0.5349 -0.2582
 8215TIP3    H146060   1.676   6.613  17.168 -0.0522  0.7670  2.0529
 8215TIP3    H246061   1.776   6.689  17.084 -1.0049 -0.5806 -0.4108
 8216TIP3   OH246062   4.214   1.297  12.548 -0.0387 -0.2409  0.0734
 8216TIP3    H146063   4.280   1.252  12.601 -0.7096 -2.7139 -1.0413
 8216TIP3    H246064   4.149   1.230  12.528 -0.0369  0.6157 -3.4942
 8217TIP3   OH246065   3.911   2.857  10.451  0.0993 -0.9460  0.8052
 8217TIP3    H146066   3.927   2.949  10.432  1.5787 -0.7173  2.8164
 8217TIP3    H246067   3.953   2.810  10.379  1.9443 -0.0764  1.2447
 8218TIP3   OH246068   2.891   3.741  11.902  0.7853 -0.1711 -0.4816
 8218TIP3    H146069   2.948   3.664  11.899 -0.3158 -1.0726  0.5058
 8218TIP3    H246070   2.922   3.790  11.978  1.9794  0.7877 -1.5620
 8219TIP3   OH246071   3.064   2.818   2.358  0.3660 -0.5234  0.3608
 8219TIP3    H146072   3.058   2.911   2.380  3.4929 -0.1016 -0.0594
 8219TIP3    H246073   3.087   2.775   2.440  0.7632 -0.6257  0.2008
 8220TIP3   OH246074   1.666   3.062  15.479 -0.3919  0.6789  0.4359
 8220TIP3    H146075   1.579   3.096  15.499  0.1818  2.6943 -0.2861
 8220TIP3    H246076   1.724   3.108  15.540  0.3417  0.4617 -0.0814
 8221TIP3   OH246077   2.223   0.017   2.089 -0.2646 -0.3026 -0.2259
 8221TIP3    H146078   2.213  -0.031   2.007  0.4962 -0.0118 -0.5033
 8221TIP3    H246079   2.272   0.096   2.064 -0.3233 -0.0464  0.4521
 8222TIP3   OH246080   3.341   3.658   0.264 -0.1144 -0.2863  0.3095
 8222TIP3    H146081   3.271   3.719   0.289 -1.0546 -0.9631 -0.5794
 8222TIP3    H246082   3.296   3.589   0.216  1.4658  0.5748 -2.6769
 8223TIP3   OH246083   5.674   5.845  14.047  0.3463  0.3367  0.6134
 8223TIP3    H146084   5.583   5.819  14.062  0.6392 -0.2605  1.3909
 8223TIP3    H246085   5.712   5.772  13.997  1.2012 -0.8967  2.8989
 8224TIP3   OH246086   5.937   4.403  17.018  0.0464  0.7197 -0.4093
 8224TIP3    H146087   5.961   4.394  16.926  0.0939  0.1175 -0.3424
 8224TIP3    H246088   5.875   4.332  17.034  2.8852 -1.6775  0.9502
 8225TIP3   OH246089   0.436   2.631  11.285 -0.1122  0.8311  0.0197
 8225TIP3    H146090   0.467   2.705  11.338  3.2256  0.6405 -1.4078
 8225TIP3    H246091   0.385   2.672  11.215 -0.3059  1.5416  0.5587
 8226TIP3   OH246092   5.632   3.050   3.620 -0.6823 -0.2689  0.0318
 8226TIP3    H146093   5.592   3.130   3.584  0.2653 -0.3645 -1.3076
 8226TIP3    H246094   5.723   3.055   3.592 -0.5862 -1.7569  0.0415
 8227TIP3   OH246095   6.006   0.828   5.501  0.0963  0.7479  0.0890
 8227TIP3    H146096   6.074   0.896   5.496 -0.7097  1.4949 -2.8272
 8227TIP3    H246097   5.933   0.871   5.545 -0.6322  2.1157 -2.2751
 8228TIP3   OH246098   2.793   6.456  13.948 -0.2411 -0.3595  0.0942
 8228TIP3    H146099   2.816   6.461  14.040  2.5670  0.2230 -0.5458
 8228TIP3    H246100   2.799   6.546  13.916  1.4435 -0.8701 -1.1657
 8229TIP3   OH246101   1.506   4.930   1.433 -0.7367  0.3440  0.1351
 8229TIP3    H146102   1.477   4.898   1.348 -1.1161 -0.5624  0.5913
 8229TIP3    H246103   1.426   4.944   1.483 -0.5843  1.9677 -0.0070
 8230TIP3   OH246104   4.388   3.340   6.345  0.6019  0.1651 -0.0898
 8230TIP3    H146105   4.354   3.365   6.259  0.7412 -0.0999 -0.2227
 8230TIP3    H246106   4.395   3.245   6.341 -2.5366 -0.2705  1.3525
 8231TIP3   OH246107   5.409   3.248  15.953  0.4204 -0.2387  0.4555
 8231TIP3    H146108   5.373   3.305  15.885 -0.6626  1.0458  2.0363
 8231TIP3    H246109   5.494   3.285  15.974  1.0299 -1.0019 -0.5948
 8232TIP3   OH246110   3.063   0.252   2.861  0.4451 -0.0925  0.0496
 8232TIP3    H146111   3.133   0.190   2.840  0.6000  0.3428 -0.7500
 8232TIP3    H246112   3.108   0.325   2.904  0.3252 -0.3043  0.5490
 8233TIP3   OH246113   2.400   5.904  15.665  0.1289  0.1709  0.0648
 8233TIP3    H146114   2.327   5.847  15.689  0.6228  0.0600  1.3684
 8233TIP3    H246115   2.478   5.852  15.685  0.5753  0.5397 -0.6842
 8234TIP3   OH246116   6.589   5.267   0.645  0.0202  0.4211 -0.1075
 8234TIP3    H146117   6.619   5.351   0.681 -0.3131  1.6585 -2.4778
 8234TIP3    H246118   6.493   5.273   0.647 -0.0291 -0.4484  0.8266
 8235TIP3   OH246119   5.825   3.342  13.755  0.2784 -0.6583  0.0457
 8235TIP3    H146120   5.775   3.295  13.689  0.3429 -0.0286 -0.4582
 8235TIP3    H246121   5.759   3.383  13.811  0.2188 -0.3504 -0.2425
 8236TIP3   OH246122   4.132   3.144   3.408 -0.4850  0.5135 -0.3201
 8236TIP3    H146123   4.080   3.209   3.456  0.5932  0.7590  0.5635
 8236TIP3    H246124   4.196   3.195   3.359  1.3810  0.1520  1.5695
 8237TIP3   OH246125   6.399   4.707   4.095 -0.3143  0.5162 -0.0749
 8237TIP3    H146126   6.321   4.678   4.143 -1.5573  0.4562 -2.0421
 8237TIP3    H246127   6.395   4.802   4.099 -1.4689  0.5576 -1.6111
 8238TIP3   OH246128   2.898   1.730   2.978 -0.0524  0.0863  0.1941
 8238TIP3    H146129   2.876   1.637   2.989  0.4320 -0.0485  0.0420
 8238TIP3    H246130   2.851   1.773   3.049 -0.4588 -0.2502  0.1321
 8239TIP3   OH246131   4.702   3.666   2.326 -0.1054 -0.0883  0.1764
 8239TIP3    H146132   4.708   3.752   2.368 -0.6411 -0.4435  0.9907
 8239TIP3    H246133   4.729   3.682   2.236 -3.2243  1.6071 -0.6129
 8240TIP3   OH246134   2.954   1.452   2.440  0.1577 -0.0704 -0.7869
 8240TIP3    H146135   2.896   1.455   2.364 -1.4868 -0.9185  0.3785
 8240TIP3    H246136   3.026   1.510   2.418 -1.2722  1.2474 -2.1799
 8241TIP3   OH246137   1.085   4.297  16.522  0.3794 -0.0944  0.1329
 8241TIP3    H146138   1.043   4.357  16.460  0.8172  0.3519  0.2569
 8241TIP3    H246139   1.073   4.210  16.484  0.3545  0.1413 -0.4066
 8242TIP3   OH246140   5.101   6.489  12.224 -0.0479  0.2340 -0.0747
 8242TIP3    H146141   5.137   6.578  12.231  0.4375  0.1264 -0.9722
 8242TIP3    H246142   5.177   6.435  12.202 -0.3406 -0.4092  0.4959
 8243TIP3   OH246143   6.107   4.971  15.741 -0.2984  0.0624  0.3958
 8243TIP3    H146144   6.100   5.006  15.652  0.6104 -0.9157 -0.0824
 8243TIP3    H246145   6.100   4.876  15.731  1.1482 -0.1667  1.1854
 8244TIP3   OH246146   5.519   0.040   0.659 -0.1189 -0.3588 -0.1322
 8244TIP3    H146147   5.573   0.005   0.730  0.2942 -1.2753 -0.8852
 8244TIP3    H246148   5.581   0.074   0.595 -0.4253 -1.0145 -0.7995
 8245TIP3   OH246149   1.653   4.426   0.904 -0.5117  0.0681 -0.0278
 8245TIP3    H146150   1.663   4.522   0.906 -1.2374  0.2255 -1.6701
 8245TIP3    H246151   1.643   4.406   0.811 -4.0952 -1.1719  0.4878
 8246TIP3   OH246152   1.393   5.531  15.845 -0.7473  0.5256  0.4826
 8246TIP3    H146153   1.472   5.527  15.791 -0.8987 -1.7749  0.3628
 8246TIP3    H246154   1.423   5.570  15.927  0.3999  0.1618  0.2516
 8247TIP3   OH246155   4.922   5.770  13.507 -0.9424 -0.3171 -0.5647
 8247TIP3    H146156   5.017   5.771  13.490 -1.0533 -0.8148 -1.2543
 8247TIP3    H246157   4.911   5.825  13.585 -0.2621  0.9584 -1.3389
 8248TIP3   OH246158   3.231   6.085  12.974 -0.0819 -0.0842 -0.4050
 8248TIP3    H146159   3.236   6.181  12.970  0.5116 -0.0947 -0.1131
 8248TIP3    H246160   3.257   6.064  13.064  2.4180 -0.6609 -1.1880
 8249TIP3   OH246161   0.537   3.518  16.908  0.0844 -0.2288  0.2523
 8249TIP3    H146162   0.513   3.599  16.952  0.5900  0.4073 -0.6303
 8249TIP3    H246163   0.630   3.528  16.888 -0.0412 -0.6772 -0.5900
 8250TIP3   OH246164   6.618   6.275   5.210  0.0369  0.9488 -0.5471
 8250TIP3    H146165   6.582   6.264   5.298  0.3284 -1.9854 -0.7005
 8250TIP3    H246166   6.544   6.309   5.159 -0.8454  0.4537  0.3543
 8251TIP3   OH246167   4.405   1.461  12.224 -0.9861  0.4978  0.1635
 8251TIP3    H146168   4.374   1.502  12.305 -2.5904  0.0720 -0.2017
 8251TIP3    H246169   4.340   1.393  12.206 -0.3668  0.2474 -1.2083
 8252TIP3   OH246170   4.447   0.299  14.474  0.1558 -0.1176  1.0307
 8252TIP3    H146171   4.528   0.260  14.442 -0.6646 -1.7388  0.8254
 8252TIP3    H246172   4.431   0.256  14.558 -0.8538 -0.3207  0.7392
 8253TIP3   OH246173   1.675   4.912  11.237  0.2126 -0.0952  0.7008
 8253TIP3    H146174   1.643   4.832  11.196  2.0592  1.2087 -3.9542
 8253TIP3    H246175   1.762   4.889  11.269  0.0657 -0.3066  0.9621
 8254TIP3   OH246176   1.664   3.395   5.004 -0.0094 -0.3187  0.8307
 8254TIP3    H146177   1.635   3.394   4.913 -0.1602 -0.7711  0.8818
 8254TIP3    H246178   1.584   3.409   5.055 -0.4791 -3.2725  1.0768
 8255TIP3   OH246179   5.967   5.336  12.980  0.2706  0.5364 -0.1504
 8255TIP3    H146180   5.889   5.288  12.954 -0.3747  1.1342  0.6447
 8255TIP3    H246181   5.974   5.406  12.914  0.1394  0.4804 -0.2252
 8256TIP3   OH246182   3.963   1.684  13.130 -0.2363 -0.0745 -0.7205
 8256TIP3    H146183   3.976   1.776  13.153 -0.4092  0.0884 -1.2623
 8256TIP3    H246184   4.051   1.649  13.119 -0.1716  0.0353 -0.5533
 8257TIP3   OH246185   1.391   0.519   3.206  0.2392 -0.3340 -0.1741
 8257TIP3    H146186   1.479   0.496   3.176  0.4994 -2.7377  2.0897
 8257TIP3    H246187   1.403   0.598   3.258  1.1551 -0.7715  0.3109
 8258TIP3   OH246188   4.063   1.188   3.590 -0.0339 -0.4705 -0.1144
 8258TIP3    H146189   4.049   1.169   3.683  0.1958 -1.5846 -0.2851
 8258TIP3    H246190   4.139   1.133   3.566  2.1376  2.3376 -0.1704
 8259TIP3   OH246191   5.262   2.817   3.917 -0.0238 -0.3244  0.3079
 8259TIP3    H146192   5.262   2.722   3.906 -1.7021 -0.1709 -1.7510
 8259TIP3    H246193   5.345   2.846   3.879 -0.0799 -0.8710 -0.2426
 8260TIP3   OH246194   2.932   2.727   4.706  0.1825 -0.1192 -0.3894
 8260TIP3    H146195   2.864   2.784   4.669  1.6827  1.3010 -1.0437
 8260TIP3    H246196   2.904   2.712   4.796 -0.9966  0.4404 -0.6414
 8261TIP3   OH246197   5.694   2.686   4.284 -0.0623 -0.2522  0.1727
 8261TIP3    H146198   5.727   2.645   4.363  0.6131  1.7080  0.9785
 8261TIP3    H246199   5.767   2.739   4.252 -1.1804  1.1440 -0.1913
 8262TIP3   OH246200   0.812   6.113  12.359 -0.6495 -0.3031 -0.1388
 8262TIP3    H146201   0.816   6.032  12.410  2.5684 -0.3663 -0.3293
 8262TIP3    H246202   0.724   6.148  12.377 -0.7985 -1.8939  2.9210
 8263TIP3   OH246203   3.983   6.539   3.354 -0.2245 -0.6120 -0.1030
 8263TIP3    H146204   3.961   6.457   3.310 -1.1808 -1.0149  1.0466
 8263TIP3    H246205   4.071   6.560   3.325  0.1011 -2.1431 -0.2862
 8264TIP3   OH246206   1.506   0.041  16.638  0.3993 -0.1409 -0.1155
 8264TIP3    H146207   1.539  -0.049  16.640  2.4436  0.5530 -0.2385
 8264TIP3    H246208   1.514   0.068  16.546  0.3995  0.3637  0.0265
 8265TIP3   OH246209   6.455   3.142   4.174  0.4175  0.1758  0.7914
 8265TIP3    H146210   6.404   3.222   4.170 -0.6588 -0.3738  2.3677
 8265TIP3    H246211   6.399   3.080   4.221  1.9634 -0.9127  1.3002
 8266TIP3   OH246212   6.335   1.853   1.544 -0.1311  0.7998  0.1148
 8266TIP3    H146213   6.366   1.788   1.482 -0.8219  0.4531  0.1291
 8266TIP3    H246214   6.263   1.897   1.500 -0.3667  0.8231  0.5210
 8267TIP3   OH246215   2.967   4.125   2.274  0.3218 -0.2216  0.3027
 8267TIP3    H146216   3.022   4.109   2.351 -0.2542  0.8338  0.9569
 8267TIP3    H246217   3.029   4.129   2.201  0.9191 -0.8204  0.7587
 8268TIP3   OH246218   4.461   3.169  14.400 -0.2193 -0.9372  0.2553
 8268TIP3    H146219   4.415   3.198  14.321 -0.1185 -0.2580  0.4405
 8268TIP3    H246220   4.497   3.083  14.376  0.9194 -0.1901 -0.9039
 8269TIP3   OH246221   5.659   4.099  15.795  0.2150 -0.6401 -0.3501
 8269TIP3    H146222   5.749   4.132  15.790  0.1712  0.1564  2.6289
 8269TIP3    H246223   5.664   4.024  15.853 -0.9812 -0.9001 -0.5534
 8270TIP3   OH246224   5.027   3.871  11.330 -0.0616  0.2633  0.1366
 8270TIP3    H146225   5.077   3.870  11.248 -1.4127 -0.4076 -0.7220
 8270TIP3    H246226   4.948   3.920  11.309 -0.3909  0.1586  1.0767
 8271TIP3   OH246227   2.799   0.143   1.337 -0.2400  0.7407 -0.7730
 8271TIP3    H146228   2.821   0.213   1.275 -0.3008  2.1324  0.6932
 8271TIP3    H246229   2.704   0.132   1.329 -0.0987  0.0848 -1.7198
 8272TIP3   OH246230   2.325   3.596   4.311 -0.3708  0.0652 -0.2388
 8272TIP3    H146231   2.298   3.515   4.355  2.0496 -0.2254  0.8937
 8272TIP3    H246232   2.276   3.665   4.357 -1.2079 -0.5886 -0.1096
 8273TIP3   OH246233   4.022   5.169   2.891 -0.1126  0.2558 -0.5012
 8273TIP3    H146234   4.021   5.206   2.980  0.0052 -1.0478  0.0639
 8273TIP3    H246235   4.045   5.077   2.904 -0.9763 -0.1618 -1.8194
 8274TIP3   OH246236   2.700   6.221  15.629 -0.2049  0.2668 -0.3009
 8274TIP3    H146237   2.636   6.244  15.562  1.0564  1.5459 -1.1210
 8274TIP3    H246238   2.664   6.258  15.710 -1.1272 -0.1833 -0.4929
 8275TIP3   OH246239   4.182   2.344   2.297 -0.3039 -0.2395  0.3076
 8275TIP3    H146240   4.178   2.348   2.393 -1.2845  1.2162  0.2470
 8275TIP3    H246241   4.117   2.408   2.268  1.0341  0.4566 -1.3253
 8276TIP3   OH246242   4.106   6.213  14.700  0.5809 -0.0728 -0.1992
 8276TIP3    H146243   4.170   6.157  14.745 -1.7449 -3.6966 -0.9537
 8276TIP3    H246244   4.130   6.207  14.607 -1.0749 -2.0747 -0.5827
 8277TIP3   OH246245   2.405   3.163   0.241 -0.1451 -0.1626 -0.1488
 8277TIP3    H146246   2.377   3.081   0.283  2.2210 -1.3194 -0.6397
 8277TIP3    H246247   2.500   3.165   0.254 -0.0008  1.9864 -1.1146
 8278TIP3   OH246248   2.526   3.013  10.566  0.3253  0.6800 -0.2675
 8278TIP3    H146249   2.524   2.990  10.474  0.5426 -1.7134  0.2568
 8278TIP3    H246250   2.469   3.089  10.574  0.0848  0.7557 -2.2992
 8279TIP3   OH246251   4.529   4.978   3.302 -0.3510  0.0361  0.8402
 8279TIP3    H146252   4.479   5.013   3.376  0.6246  0.2855  1.3995
 8279TIP3    H246253   4.502   4.886   3.296 -1.9030  0.4898  0.2381
 8280TIP3   OH246254   3.998   4.164   4.871 -0.1520  0.4186 -0.6535
 8280TIP3    H146255   3.977   4.151   4.779 -0.6198 -2.1360 -0.2764
 8280TIP3    H246256   3.916   4.195   4.910 -0.5838 -0.5452 -0.7645
 8281TIP3   OH246257   3.116   5.889  17.024  0.7615  0.1249  0.6941
 8281TIP3    H146258   3.163   5.807  17.014 -0.3929 -0.5371  0.5117
 8281TIP3    H246259   3.105   5.921  16.934 -0.1576 -0.3415  0.6216
 8282TIP3   OH246260   2.143   6.383  12.993 -0.5935  0.7260  0.4129
 8282TIP3    H146261   2.062   6.370  13.042 -0.0852 -1.4046  0.7921
 8282TIP3    H246262   2.122   6.351  12.905 -0.0166 -0.4805  0.6889
 8283TIP3   OH246263   3.356   5.012   1.036 -0.1540 -0.5247 -0.0630
 8283TIP3    H146264   3.349   4.942   0.971 -0.2145 -2.0848  1.5616
 8283TIP3    H246265   3.266   5.041   1.051 -0.0760  0.3624 -1.1743
 8284TIP3   OH246266   4.532   5.411   1.781  0.1876 -0.9676 -0.6245
 8284TIP3    H146267   4.440   5.417   1.754  0.2468  0.4675 -0.6010
 8284TIP3    H246268   4.532   5.348   1.853 -1.5966  2.2535  2.5282
 8285TIP3   OH246269   6.347   5.704   4.961  0.3402  0.1419 -0.1477
 8285TIP3    H146270   6.368   5.687   4.869  1.5343  1.0935 -0.0785
 8285TIP3    H246271   6.432   5.718   5.003 -0.2603  0.9851  0.8260
 8286TIP3   OH246272   0.138   0.711   2.308 -0.4146 -0.1795 -0.3689
 8286TIP3    H146273   0.147   0.776   2.377 -0.6626 -0.0428 -0.4642
 8286TIP3    H246274   0.204   0.736   2.243 -0.5792  0.0439 -0.4547
 8287TIP3   OH246275   5.880   2.429  13.856  0.4113  0.0795  0.2096
 8287TIP3    H146276   5.836   2.429  13.771  2.6185  0.4278 -1.0115
 8287TIP3    H246277   5.912   2.518  13.868  2.7229 -0.6333 -0.0943
 8288TIP3   OH246278   5.521   6.705  14.990  0.5050 -0.0387  0.3176
 8288TIP3    H146279   5.453   6.770  14.973  1.1093  0.4439 -0.3033
 8288TIP3    H246280   5.480   6.621  14.967  0.1127  0.2467 -0.0348
 8289TIP3   OH246281   2.799   1.690  13.577  0.5003  0.5203 -0.1435
 8289TIP3    H146282   2.754   1.764  13.618 -2.8317 -1.2469 -0.2603
 8289TIP3    H246283   2.795   1.620  13.643 -0.7789 -0.9678 -1.7182
 8290TIP3   OH246284   2.769   5.483  12.876 -0.3253  0.5048  0.0988
 8290TIP3    H146285   2.863   5.483  12.895 -0.5875  0.0308  1.5344
 8290TIP3    H246286   2.760   5.437  12.793  0.4593 -2.5093  1.5458
 8291TIP3   OH246287   0.967   0.632   1.711  0.2315  0.0540 -0.1929
 8291TIP3    H146288   1.027   0.603   1.642  1.7797 -0.2376  1.2017
 8291TIP3    H246289   1.024   0.674   1.776 -0.9219 -1.1949  1.7207
 8292TIP3   OH246290   5.043   4.261  13.532 -0.2296  0.3189 -0.1404
 8292TIP3    H146291   5.070   4.279  13.442 -0.6924 -0.1777 -0.3856
 8292TIP3    H246292   5.125   4.256  13.581  0.3218 -2.6104 -1.1353
 8293TIP3   OH246293   0.937   4.778   3.602  0.2506  0.0482  0.1122
 8293TIP3    H146294   0.991   4.699   3.599  0.7714  0.4074 -0.2413
 8293TIP3    H246295   0.852   4.751   3.568  0.6393 -0.2073 -0.6802
 8294TIP3   OH246296   2.925   6.428   0.645 -0.6218 -0.1498  0.0765
 8294TIP3    H146297   2.919   6.371   0.722 -1.0114  0.0299  0.1819
 8294TIP3    H246298   3.019   6.436   0.628 -0.4498  0.9405  1.3834
 8295TIP3   OH246299   3.134   0.098   4.791  0.0498 -0.5373  0.2248
 8295TIP3    H146300   3.226   0.072   4.792  0.3360  0.4200 -0.6542
 8295TIP3    H246301   3.135   0.192   4.811 -0.6347 -0.2458 -1.0480
 8296TIP3   OH246302   1.677   4.758   5.115 -0.4997 -0.4265 -0.5910
 8296TIP3    H146303   1.691   4.849   5.091  0.9577 -0.4567 -0.0093
 8296TIP3    H246304   1.695   4.755   5.209  0.4574 -1.4573 -0.7690
 8297TIP3   OH246305   2.329   6.230   5.577  0.3724  0.4978 -0.9278
 8297TIP3    H146306   2.346   6.243   5.670 -0.4108  1.1580 -0.8648
 8297TIP3    H246307   2.409   6.258   5.534  0.2492  1.5079 -0.5234
 8298TIP3   OH246308   5.692   4.923   3.184  0.1706  0.6461 -0.1496
 8298TIP3    H146309   5.620   4.870   3.217 -0.1711  0.8280 -0.5891
 8298TIP3    H246310   5.660   5.013   3.188 -0.4423  0.5786 -2.2817
 8299TIP3   OH246311   0.679   2.157  13.585  0.4680 -0.3019 -0.1439
 8299TIP3    H146312   0.679   2.079  13.530  1.4020 -1.4116  1.3449
 8299TIP3    H246313   0.608   2.142  13.647  1.2046 -0.3976  0.6940
 8300TIP3   OH246314   2.268   0.712   6.477 -0.0971 -0.4762 -0.3509
 8300TIP3    H146315   2.239   0.802   6.497 -0.0268 -0.9926  2.5348
 8300TIP3    H246316   2.349   0.701   6.527 -0.8486 -2.5536  0.5395
 8301TIP3   OH246317   4.535   4.846   1.601  0.2100  0.3383  0.5934
 8301TIP3    H146318   4.441   4.866   1.597 -0.1203 -1.2637 -0.5062
 8301TIP3    H246319   4.544   4.792   1.680 -0.0475 -0.6805 -0.0650
 8302TIP3   OH246320   2.613   2.750   6.301  0.2924 -0.1926 -0.4439
 8302TIP3    H146321   2.643   2.787   6.218  0.5150 -2.6390 -1.5223
 8302TIP3    H246322   2.693   2.731   6.350  0.1639  1.1588  0.3683
 8303TIP3   OH246323   0.015   3.235  11.210 -0.0351 -0.1300  0.0996
 8303TIP3    H146324   0.076   3.289  11.260 -0.1045 -1.9876  2.2936
 8303TIP3    H246325  -0.071   3.255  11.247 -0.2736 -0.4831 -0.2515
 8304TIP3   OH246326   0.642   0.225   3.667  0.4973  0.6858 -0.1718
 8304TIP3    H146327   0.706   0.290   3.693  1.4703  0.1387 -1.1066
 8304TIP3    H246328   0.611   0.254   3.581  0.2443  0.4069 -0.1791
 8305TIP3   OH246329   2.605   4.262   4.903 -0.3061  0.0844 -0.0969
 8305TIP3    H146330   2.575   4.244   4.992 -2.5875  0.2571 -0.7792
 8305TIP3    H246331   2.701   4.261   4.910 -0.4102  0.5636  2.4275
 8306TIP3   OH246332   4.764   6.117  14.449 -0.7102  0.3579 -0.1305
 8306TIP3    H146333   4.794   6.110  14.539  0.1171  0.8008 -0.3614
 8306TIP3    H246334   4.825   6.179  14.408  0.1772 -1.3454 -1.5142
 8307TIP3   OH246335   4.828   4.654   0.666  0.3131 -0.3160  0.5240
 8307TIP3    H146336   4.915   4.674   0.701  1.0313 -0.4057 -1.1016
 8307TIP3    H246337   4.768   4.688   0.732  1.5664  1.0601  1.0405
 8308TIP3   OH246338   4.933   4.670  12.213 -0.2697 -0.1109 -0.1407
 8308TIP3    H146339   4.883   4.737  12.168  0.1917  0.5041  0.2483
 8308TIP3    H246340   5.006   4.717  12.253 -0.4947 -0.6828  0.9800
 8309TIP3   OH246341   5.536   3.352  11.339 -0.6602 -0.2292 -0.5276
 8309TIP3    H146342   5.456   3.379  11.294 -0.1138  0.0715 -1.3399
 8309TIP3    H246343   5.559   3.268  11.300  0.2347  0.3893 -1.3892
 8310TIP3   OH246344   0.442   6.182   3.127  0.3648  0.2146  0.1156
 8310TIP3    H146345   0.481   6.269   3.138 -0.1636  0.3108  1.5490
 8310TIP3    H246346   0.437   6.148   3.217 -0.6576 -0.7495 -0.2926
 8311TIP3   OH246347   6.800   0.960   4.360  0.4920  0.3889 -0.0612
 8311TIP3    H146348   6.826   0.877   4.400  0.2905  0.7623  0.8600
 8311TIP3    H246349   6.718   0.940   4.315 -0.4290  0.4363  1.5121
 8312TIP3   OH246350   4.093   0.953  13.901  0.0646  0.6361 -0.3965
 8312TIP3    H146351   4.174   0.999  13.879  0.6193  0.2623  0.7795
 8312TIP3    H246352   4.122   0.879  13.954 -0.9384 -0.2757 -1.0830
 8313TIP3   OH246353   4.906   1.217   1.057 -0.3323 -0.0863  0.0006
 8313TIP3    H146354   4.986   1.225   1.005 -0.5093  2.5926  0.0225
 8313TIP3    H246355   4.936   1.184   1.142  0.5411 -0.3713 -0.4045
 8314TIP3   OH246356   6.094   2.690   0.503 -0.0476 -0.2443  0.2413
 8314TIP3    H146357   6.005   2.656   0.490  0.4520 -1.5336  0.0290
 8314TIP3    H246358   6.143   2.656   0.428  1.0246 -1.0109  1.2636
 8315TIP3   OH246359   0.445   1.369   2.471 -0.1406  0.0251 -0.1004
 8315TIP3    H146360   0.454   1.274   2.470 -1.0705 -0.1123  1.1147
 8315TIP3    H246361   0.406   1.388   2.557 -1.4384  1.3627 -0.9458
 8316TIP3   OH246362   5.041   5.644   2.937 -0.0110 -0.2491 -0.0188
 8316TIP3    H146363   4.974   5.709   2.914  0.0700  0.5990  1.9480
 8316TIP3    H246364   5.075   5.615   2.853 -1.9917  0.1945 -1.0505
 8317TIP3   OH246365   3.398   6.488   2.696  1.2322 -0.0257  0.1011
 8317TIP3    H146366   3.489   6.470   2.719  1.0476  0.3096  1.2011
 8317TIP3    H246367   3.377   6.568   2.745  0.2164 -0.3561  0.2312
 8318TIP3   OH246368   5.563   3.363   1.783 -0.4685 -0.0593  0.1831
 8318TIP3    H146369   5.579   3.457   1.775 -0.0938 -0.1952 -0.8637
 8318TIP3    H246370   5.556   3.332   1.693 -1.1436 -0.9511  0.5281
 8319TIP3   OH246371   0.071   4.635   4.868 -0.6439  0.0309  0.0077
 8319TIP3    H146372   0.011   4.566   4.839 -0.2596 -0.0340 -0.6690
 8319TIP3    H246373   0.158   4.602   4.846 -0.3747  0.2526  0.7106
 8320TIP3   OH246374   5.753   0.439  14.870  0.0462  0.3508 -0.8212
 8320TIP3    H146375   5.708   0.356  14.851  0.1244  0.0829  0.1201
 8320TIP3    H246376   5.790   0.465  14.786 -0.5036 -0.2508 -1.2698
 8321TIP3   OH246377   3.954   6.360   4.916  0.5285  0.1428  0.0733
 8321TIP3    H146378   3.975   6.389   5.005 -1.2750 -2.4421  1.4656
 8321TIP3    H246379   4.001   6.277   4.906 -0.3651 -0.2757 -0.8377
 8322TIP3   OH246380   5.962   0.577  12.546 -0.4964 -0.4125  0.2999
 8322TIP3    H146381   5.961   0.650  12.608 -1.2379 -0.2378  0.1016
 8322TIP3    H246382   5.869   0.559  12.530 -0.3243 -0.1781 -1.0861
 8323TIP3   OH246383   3.509   2.949   2.343  0.2863 -0.1103 -0.5787
 8323TIP3    H146384   3.580   2.994   2.296 -0.1366 -1.4453 -2.6221
 8323TIP3    H246385   3.478   2.883   2.281 -1.7846 -0.5244  0.8151
 8324TIP3   OH246386   0.809   6.476  17.032  0.3522  0.6246  0.3500
 8324TIP3    H146387   0.807   6.544  16.965 -1.1685 -0.6489 -0.9879
 8324TIP3    H246388   0.721   6.437  17.029  0.9796 -0.9834  1.4958
 8325TIP3   OH246389   3.987   0.318   4.179  0.0723 -0.0958  0.3368
 8325TIP3    H146390   3.980   0.318   4.084 -1.2204  0.6785  0.4130
 8325TIP3    H246391   3.967   0.228   4.205 -0.7994 -0.0139 -0.0470
 8326TIP3   OH246392   0.027   0.995  16.653 -0.5181 -0.1574 -0.3022
 8326TIP3    H146393  -0.047   0.938  16.635  0.0004 -0.6803 -0.8516
 8326TIP3    H246394   0.104   0.939  16.642 -0.0483  0.2472  0.7473
 8327TIP3   OH246395   3.158   3.563   6.030  0.3161 -0.0030  0.8465
 8327TIP3    H146396   3.226   3.515   6.078  0.4585 -2.4607 -1.5642
 8327TIP3    H246397   3.087   3.574   6.093  1.1443 -1.5380  2.1315
 8328TIP3   OH246398   1.024   0.025  10.607 -0.2613  0.5265 -0.4571
 8328TIP3    H146399   1.013  -0.048  10.546 -2.4335  1.1405 -0.8626
 8328TIP3    H246400   1.113   0.013  10.642 -0.3735 -2.0465 -0.8232
 8329TIP3   OH246401   6.594   2.496  16.887 -0.4866 -0.3266  0.1573
 8329TIP3    H146402   6.655   2.454  16.948  0.0248  1.5693  1.0015
 8329TIP3    H246403   6.508   2.466  16.916 -0.3510  1.3703  2.5681
 8330TIP3   OH246404   6.533   3.672  15.713 -0.4260  0.3946 -0.2679
 8330TIP3    H146405   6.500   3.745  15.766  0.1789  0.5308 -0.0737
 8330TIP3    H246406   6.624   3.662  15.739 -0.4178 -0.2405 -0.5126
 8331TIP3   OH246407   1.827   5.164   5.488  0.3108  0.5281 -0.4742
 8331TIP3    H146408   1.801   5.091   5.544  1.1945  0.8486  0.3865
 8331TIP3    H246409   1.876   5.123   5.416 -1.7567  0.0027 -1.6795
 8332TIP3   OH246410   4.563   6.716  14.836 -0.4937 -0.5018  0.2549
 8332TIP3    H146411   4.501   6.777  14.796 -1.5473 -0.5647  1.7246
 8332TIP3    H246412   4.645   6.730  14.787 -1.4037  0.2124 -1.1341
 8333TIP3   OH246413   6.362   4.641  13.139  0.0096  0.4448 -0.3554
 8333TIP3    H146414   6.279   4.595  13.128  0.2773 -0.9732  2.4491
 8333TIP3    H246415   6.416   4.612  13.065 -1.6087  0.5141 -1.5920
 8334TIP3   OH246416   2.192   5.698  13.140 -0.0644 -0.0692 -0.3354
 8334TIP3    H146417   2.285   5.689  13.157 -0.4223  0.0712  2.0923
 8334TIP3    H246418   2.149   5.657  13.215 -1.9658 -0.0972 -1.3579
 8335TIP3   OH246419   1.133   4.060   0.505  0.0882  0.2547 -0.1745
 8335TIP3    H146420   1.166   4.127   0.444  0.1967 -0.1467 -0.5661
 8335TIP3    H246421   1.038   4.073   0.506 -0.3117 -1.5610 -2.7248
 8336TIP3   OH246422   4.171   0.090   5.200  0.2469  0.4516 -0.0885
 8336TIP3    H146423   4.239   0.078   5.133  0.9336  1.4866  0.4032
 8336TIP3    H246424   4.124   0.006   5.200  2.4972 -0.9136  0.6184
 8337TIP3   OH246425   4.943   5.698   3.407  0.5232 -0.0897 -0.1395
 8337TIP3    H146426   4.864   5.747   3.428  1.3995  1.1410  0.4126
 8337TIP3    H246427   4.982   5.679   3.493 -0.4076 -2.9158 -0.2192
 8338TIP3   OH246428   5.761   6.396   1.426  0.2859  0.1098 -0.0097
 8338TIP3    H146429   5.820   6.471   1.417 -0.1078  0.8027  2.3717
 8338TIP3    H246430   5.680   6.424   1.383 -0.0583  1.3597  1.3574
 8339TIP3   OH246431   5.209   5.267   1.494 -0.3958  0.5231  0.0545
 8339TIP3    H146432   5.258   5.342   1.460 -0.5857  0.6613  0.0806
 8339TIP3    H246433   5.129   5.265   1.442 -0.8312  0.9246  0.6911
 8340TIP3   OH246434   1.187   1.859  12.307  0.6164 -0.4668  0.4019
 8340TIP3    H146435   1.225   1.787  12.356  0.0218 -0.6392  0.6226
 8340TIP3    H246436   1.132   1.905  12.371  0.8279  0.0589  0.2135
 8341TIP3   OH246437   4.317   4.185   1.655 -0.0152  0.0850 -0.3233
 8341TIP3    H146438   4.356   4.236   1.726  0.4747  0.2714 -0.7243
 8341TIP3    H246439   4.318   4.095   1.688  1.4786 -0.0349 -0.6180
 8342TIP3   OH246440   1.212   2.675   0.560  0.3623  0.3044  0.7938
 8342TIP3    H146441   1.214   2.667   0.465  1.4895  1.1195  0.7363
 8342TIP3    H246442   1.182   2.764   0.577  0.2630  0.1978  1.1973
 8343TIP3   OH246443   2.997   0.530  13.780 -0.7771 -0.0842  0.1869
 8343TIP3    H146444   2.922   0.480  13.748 -0.1713 -1.2229  0.4989
 8343TIP3    H246445   2.978   0.620  13.755 -0.9814 -0.7249 -2.1991
 8344TIP3   OH246446   0.208   3.079   3.433 -0.3494 -0.2549  0.0496
 8344TIP3    H146447   0.253   3.158   3.462 -1.1763  0.5009 -0.6674
 8344TIP3    H246448   0.242   3.064   3.344 -2.2649  0.9706 -0.9492
 8345TIP3   OH246449   4.917   2.738   2.877  0.5464  0.6717  0.0848
 8345TIP3    H146450   5.008   2.767   2.890  0.5578  0.6379  0.0793
 8345TIP3    H246451   4.908   2.662   2.935 -0.0306  1.8024  1.5534
 8346TIP3   OH246452   4.017   5.596  14.510 -0.0570 -0.1925 -0.4968
 8346TIP3    H146453   3.978   5.654  14.575  0.8390 -0.7668  0.5983
 8346TIP3    H246454   4.057   5.655  14.446 -0.2932  0.3900 -0.1191
 8347TIP3   OH246455   2.465   6.043   4.922 -0.0992  0.0301  0.1529
 8347TIP3    H146456   2.485   5.978   4.855  3.3888  0.2799  0.7787
 8347TIP3    H246457   2.399   6.099   4.882 -0.5841 -1.7540 -1.7424
 8348TIP3   OH246458   2.807   0.714   4.503  0.1680  0.6536  0.1109
 8348TIP3    H146459   2.780   0.630   4.466 -1.3147  1.6884 -1.3605
 8348TIP3    H246460   2.807   0.774   4.428  0.2062  2.1706  1.2715
 8349TIP3   OH246461   0.989   0.471   0.474  0.1421 -0.1165 -0.0337
 8349TIP3    H146462   0.917   0.531   0.496 -1.6218 -2.0863 -0.1454
 8349TIP3    H246463   1.019   0.500   0.388  0.0977  1.2687  0.3966
 8350TIP3   OH246464   6.036   1.575  15.421  0.0749  0.1260  0.1092
 8350TIP3    H146465   6.116   1.608  15.380  0.0363 -2.1811 -2.1088
 8350TIP3    H246466   6.065   1.503  15.475 -0.2462  1.1778  1.7443
 8351TIP3   OH246467   5.454   3.802  13.975  0.0179 -0.1729  0.0114
 8351TIP3    H146468   5.408   3.754  14.043 -0.2239 -1.0244 -0.7342
 8351TIP3    H246469   5.537   3.827  14.015 -0.3475 -0.1883  0.7891
 8352TIP3   OH246470   2.250   1.363  11.519 -0.0153  0.3912  0.7618
 8352TIP3    H146471   2.233   1.370  11.425  1.6728 -1.6037  0.2219
 8352TIP3    H246472   2.229   1.449  11.554 -1.0664  1.0746 -1.3713
 8353TIP3   OH246473   3.076   0.121  11.558 -0.4304  0.0169  0.0490
 8353TIP3    H146474   3.044   0.085  11.476  0.3109 -0.0542 -0.2163
 8353TIP3    H246475   3.165   0.151  11.538 -0.3578  0.2783  0.7421
 8354TIP3   OH246476   1.637   2.632  14.737  0.2686 -0.1043 -0.1692
 8354TIP3    H146477   1.712   2.605  14.683  0.7863  0.5574  0.2144
 8354TIP3    H246478   1.645   2.578  14.816 -0.1198 -0.6033 -0.4619
 8355TIP3   OH246479   0.239   3.607   0.584  0.1913 -0.2765  0.0405
 8355TIP3    H146480   0.205   3.680   0.532 -0.1595 -0.6056 -0.2016
 8355TIP3    H246481   0.315   3.642   0.629  0.5978 -0.0270 -0.8254
 8356TIP3   OH246482   6.706   5.075  11.209  0.4788 -0.2543 -0.2437
 8356TIP3    H146483   6.750   4.996  11.240 -0.2188 -0.7580 -0.5108
 8356TIP3    H246484   6.640   5.043  11.148  0.6549  0.5906 -0.8964
 8357TIP3   OH246485   5.801   1.190  13.929  0.6716 -0.7096 -0.1027
 8357TIP3    H146486   5.813   1.109  13.879  0.8725 -0.7775  0.0499
 8357TIP3    H246487   5.805   1.260  13.864 -3.4766 -0.9533 -0.8925
 8358TIP3   OH246488   0.904   4.157  15.541  0.1056  0.3083 -0.1342
 8358TIP3    H146489   0.933   4.102  15.613 -0.8474  1.1127  0.9083
 8358TIP3    H246490   0.831   4.208  15.578  0.8107  2.1078 -1.0905
 8359TIP3   OH246491   1.070   5.400   4.151 -0.5491 -0.0656 -0.3102
 8359TIP3    H146492   0.983   5.360   4.161 -0.0302 -1.4651 -1.0286
 8359TIP3    H246493   1.101   5.367   4.067  0.3253  1.1448 -0.4822
 8360TIP3   OH246494   6.541   1.631  15.318  0.5660 -0.2573  0.7790
 8360TIP3    H146495   6.518   1.722  15.338  1.4221  0.1677 -0.0839
 8360TIP3    H246496   6.488   1.579  15.378 -1.7470  0.7120 -0.3144
 8361TIP3   OH246497   3.278   5.303   0.427 -0.7155  0.1815 -0.0083
 8361TIP3    H146498   3.209   5.245   0.460 -0.4830  0.0249  0.2087
 8361TIP3    H246499   3.296   5.362   0.500  0.6810 -0.9674  0.6154
 8362TIP3   OH246500   5.866   1.023  11.376 -0.1450 -0.9476 -0.7265
 8362TIP3    H146501   5.795   1.017  11.312 -0.3949  0.3054 -0.5762
 8362TIP3    H246502   5.945   1.035  11.324  0.1872 -3.5235 -0.9711
 8363TIP3   OH246503   3.218   6.391   4.155 -0.2543 -0.0829  0.0931
 8363TIP3    H146504   3.280   6.455   4.120  0.2559 -0.0270  1.0830
 8363TIP3    H246505   3.226   6.399   4.250 -1.2656 -0.5788  0.2289
 8364TIP3   OH246506   0.881   5.930   5.694 -0.3291 -0.4229 -0.3572
 8364TIP3    H146507   0.960   5.977   5.721  0.0968 -1.5118  0.3612
 8364TIP3    H246508   0.863   5.870   5.765 -2.9519  1.0963  0.4223
 8365TIP3   OH246509   0.410   0.685   2.433 -0.0841 -0.0470 -0.0284
 8365TIP3    H146510   0.413   0.606   2.377 -2.7909 -1.4646  1.6284
 8365TIP3    H246511   0.415   0.758   2.371 -0.0952 -1.5232 -1.8813
 8366TIP3   OH246512   3.603   3.454   4.943 -0.0816 -0.8975  0.5018
 8366TIP3    H146513   3.589   3.408   5.026 -3.7529  2.1106  1.8660
 8366TIP3    H246514   3.524   3.437   4.892 -0.2229  1.3757 -0.1553
 8367TIP3   OH246515   6.510   1.192   6.435  0.1240 -0.0597  0.2420
 8367TIP3    H146516   6.594   1.171   6.393  0.3112 -3.2856  1.9498
 8367TIP3    H246517   6.520   1.284   6.461  2.3250  0.2467 -1.3686
 8368TIP3   OH246518   0.118   0.012  12.294  0.6334  0.0293  0.2408
 8368TIP3    H146519   0.041   0.018  12.238 -0.0893  0.8393  1.2689
 8368TIP3    H246520   0.151  -0.077  12.281 -0.3533 -0.2611 -0.3780
 8369TIP3   OH246521   6.683   0.671   2.591 -0.3692  0.3674 -0.1677
 8369TIP3    H146522   6.647   0.615   2.660 -1.8657  0.8041 -0.5628
 8369TIP3    H246523   6.730   0.740   2.639  2.0411 -1.4824  0.3188
 8370TIP3   OH246524   4.145   4.692  14.673 -0.4391 -0.3185 -0.1675
 8370TIP3    H146525   4.227   4.643  14.667  0.1747  0.4960  1.2483
 8370TIP3    H246526   4.086   4.645  14.614  0.1212 -2.7669  1.0498
 8371TIP3   OH246527   3.766   0.551   3.209  0.2234 -0.1604  1.0847
 8371TIP3    H146528   3.759   0.635   3.164  1.4794  0.0378  1.2237
 8371TIP3    H246529   3.795   0.573   3.297 -0.2059 -0.6845  1.3602
 8372TIP3   OH246530   1.601   1.897  15.530  0.0655 -0.1053 -0.1207
 8372TIP3    H146531   1.668   1.959  15.501 -0.2824 -0.3523 -1.5174
 8372TIP3    H246532   1.643   1.848  15.601  1.0939  0.2846 -0.4401
 8373TIP3   OH246533   2.189   1.029   3.356  0.3931  0.2889  0.0330
 8373TIP3    H146534   2.277   0.992   3.345 -0.4848 -2.3547  1.0596
 8373TIP3    H246535   2.171   1.018   3.449 -0.4006  2.4478  0.1846
 8374TIP3   OH246536   5.529   2.266  15.353 -0.7359  0.3123  0.0158
 8374TIP3    H146537   5.445   2.239  15.318  0.1233 -0.4554 -1.5317
 8374TIP3    H246538   5.561   2.190  15.402  0.3952 -0.5679 -1.9671
 8375TIP3   OH246539   2.960   1.397  14.857 -0.3141 -0.7325  0.1799
 8375TIP3    H146540   2.968   1.301  14.850  1.8654 -0.7967  2.3483
 8375TIP3    H246541   2.959   1.414  14.951  0.0379  1.4317 -0.1639
 8376TIP3   OH246542   4.927   0.561   3.172  0.1145  0.3371 -0.3046
 8376TIP3    H146543   4.841   0.589   3.203 -0.0181 -0.2037 -0.1830
 8376TIP3    H246544   4.957   0.497   3.236  1.0546  1.2531  0.2037
 8377TIP3   OH246545   1.797   0.126   0.745  0.3042 -0.2214  0.3416
 8377TIP3    H146546   1.746   0.190   0.696 -1.9166 -1.3745  1.0276
 8377TIP3    H246547   1.879   0.171   0.765 -0.6478  1.9150 -0.3219
 8378TIP3   OH246548   0.989   5.069   0.578 -0.0689  0.3142 -0.8131
 8378TIP3    H146549   0.923   5.102   0.639 -1.4088 -0.4384 -1.8282
 8378TIP3    H246550   1.042   5.009   0.631  0.5677  1.7922  0.2961
 8379TIP3   OH246551   6.718   1.937   1.791  0.2118 -0.1782 -0.3228
 8379TIP3    H146552   6.807   1.971   1.789  0.5299 -1.0234 -0.9895
 8379TIP3    H246553   6.715   1.880   1.868  0.1081  0.1804 -0.0547
 8380TIP3   OH246554   0.388   1.992   5.119 -0.1398  0.8905 -0.4522
 8380TIP3    H146555   0.361   1.933   5.049 -0.0923  0.6657 -0.2814
 8380TIP3    H246556   0.481   1.974   5.131  0.1553  1.8337 -1.2063
 8381TIP3   OH246557   2.906   0.819  15.072 -0.2372 -0.0892  0.1969
 8381TIP3    H146558   2.949   0.768  15.140 -1.2206  0.4408  1.2588
 8381TIP3    H246559   2.973   0.880  15.042  0.2428 -0.4008  0.6163
 8382TIP3   OH246560   6.409   6.536   3.387  0.3458 -0.1583 -0.3451
 8382TIP3    H146561   6.479   6.572   3.442  0.6768 -0.8037 -0.3338
 8382TIP3    H246562   6.374   6.612   3.340  1.4035  0.1083 -0.7469
 8383TIP3   OH246563   0.433   5.787   4.339  0.2099 -0.8013  0.2974
 8383TIP3    H146564   0.452   5.694   4.333 -1.1096 -1.2202  1.7816
 8383TIP3    H246565   0.340   5.795   4.316  0.0561 -0.0198  1.0835
 8384TIP3   OH246566   0.569   2.596   0.361  0.2520  0.1268  0.1643
 8384TIP3    H146567   0.531   2.585   0.274  0.5441 -2.4437  0.2730
 8384TIP3    H246568   0.506   2.650   0.409 -0.2886  0.9194 -1.3897
 8385TIP3   OH246569   2.752   0.516   4.297  0.2462 -0.2605 -0.2184
 8385TIP3    H146570   2.771   0.444   4.357  2.0596  0.9752  0.7860
 8385TIP3    H246571   2.671   0.489   4.253 -1.2516 -1.2493  2.7975
 8386TIP3   OH246572   3.444   3.066  11.846  0.4855  1.0167 -0.3253
 8386TIP3    H146573   3.368   3.072  11.789 -0.3881  0.2243  0.7016
 8386TIP3    H246574   3.512   3.026  11.792  0.0527  1.3618 -1.1342
 8387TIP3   OH246575   1.640   5.781  16.087  0.0979  0.2667 -0.2056
 8387TIP3    H146576   1.635   5.858  16.029 -0.1421  0.7912  0.4914
 8387TIP3    H246577   1.632   5.818  16.175  0.5251 -0.5146  0.1626
 8388TIP3   OH246578   0.303   6.636   4.937  0.7585  0.0833  0.0837
 8388TIP3    H146579   0.214   6.669   4.926 -0.1878 -2.0360  0.9280
 8388TIP3    H246580   0.311   6.568   4.871  0.8685 -1.3841  1.5604
 8389TIP3   OH246581   1.610   4.489   3.254 -0.6073 -0.2084 -1.1300
 8389TIP3    H146582   1.603   4.565   3.313  3.2317  0.7984 -1.6962
 8389TIP3    H246583   1.563   4.419   3.299 -1.9633  1.7752  0.7301
 8390TIP3   OH246584   1.930   6.147  14.990  0.2562 -0.4435  0.2618
 8390TIP3    H146585   1.855   6.097  14.958  0.2511  0.7411 -1.7429
 8390TIP3    H246586   1.975   6.177  14.911  0.7066  1.9927  1.3273
 8391TIP3   OH246587   0.264   1.443  12.330  0.0199 -0.4515  0.2128
 8391TIP3    H146588   0.282   1.479  12.417 -4.0330  0.7560  0.7716
 8391TIP3    H246589   0.199   1.374  12.346 -0.2632 -0.6879 -1.7732
 8392TIP3   OH246590   4.887   1.767  12.665  0.2768 -0.1174 -0.2686
 8392TIP3    H146591   4.943   1.801  12.735 -1.1160 -0.1629  0.9173
 8392TIP3    H246592   4.935   1.693  12.629  0.9590 -0.1853  0.7549
 8393TIP3   OH246593   5.389   0.163  13.686 -0.2202  0.0705  0.1451
 8393TIP3    H146594   5.359   0.082  13.727 -0.2394 -0.1153 -0.2357
 8393TIP3    H246595   5.365   0.154  13.594  1.5131 -0.3159 -0.2891
 8394TIP3   OH246596   2.674   4.739  16.398 -0.0487 -0.2211 -0.6458
 8394TIP3    H146597   2.760   4.710  16.366  0.7323  1.0583  0.1665
 8394TIP3    H246598   2.664   4.697  16.483 -0.7754 -1.2937 -1.2515
 8395TIP3   OH246599   0.907   3.265   3.191 -0.0296  0.2082  0.8304
 8395TIP3    H146600   0.830   3.212   3.171 -0.1260  0.5766  0.1779
 8395TIP3    H246601   0.981   3.212   3.161 -0.1974  0.9316 -0.9891
 8396TIP3   OH246602   5.154   1.401  12.533  0.3403 -0.1606 -0.2389
 8396TIP3    H146603   5.218   1.375  12.599 -0.3696  0.0515  0.5585
 8396TIP3    H246604   5.069   1.389  12.576 -0.2377 -1.4928 -1.6300
 8397TIP3   OH246605   3.994   3.414   3.001 -0.0103  0.1752 -0.1465
 8397TIP3    H146606   4.013   3.387   2.911  0.0593 -0.4447  0.0511
 8397TIP3    H246607   3.931   3.350   3.033 -1.5459  1.5209 -0.3883
 8398TIP3   OH246608   4.896   2.471   1.214  0.1224 -0.0877 -0.2631
 8398TIP3    H146609   4.920   2.442   1.126  0.2244 -1.0701  0.0780
 8398TIP3    H246610   4.875   2.391   1.261 -1.7406  0.5668  0.0856
 8399TIP3   OH246611   0.232   0.933  12.094 -0.5422 -0.0388 -0.2131
 8399TIP3    H146612   0.157   0.887  12.057 -1.3580  0.2921  0.9732
 8399TIP3    H246613   0.218   0.930  12.189 -0.8194  2.9393 -0.0807
 8400TIP3   OH246614   1.621   3.508  13.330 -0.0686 -0.4999 -0.6888
 8400TIP3    H146615   1.533   3.490  13.297 -0.3579 -0.2653 -0.0501
 8400TIP3    H246616   1.628   3.456  13.410  0.1578 -0.0606 -0.4211
 8401TIP3   OH246617   3.282   1.086  16.749  0.4415  0.1346 -0.2086
 8401TIP3    H146618   3.241   1.151  16.692  1.5872 -0.1656 -1.4085
 8401TIP3    H246619   3.333   1.031  16.690 -1.5125 -2.7331  0.5215
 8402TIP3   OH246620   5.418   2.174   3.720 -0.2474  0.4284 -0.2076
 8402TIP3    H146621   5.407   2.086   3.684 -0.5151 -0.1750  1.2784
 8402TIP3    H246622   5.490   2.212   3.669 -0.0897 -0.6683 -0.8280
 8403TIP3   OH246623   1.068   1.609  11.798  0.1409 -0.3404  0.2838
 8403TIP3    H146624   0.979   1.643  11.788  0.3829 -0.0248 -0.9020
 8403TIP3    H246625   1.092   1.579  11.710  0.9659 -1.0346  0.7304
 8404TIP3   OH246626   2.045   5.782  14.521  0.2286 -0.0508 -0.0590
 8404TIP3    H146627   2.033   5.700  14.473  1.2319  0.2010 -0.7869
 8404TIP3    H246628   1.957   5.806  14.549 -0.4747 -0.0931 -2.0234
 8405TIP3   OH246629   4.055   3.476  12.858 -0.0850  0.1536 -0.6471
 8405TIP3    H146630   4.146   3.502  12.843 -0.2433  0.5628 -0.9329
 8405TIP3    H246631   4.032   3.515  12.942 -0.6356  1.8665 -1.5303
 8406TIP3   OH246632   3.753   1.348   0.550 -0.6994  0.0341 -0.3422
 8406TIP3    H146633   3.809   1.418   0.582 -0.4944  1.3190 -3.2555
 8406TIP3    H246634   3.733   1.296   0.628  1.5519  1.6009  1.3992
 8407TIP3   OH246635   3.944   6.809   4.694  0.8501  0.4560  0.2254
 8407TIP3    H146636   3.974   6.831   4.782  2.2475  1.8027 -0.5335
 8407TIP3    H246637   3.914   6.893   4.657 -0.5588 -0.2372 -0.3016
 8408TIP3   OH246638   2.018   6.171  15.685  0.3214 -0.2206  0.0939
 8408TIP3    H146639   1.947   6.205  15.738  0.2026 -0.7446  0.2754
 8408TIP3    H246640   1.979   6.155  15.599  1.0481  2.9017 -0.9519
 8409TIP3   OH246641   5.459   4.644  15.062  0.1668  0.8449  0.3802
 8409TIP3    H146642   5.492   4.636  15.152 -0.3162  2.1188  0.6952
 8409TIP3    H246643   5.395   4.715  15.066 -0.6976  0.1766 -0.7553
 8410TIP3   OH246644   6.739   0.253   4.291 -0.4124 -0.5549 -0.0225
 8410TIP3    H146645   6.742   0.160   4.316 -1.1499 -1.0337 -1.6009
 8410TIP3    H246646   6.710   0.297   4.371  2.9426 -1.2238  1.7314
 8411TIP3   OH246647   1.928   2.745   0.071 -0.3412 -0.2497  0.4936
 8411TIP3    H146648   2.009   2.705   0.041  0.1921  0.3269  1.1150
 8411TIP3    H246649   1.913   2.818   0.011  0.0529  0.1455  0.8692
 8412TIP3   OH246650   5.362   0.283   4.774 -0.3743 -0.2183 -0.1639
 8412TIP3    H146651   5.292   0.250   4.830 -1.3630 -0.0688 -1.2693
 8412TIP3    H246652   5.347   0.377   4.770  1.4835  0.2499  1.6857
 8413TIP3   OH246653   3.928   2.243  12.428 -0.6271  0.0077  0.0547
 8413TIP3    H146654   3.900   2.209  12.514 -0.4010 -0.8336 -0.1937
 8413TIP3    H246655   3.911   2.171  12.368  0.1768  0.2212 -0.4412
 8414TIP3   OH246656   1.558   2.575   4.460 -0.7093 -0.1415  0.5629
 8414TIP3    H146657   1.575   2.490   4.500 -0.5246 -0.0679  0.6410
 8414TIP3    H246658   1.512   2.625   4.528  0.1592  0.1986  0.9083
 8415TIP3   OH246659   3.320   4.586   2.903 -0.0724 -0.0446 -0.5501
 8415TIP3    H146660   3.353   4.637   2.829  0.5024 -1.2955 -1.2064
 8415TIP3    H246661   3.236   4.551   2.873  0.0341 -0.3322 -0.5246
 8416TIP3   OH246662   2.464   0.084   0.542 -0.3432 -0.0845 -0.8282
 8416TIP3    H146663   2.452   0.178   0.555 -0.8860 -0.1701 -0.6836
 8416TIP3    H246664   2.378   0.052   0.515 -1.0373 -1.0153  2.0789
 8417TIP3   OH246665   4.090   0.439   4.583 -0.1635 -0.5217  0.5842
 8417TIP3    H146666   4.113   0.527   4.612 -0.1283 -0.8938  1.7218
 8417TIP3    H246667   4.169   0.387   4.599  0.0662 -0.6266 -0.7530
 8418TIP3   OH246668   6.607   2.466  11.348  0.5141 -0.7820  0.7140
 8418TIP3    H146669   6.654   2.503  11.422 -0.5744  2.1435  0.0520
 8418TIP3    H246670   6.525   2.433  11.385  0.7037 -0.8891  1.0402
 8419TIP3   OH246671   0.872   3.469   4.132  0.0047 -0.0574 -0.4377
 8419TIP3    H146672   0.808   3.534   4.162 -1.2523 -0.9166 -1.1201
 8419TIP3    H246673   0.852   3.391   4.183 -0.5362 -0.7909 -1.7192
 8420TIP3   OH246674   5.898   2.204  14.170 -0.0239 -0.1425  0.3935
 8420TIP3    H146675   5.899   2.193  14.265  1.9889  0.3104  0.4861
 8420TIP3    H246676   5.917   2.116  14.136  1.7706  0.1340  0.5599
 8421TIP3   OH246677   3.925   5.548   1.126 -0.4462 -0.6363 -0.0895
 8421TIP3    H146678   4.005   5.496   1.118  0.3918  0.7799 -1.2984
 8421TIP3    H246679   3.860   5.498   1.077 -0.2022 -1.5366  0.4620
 8422TIP3   OH246680   5.990   2.539  15.892 -0.2139  0.1881 -0.5590
 8422TIP3    H146681   6.043   2.567  15.818  2.1394 -0.3067  0.7985
 8422TIP3    H246682   6.029   2.584  15.967 -1.7331 -0.2382  0.5210
 8423TIP3   OH246683   6.296   0.722  11.834  0.7672  0.5139 -0.2206
 8423TIP3    H146684   6.292   0.803  11.884  1.1053 -0.8446  2.1682
 8423TIP3    H246685   6.389   0.699  11.833  0.4645 -1.0477  1.3569
 8424TIP3   OH246686   5.054   1.235   5.544 -0.4622  0.2461  0.4197
 8424TIP3    H146687   5.107   1.164   5.581 -0.0457  0.0692 -0.4950
 8424TIP3    H246688   5.117   1.292   5.500 -0.8449  0.9627  0.7876
 8425TIP3   OH246689   6.626   6.314   0.648 -0.0324  0.0431  0.6702
 8425TIP3    H146690   6.611   6.376   0.719 -0.9681 -0.4439  0.8989
 8425TIP3    H246691   6.682   6.362   0.586 -0.8964  1.1898  0.7513
 8426TIP3   OH246692   4.114   0.971  13.026 -0.0994  0.1912  0.0036
 8426TIP3    H146693   4.056   0.918  13.081 -1.1688 -2.5149 -3.3094
 8426TIP3    H246694   4.201   0.935  13.040 -0.5411 -1.2901 -0.7859
 8427TIP3   OH246695   0.187   1.147   4.298 -0.3466  0.1187 -0.1869
 8427TIP3    H146696   0.118   1.083   4.315  0.1444 -0.3395  0.1293
 8427TIP3    H246697   0.245   1.141   4.374  0.8990 -0.6502 -1.1450
 8428TIP3   OH246698   2.407   4.806  11.868  0.0089  0.1515 -0.0156
 8428TIP3    H146699   2.398   4.779  11.960  0.1213  0.2179  0.0152
 8428TIP3    H246700   2.438   4.897  11.873 -3.4029  1.4328 -0.1045
 8429TIP3   OH246701   6.299   4.552   0.442  0.2246  0.1330  0.5842
 8429TIP3    H146702   6.217   4.504   0.431  0.7591 -0.3824 -1.5371
 8429TIP3    H246703   6.327   4.573   0.353  1.6727  1.5818  1.3200
 8430TIP3   OH246704   4.081   2.426   1.754 -0.3165 -0.0629  0.6156
 8430TIP3    H146705   3.999   2.394   1.716 -0.1219  0.9982 -0.7647
 8430TIP3    H246706   4.053   2.478   1.830 -0.8743 -0.2776  0.5628
 8431TIP3   OH246707   1.150   1.094   0.596  0.2068 -0.5890 -0.4193
 8431TIP3    H146708   1.072   1.051   0.562  0.9743 -1.0520 -1.6543
 8431TIP3    H246709   1.131   1.107   0.689 -1.5880 -0.1048 -0.8029
 8432TIP3   OH246710   1.024   5.657   4.029 -0.6336 -0.4097  0.6529
 8432TIP3    H146711   1.030   5.566   4.056 -1.6538 -0.4736  0.6918
 8432TIP3    H246712   1.083   5.704   4.089 -0.3809 -0.9825  0.8610
 8433TIP3   OH246713   4.684   4.754  15.207 -0.2451 -0.0262  0.0650
 8433TIP3    H146714   4.665   4.711  15.290  0.0140 -1.1090 -0.4129
 8433TIP3    H246715   4.715   4.683  15.150 -1.0463  0.5800 -1.1580
 8434TIP3   OH246716   0.219   0.573   2.885  0.1836  0.4916 -0.2997
 8434TIP3    H146717   0.251   0.625   2.812  2.5066 -0.4965 -0.1045
 8434TIP3    H246718   0.224   0.482   2.854 -0.5717  0.1753  0.4583
 8435TIP3   OH246719   2.638   1.373   2.541  0.1490 -0.2826 -0.3279
 8435TIP3    H146720   2.692   1.377   2.462  1.2868  1.5477  0.4661
 8435TIP3    H246721   2.569   1.437   2.526 -0.6306 -1.1600 -0.5168
 8436TIP3   OH246722   1.601   4.071   2.392  0.1825 -1.1196 -0.2737
 8436TIP3    H146723   1.683   4.071   2.443  0.3485 -1.7261 -0.5294
 8436TIP3    H246724   1.566   3.983   2.403 -0.0835 -1.0751 -0.7297
 8437TIP3   OH246725   1.619   0.429  15.749 -0.0271  0.3157 -0.2354
 8437TIP3    H146726   1.659   0.501  15.700  0.8245  0.3505  0.4746
 8437TIP3    H246727   1.525   0.437  15.732 -0.2124  2.8703  1.4212
 8438TIP3   OH246728   4.457   0.205  14.113 -0.3134 -0.1192 -0.3586
 8438TIP3    H146729   4.470   0.299  14.100 -1.2625 -0.2297 -2.4356
 8438TIP3    H246730   4.505   0.185  14.194 -0.7387  2.2738  0.5513
 8439TIP3   OH246731   1.614   1.307   3.220  0.0688 -0.5313 -0.0635
 8439TIP3    H146732   1.558   1.232   3.238  2.0112 -2.2879 -0.9252
 8439TIP3    H246733   1.579   1.345   3.140 -1.8363  0.4940  1.1668
 8440TIP3   OH246734   4.105   2.936   3.725 -0.3029 -0.4437  0.3452
 8440TIP3    H146735   4.123   3.029   3.706  3.8758 -0.5127  2.6494
 8440TIP3    H246736   4.146   2.889   3.652 -2.0754 -0.5873 -0.6156
 8441TIP3   OH246737   6.485   3.376   3.528  0.2813  0.0115  0.3139
 8441TIP3    H146738   6.560   3.387   3.470 -0.0733  0.1610 -0.1356
 8441TIP3    H246739   6.441   3.462   3.525  0.1129 -0.0649  0.5898
 8442TIP3   OH246740   5.093   1.711   4.477 -0.0468 -0.3993  0.0969
 8442TIP3    H146741   5.183   1.723   4.507  0.3871 -0.9890 -0.9219
 8442TIP3    H246742   5.058   1.644   4.537 -0.3735  1.0194  1.5591
 8443TIP3   OH246743   0.453   1.868   4.808  0.0733  0.0988  0.5216
 8443TIP3    H146744   0.538   1.871   4.764  1.0524  1.5000  2.4059
 8443TIP3    H246745   0.393   1.909   4.745  0.6480 -1.2135 -0.9729
 8444TIP3   OH246746   4.038   6.630  13.148 -0.5676  0.3249  0.1043
 8444TIP3    H146747   3.980   6.706  13.151 -0.1524  0.7013 -1.0505
 8444TIP3    H246748   4.105   6.652  13.083  0.2247 -0.5626  0.5898
 8445TIP3   OH246749   0.278   0.784   3.664  0.4529  0.5767  0.4055
 8445TIP3    H146750   0.289   0.749   3.576 -0.7435  1.6255 -0.1983
 8445TIP3    H246751   0.331   0.864   3.665  0.6769  0.4254  0.7267
 8446TIP3   OH246752   1.518   0.784   2.707 -0.1407  0.2040  0.0742
 8446TIP3    H146753   1.561   0.709   2.747  2.3057  0.3495 -2.0724
 8446TIP3    H246754   1.551   0.860   2.755  0.3180  0.1576 -0.1653
 8447TIP3   OH246755   2.179   1.966  12.040  0.3256  0.0861 -0.4567
 8447TIP3    H146756   2.210   2.057  12.038  0.1669  0.1892  0.7391
 8447TIP3    H246757   2.162   1.949  12.133 -0.9741 -0.7198 -0.8194
 8448TIP3   OH246758   1.228   6.305   1.925 -0.3780  0.1399  0.5714
 8448TIP3    H146759   1.133   6.303   1.926 -0.4662  1.3889 -1.2125
 8448TIP3    H246760   1.252   6.368   1.993 -0.8429 -0.0162  0.8767
 8449TIP3   OH246761   5.382   5.831   4.094  0.5656  0.1293  0.4660
 8449TIP3    H146762   5.411   5.756   4.145  2.5411 -0.4489 -1.3752
 8449TIP3    H246763   5.341   5.793   4.016 -2.2035  0.9896  1.3896
 8450TIP3   OH246764   2.545   0.021   4.748 -0.3424 -0.1351 -0.1078
 8450TIP3    H146765   2.541   0.051   4.839  0.8410  2.2929 -0.7642
 8450TIP3    H246766   2.636  -0.007   4.735 -0.2801  0.3317 -0.7496
 8451TIP3   OH246767   3.046   5.449  17.195  0.2236 -1.0882  0.7921
 8451TIP3    H146768   3.114   5.440  17.129  0.3520 -1.2706  0.9470
 8451TIP3    H246769   2.968   5.409  17.155  0.2266 -0.9449  0.6424
 8452TIP3   OH246770   2.360   0.649   4.836 -0.1420  0.1476  0.4154
 8452TIP3    H146771   2.409   0.579   4.879  1.1705  0.7063 -0.1105
 8452TIP3    H246772   2.418   0.679   4.766  0.3403  3.1971  1.9296
 8453TIP3   OH246773   1.532   4.840  11.898 -0.2005 -0.7146 -0.1416
 8453TIP3    H146774   1.454   4.825  11.952 -0.0491  2.9879  1.4220
 8453TIP3    H246775   1.515   4.792  11.817 -3.3260 -1.4265  0.7963
 8454TIP3   OH246776   5.095   6.724  13.282  0.0445 -0.4303  0.6970
 8454TIP3    H146777   5.157   6.708  13.211  0.6120 -2.4280  1.5912
 8454TIP3    H246778   5.142   6.701  13.362 -0.2641  2.6117  1.9242
 8455TIP3   OH246779   4.216   2.937   0.412  0.1068  0.2474 -0.4223
 8455TIP3    H146780   4.132   2.980   0.429 -1.0051 -1.4388 -1.2537
 8455TIP3    H246781   4.195   2.870   0.347  1.4031 -2.4079  1.6902
 8456TIP3   OH246782   1.303   2.152  12.665 -0.0981  0.1672 -0.3618
 8456TIP3    H146783   1.292   2.068  12.620 -0.5394  0.1221 -0.1705
 8456TIP3    H246784   1.244   2.211  12.618  2.2236  1.1011 -2.3286
 8457TIP3   OH246785   2.638   5.568  15.214  0.1717  0.2899  0.0074
 8457TIP3    H146786   2.553   5.611  15.201  0.1789 -0.3018 -2.4090
 8457TIP3    H246787   2.615   5.482  15.250 -0.1207  0.7520  0.9499
 8458TIP3   OH246788   0.872   1.459   1.212  0.0927  0.0188 -0.4046
 8458TIP3    H146789   0.896   1.484   1.123  0.7268  1.0197  0.0388
 8458TIP3    H246790   0.777   1.470   1.216  0.1586  0.6942 -0.7322
 8459TIP3   OH246791   5.666   0.541  11.185 -0.7715  0.3878 -0.3930
 8459TIP3    H146792   5.588   0.516  11.135 -0.6770 -1.0892  0.1440
 8459TIP3    H246793   5.739   0.524  11.126 -0.6538 -1.4331  0.2109
 8460TIP3   OH246794   2.722   2.055   3.417  0.3928 -0.1607 -0.3263
 8460TIP3    H146795   2.737   2.014   3.332  0.3846  0.0490 -0.4286
 8460TIP3    H246796   2.663   2.128   3.399  1.4903  0.7423 -0.3602
 8461TIP3   OH246797   1.566   1.446   6.130  0.4575 -0.1936  0.1357
 8461TIP3    H146798   1.648   1.477   6.094  0.5628 -0.7632 -0.1234
 8461TIP3    H246799   1.533   1.383   6.066 -1.2333  1.5391 -0.8294
 8462TIP3   OH246800   6.341   3.600  14.981  0.1429  0.2783 -0.3059
 8462TIP3    H146801   6.251   3.571  14.992  0.1616 -0.8527 -2.6754
 8462TIP3    H246802   6.334   3.683  14.933  0.3802 -0.2735 -1.3048
 8463TIP3   OH246803   2.758   5.789  15.111 -0.2608  0.0035  0.0650
 8463TIP3    H146804   2.733   5.705  15.150 -3.1609  0.2305 -1.0097
 8463TIP3    H246805   2.764   5.770  15.017 -1.5937  1.0517 -0.2667
 8464TIP3   OH246806   2.118   4.413  11.047 -0.3429 -0.1422 -0.2043
 8464TIP3    H146807   2.191   4.354  11.031  0.4336  0.8916 -0.5589
 8464TIP3    H246808   2.156   4.489  11.091 -0.9142  1.0735 -1.7028
 8465TIP3   OH246809   4.460   6.079  14.265 -0.2050 -0.5084  0.1324
 8465TIP3    H146810   4.457   6.152  14.203  0.6688 -0.0935  0.5574
 8465TIP3    H246811   4.500   6.117  14.344 -1.0099 -1.0992  0.8466
 8466TIP3   OH246812   3.924   5.281  12.673  0.5296  0.3678 -0.0337
 8466TIP3    H146813   3.856   5.320  12.618 -1.7199 -1.4503  1.3001
 8466TIP3    H246814   3.923   5.332  12.754 -2.0807 -1.8763  1.5198
 8467TIP3   OH246815   3.315   5.303   1.748 -0.3592 -0.1757 -0.0999
 8467TIP3    H146816   3.275   5.237   1.691 -0.0180  0.9529 -1.7161
 8467TIP3    H246817   3.407   5.278   1.754 -0.4260 -0.3781  0.0668
 8468TIP3   OH246818   0.507   4.584  15.000  0.2884  0.0605  0.1557
 8468TIP3    H146819   0.446   4.594  15.074 -0.9976 -0.3152 -0.8215
 8468TIP3    H246820   0.560   4.664  15.002 -0.8256  0.8177  0.5189
 8469TIP3   OH246821   0.075   4.070   0.299 -0.2957 -0.2470 -0.2438
 8469TIP3    H146822   0.062   4.001   0.364 -0.0741 -0.5558 -0.5273
 8469TIP3    H246823   0.093   4.024   0.217 -2.1065  0.1063 -0.8836
 8470TIP3   OH246824   2.207   1.432  13.573 -0.1301 -0.0972  0.0565
 8470TIP3    H146825   2.213   1.493  13.647  0.2492 -0.9573  0.7477
 8470TIP3    H246826   2.113   1.426  13.555 -0.6578 -2.7429  2.9392
 8471TIP3   OH246827   3.468   5.703   6.604 -0.0513  0.6695  0.3336
 8471TIP3    H146828   3.503   5.655   6.530 -1.3061 -0.4097  0.3999
 8471TIP3    H246829   3.414   5.639   6.651  4.1474 -0.1779  4.8223
 8472TIP3   OH246830   2.383   1.753   5.738  0.0002  0.2284  0.1078
 8472TIP3    H146831   2.418   1.699   5.668  1.2896 -1.2015  1.7506
 8472TIP3    H246832   2.449   1.821   5.751  0.6308 -0.5259  1.0217
 8473TIP3   OH246833   2.047   3.736  16.940  0.0304  0.3898 -0.0279
 8473TIP3    H146834   2.077   3.826  16.930  0.6394  0.0886 -1.0633
 8473TIP3    H246835   1.976   3.741  17.004 -0.1442  1.6384 -0.2964
 8474TIP3   OH246836   4.069   1.692  13.816 -0.2868 -0.3999  0.3734
 8474TIP3    H146837   4.117   1.612  13.794  0.6916  0.1196  0.5730
 8474TIP3    H246838   4.125   1.737  13.880 -1.0895  0.1718  0.6929
 8475TIP3   OH246839   4.917   2.133   6.149 -0.2049 -0.3401  0.7745
 8475TIP3    H146840   4.911   2.129   6.245  1.8735 -1.3244  0.9181
 8475TIP3    H246841   4.904   2.225   6.128 -2.0495 -0.2908  1.8467
 8476TIP3   OH246842   2.405   1.952  12.334  0.4383  0.4823 -0.2291
 8476TIP3    H146843   2.427   2.005  12.257  1.7155  0.4042  0.0639
 8476TIP3    H246844   2.311   1.936  12.326  0.1010  2.4036 -0.5672
 8477TIP3   OH246845   3.623   0.670  14.814 -0.4689  0.2913  0.1880
 8477TIP3    H146846   3.576   0.633  14.889 -1.5802  0.4653 -0.4011
 8477TIP3    H246847   3.558   0.672  14.743  0.2997  0.9763 -0.5258
 8478TIP3   OH246848   4.349   6.035   2.313  0.1997  0.0787 -0.4213
 8478TIP3    H146849   4.335   6.048   2.219 -0.8261  0.9772 -0.1643
 8478TIP3    H246850   4.280   5.974   2.339  1.4603 -1.4494 -0.5257
 8479TIP3   OH246851   4.380   2.175   2.413 -0.3350  0.1367 -0.1819
 8479TIP3    H146852   4.297   2.200   2.371  0.0060  0.2488 -0.7998
 8479TIP3    H246853   4.399   2.248   2.472 -0.5688  0.2136 -0.1977
 8480TIP3   OH246854   2.024   2.548  13.442 -0.2892 -0.0923 -0.3964
 8480TIP3    H146855   1.981   2.475  13.398 -2.7673  1.7632 -1.2975
 8480TIP3    H246856   2.011   2.531  13.536 -0.2162 -1.1510 -0.5734
 8481TIP3   OH246857   3.128   5.136  14.492  0.3397  0.0115  0.1571
 8481TIP3    H146858   3.036   5.164  14.485  0.3599  0.1582  0.4513
 8481TIP3    H246859   3.177   5.205  14.448  0.2033 -0.7721 -1.2688
 8482TIP3   OH246860   1.442   6.355  16.376 -0.0361 -0.3627 -0.2284
 8482TIP3    H146861   1.513   6.406  16.414 -1.0944  0.2990  0.9414
 8482TIP3    H246862   1.415   6.405  16.299  0.6577 -0.5529 -0.6047
 8483TIP3   OH246863   4.988   2.558   0.688  0.6767  0.4516  0.2911
 8483TIP3    H146864   4.923   2.591   0.749  1.4019  0.0764  1.2945
 8483TIP3    H246865   4.952   2.578   0.601 -0.4061  0.9174  0.8291
 8484TIP3   OH246866   0.072   5.548   4.301  0.1673 -0.0213 -0.8456
 8484TIP3    H146867   0.052   5.549   4.207 -3.0964  1.7738 -0.3106
 8484TIP3    H246868   0.113   5.634   4.317 -0.7426  0.3468 -0.4287
 8485TIP3   OH246869   1.407   0.634   4.699  0.6734 -0.0901 -0.2257
 8485TIP3    H146870   1.466   0.570   4.740 -1.4126 -0.4377  2.5635
 8485TIP3    H246871   1.332   0.581   4.671 -0.4582  0.9062  0.8256
 8486TIP3   OH246872   3.219   6.694   3.691 -0.0905 -0.3696  0.5990
 8486TIP3    H146873   3.196   6.709   3.782  1.8120  0.1511  1.0449
 8486TIP3    H246874   3.313   6.676   3.692  0.2509  0.8951 -1.3573
 8487TIP3   OH246875   0.627   6.782  12.857 -0.4220  0.2348 -0.3396
 8487TIP3    H146876   0.571   6.734  12.797 -0.6670  0.9758 -0.7064
 8487TIP3    H246877   0.710   6.792  12.810 -0.0480 -0.6230  0.0975
 8488TIP3   OH246878   6.026   3.514  16.875 -0.0479  0.1479  0.1263
 8488TIP3    H146879   6.069   3.525  16.791 -0.0883  1.9996  0.3126
 8488TIP3    H246880   5.940   3.556  16.865 -0.8376 -1.2847  0.5327
 8489TIP3   OH246881   1.239   1.304  16.513 -0.3156 -0.6329  0.3710
 8489TIP3    H146882   1.256   1.395  16.489 -0.3829 -0.4658  0.9352
 8489TIP3    H246883   1.193   1.310  16.596 -1.5759 -1.1385 -0.2702
 8490TIP3   OH246884   1.916   4.502  12.561  0.1750 -1.2208 -0.3800
 8490TIP3    H146885   2.011   4.496  12.556  0.4484  1.4005  0.1943
 8490TIP3    H246886   1.894   4.475  12.650  0.5159 -0.8497 -0.1800
 8491TIP3   OH246887   1.039   3.743  16.233 -0.1709  0.0973 -0.3584
 8491TIP3    H146888   1.024   3.671  16.295 -0.9000  1.4799  1.1738
 8491TIP3    H246889   1.080   3.811  16.286 -0.3905  1.1663 -1.5240
 8492TIP3   OH246890   4.639   0.659   5.893 -0.0105 -0.9047 -0.2445
 8492TIP3    H146891   4.592   0.730   5.850  0.5581  0.6158  1.5022
 8492TIP3    H246892   4.578   0.625   5.958 -0.0536 -1.5980 -0.6405
 8493TIP3   OH246893   5.467   1.761  10.688 -0.3533  0.2862 -0.1086
 8493TIP3    H146894   5.476   1.852  10.660  2.3837 -0.7398 -3.2548
 8493TIP3    H246895   5.376   1.739  10.668 -0.5350  1.8261 -1.1641
 8494TIP3   OH246896   0.809   4.320   2.981  0.1439  0.2277  0.6461
 8494TIP3    H146897   0.720   4.346   3.005  0.4434  0.4657  1.5249
 8494TIP3    H246898   0.803   4.296   2.889 -0.3782  2.3640  0.0655
 8495TIP3   OH246899   6.062   1.885   4.769  0.1847  0.2069 -0.4690
 8495TIP3    H146900   6.044   1.800   4.809  2.6258  0.8863  2.4579
 8495TIP3    H246901   5.988   1.940   4.796  0.6229  0.0252  1.1880
 8496TIP3   OH246902   5.287   1.817  10.937 -0.2722 -0.3790 -0.3837
 8496TIP3    H146903   5.269   1.772  10.855 -0.9685 -1.2420  0.2229
 8496TIP3    H246904   5.240   1.900  10.930 -0.1851 -0.3687 -0.9105
 8497TIP3   OH246905   5.428   3.651   2.696 -0.3373 -0.2134  0.4694
 8497TIP3    H146906   5.439   3.556   2.687  0.0064 -0.2063  0.7708
 8497TIP3    H246907   5.377   3.677   2.619  0.6590 -0.4566 -0.2996
 8498TIP3   OH246908   0.804   0.045  15.639 -0.3964  0.0362 -0.4012
 8498TIP3    H146909   0.816   0.035  15.544 -1.8492  1.2786 -0.7662
 8498TIP3    H246910   0.859  -0.023  15.678  0.1273 -0.5870 -2.1379
 8499TIP3   OH246911   3.075   4.358  14.567 -0.0968  0.1158  0.5314
 8499TIP3    H146912   3.117   4.426  14.620 -0.5758 -0.1182  1.2291
 8499TIP3    H246913   2.985   4.355  14.598 -0.6753  0.6600 -1.0061
 8500TIP3   OH246914   6.543   5.429   1.822  0.4998  0.0771 -0.3415
 8500TIP3    H146915   6.607   5.489   1.861  0.5001 -0.8566  1.1647
 8500TIP3    H246916   6.489   5.485   1.766  0.8118  1.4099  0.6385
 8501TIP3   OH246917   4.194   3.984   0.890 -0.1306 -0.3229  0.0620
 8501TIP3    H146918   4.142   4.059   0.916 -0.3909  0.2724 -2.0109
 8501TIP3    H246919   4.280   4.020   0.869  0.6646 -1.0614  1.8486
 8502TIP3   OH246920   2.241   5.053  15.566 -0.0756  0.1739 -0.3253
 8502TIP3    H146921   2.173   5.104  15.610 -1.9740 -1.2050 -1.4949
 8502TIP3    H246922   2.203   4.966  15.558  1.8401 -0.6281 -1.1071
 8503TIP3   OH246923   0.781   0.581   4.914 -0.0145  0.3508  0.0764
 8503TIP3    H146924   0.855   0.601   4.972 -0.8140  0.7732  0.9855
 8503TIP3    H246925   0.817   0.589   4.826  1.0980  0.2508  0.5010
 8504TIP3   OH246926   3.346   3.242   0.900  0.8126 -0.1207 -0.4394
 8504TIP3    H146927   3.403   3.168   0.922  1.3748  0.3034 -0.4626
 8504TIP3    H246928   3.325   3.282   0.984  1.5767  0.4797 -0.5320
 8505TIP3   OH246929   4.784   1.444  11.661 -0.3216  0.1879 -0.2451
 8505TIP3    H146930   4.813   1.532  11.637 -0.8983  0.5053  0.1837
 8505TIP3    H246931   4.691   1.442  11.636 -0.6462  0.1477  0.9146
 8506TIP3   OH246932   1.873   0.584   4.093 -0.2562 -0.4542 -0.2702
 8506TIP3    H146933   1.795   0.540   4.059 -1.0230 -0.7299  1.7176
 8506TIP3    H246934   1.942   0.518   4.087 -0.4147 -0.5588 -1.0666
 8507TIP3   OH246935   2.138   6.553   4.779 -0.0676  0.1263 -0.0392
 8507TIP3    H146936   2.230   6.571   4.800  0.3103  0.3051 -1.6646
 8507TIP3    H246937   2.123   6.600   4.696 -1.8628  0.7687  0.6004
 8508TIP3   OH246938   3.342   4.387   3.242 -0.0603  0.4401  0.2503
 8508TIP3    H146939   3.324   4.379   3.336  1.3994 -0.2280  0.5064
 8508TIP3    H246940   3.302   4.309   3.203 -1.4330  1.1679  0.1823
 8509TIP3   OH246941   6.526   0.657   4.554  0.4109 -0.5300 -0.4471
 8509TIP3    H146942   6.476   0.702   4.486  0.6280 -1.9936 -1.6139
 8509TIP3    H246943   6.572   0.728   4.600  2.3560  0.4107 -3.4921
 8510TIP3   OH246944   2.825   3.428   1.191  0.1691  0.3099  0.0270
 8510TIP3    H146945   2.834   3.493   1.261  0.0589 -0.5368  0.8492
 8510TIP3    H246946   2.914   3.393   1.180  0.1730  0.3960 -0.2138
 8511TIP3   OH246947   5.741   5.230   4.851 -0.3592  0.0414  0.2469
 8511TIP3    H146948   5.663   5.213   4.798  0.9484 -0.5661 -1.5988
 8511TIP3    H246949   5.812   5.237   4.787  1.3796 -1.0420  1.9447
 8512TIP3   OH246950   5.350   5.595  15.720  0.0556  0.7439  0.0324
 8512TIP3    H146951   5.370   5.511  15.679  0.1540  1.7803 -2.2276
 8512TIP3    H246952   5.254   5.596  15.728 -0.1753  1.2440 -2.0636
 8513TIP3   OH246953   5.183   5.770   2.694 -0.1441  0.3710  0.3440
 8513TIP3    H146954   5.236   5.760   2.773  1.4434  0.5910 -0.6598
 8513TIP3    H246955   5.224   5.842   2.646 -0.7222 -0.1288 -0.9636
 8514TIP3   OH246956   3.756   5.570   2.312  0.2583  0.0998  0.3534
 8514TIP3    H146957   3.708   5.526   2.382  0.9854 -0.8065  0.2992
 8514TIP3    H246958   3.733   5.521   2.233  0.6185  0.1781  0.1990
 8515TIP3   OH246959   0.953   0.054   3.798  0.6259 -0.4289  0.1346
 8515TIP3    H146960   0.917   0.137   3.830  0.1320  0.6089 -2.8470
 8515TIP3    H246961   1.044   0.074   3.778  1.0797 -1.2167  1.2939
 8516TIP3   OH246962   0.002   3.870   4.712  0.1005  0.0840 -0.0380
 8516TIP3    H146963  -0.037   3.931   4.651 -2.0792  0.0419  1.2019
 8516TIP3    H246964   0.040   3.925   4.781 -0.6200  0.0945  0.3622
 8517TIP3   OH246965   4.400   5.632   2.198  0.0543 -0.6564  0.6020
 8517TIP3    H146966   4.461   5.696   2.163 -0.0002 -1.6281 -1.4527
 8517TIP3    H246967   4.441   5.600   2.278  0.1610  1.7344  1.5732
 8518TIP3   OH246968   5.254   4.387   3.404  0.4040  0.2536 -0.6008
 8518TIP3    H146969   5.266   4.475   3.366  1.6536 -0.6725 -2.5477
 8518TIP3    H246970   5.245   4.329   3.328 -0.0295 -1.3657  0.6281
 8519TIP3   OH246971   5.435   5.329  16.926 -0.1778 -0.1300  0.1790
 8519TIP3    H146972   5.494   5.266  16.885 -1.4538 -1.7516  0.7230
 8519TIP3    H246973   5.474   5.346  17.012 -0.9002 -1.9158  0.9151
 8520TIP3   OH246974   6.263   1.305  12.773  0.1612  0.4685  0.0634
 8520TIP3    H146975   6.175   1.324  12.742 -0.2344  0.3683  1.0970
 8520TIP3    H246976   6.251   1.275  12.863  1.0563 -1.5145 -0.4308
 8521TIP3   OH246977   6.173   6.793   1.964 -0.7343 -0.4772 -0.9318
 8521TIP3    H146978   6.125   6.874   1.949  1.1226  0.7857 -0.4170
 8521TIP3    H246979   6.256   6.821   2.002 -0.5896 -2.7224  0.5968
 8522TIP3   OH246980   0.834   5.034   3.769 -0.4438 -0.1130  0.2706
 8522TIP3    H146981   0.850   5.087   3.691 -2.3475 -0.4647 -0.4101
 8522TIP3    H246982   0.811   4.948   3.736 -1.6582 -0.1733  1.2016
 8523TIP3   OH246983   3.391   4.913   1.717  0.2110 -0.4881  0.0554
 8523TIP3    H146984   3.432   4.845   1.770  3.6286  2.0893  1.0685
 8523TIP3    H246985   3.451   4.926   1.644  0.0666  1.8627  0.2809
 8524TIP3   OH246986   4.853   1.455  14.541 -0.6152  0.2366  0.4505
 8524TIP3    H146987   4.842   1.382  14.481  0.0075 -0.2778  0.9488
 8524TIP3    H246988   4.896   1.417  14.617  0.3229  1.2514  0.4428
 8525TIP3   OH246989   4.237   4.345  12.312 -0.7513 -0.3027  0.4116
 8525TIP3    H146990   4.163   4.391  12.272 -1.1186  0.4914  1.9501
 8525TIP3    H246991   4.222   4.253  12.289 -2.1513 -0.1387  0.5523
 8526TIP3   OH246992   4.123   3.510   4.718 -0.2080  0.5725 -0.3929
 8526TIP3    H146993   4.158   3.593   4.687  1.7096 -0.1933 -0.4280
 8526TIP3    H246994   4.143   3.447   4.648  2.7075 -0.8456  1.5242
 8527TIP3   OH246995   0.217   3.553   2.674 -0.4670  0.2810  0.3978
 8527TIP3    H146996   0.240   3.514   2.590 -0.7328  0.1440  0.3856
 8527TIP3    H246997   0.182   3.480   2.725  0.6262  0.1584  0.9883
 8528TIP3   OH246998   2.237   5.880  12.328 -0.3776 -0.4651 -0.1303
 8528TIP3    H146999   2.282   5.796  12.330 -0.2141 -0.5097 -2.3585
 8528TIP3    H247000   2.151   5.861  12.291 -1.6098 -0.0862  2.3578
 8529TIP3   OH247001   0.453   4.893  16.386  0.1120  0.4751  0.1085
 8529TIP3    H147002   0.511   4.834  16.338  0.6400  0.6847  0.4718
 8529TIP3    H247003   0.497   4.978  16.381 -0.1493  0.6296  0.4197
 8530TIP3   OH247004   6.025   4.963  14.490 -0.4604  0.4081  0.1570
 8530TIP3    H147005   5.931   4.982  14.490 -0.2968  1.5212 -2.2673
 8530TIP3    H247006   6.067   5.046  14.513 -0.0351  0.2940 -0.1885
 8531TIP3   OH247007   4.748   3.874   2.503  0.0097  0.1083  0.5565
 8531TIP3    H147008   4.664   3.841   2.533 -0.3837  0.4281 -0.1679
 8531TIP3    H247009   4.813   3.830   2.559 -0.6773  0.5600  1.7254
 8532TIP3   OH247010   4.836   6.365  12.876 -0.5514 -0.1979 -0.7380
 8532TIP3    H147011   4.809   6.377  12.785  1.6810 -0.7901 -1.5203
 8532TIP3    H247012   4.823   6.272  12.893 -1.4259 -0.0037 -0.2500
 8533TIP3   OH247013   5.840   2.068   5.126  0.1006  0.2002  0.3125
 8533TIP3    H147014   5.873   2.153   5.155  1.6951 -0.7053  1.3755
 8533TIP3    H247015   5.752   2.062   5.163  0.5221  0.8118  1.4845
 8534TIP3   OH247016   3.670   4.378  13.970 -0.4620 -0.0997 -0.5761
 8534TIP3    H147017   3.629   4.416  13.892 -0.1611  1.5028  0.0081
 8534TIP3    H247018   3.598   4.335  14.016 -0.8560 -0.0843 -1.1671
 8535TIP3   OH247019   0.352   2.128   4.405  0.4581  0.9810 -0.4711
 8535TIP3    H147020   0.447   2.118   4.399  0.4162 -0.7448  0.8996
 8535TIP3    H247021   0.319   2.090   4.324  0.9159  0.6421 -0.5052
 8536TIP3   OH247022   4.228   1.919   2.317 -0.1585  0.7067 -0.3394
 8536TIP3    H147023   4.230   1.824   2.326 -1.1346  0.4215 -2.5381
 8536TIP3    H247024   4.315   1.942   2.282 -0.2875  0.4806 -0.8169
 8537TIP3   OH247025   2.010   4.646  14.054  0.6796 -0.2517 -0.4444
 8537TIP3    H147026   2.028   4.705  13.982 -1.1437  0.6224 -0.2386
 8537TIP3    H247027   2.092   4.642  14.103  0.9098  1.9770 -0.5553
 8538TIP3   OH247028   6.481   1.187   3.584 -0.0889  0.5187  0.9256
 8538TIP3    H147029   6.408   1.170   3.643 -1.6015 -0.5224 -1.1435
 8538TIP3    H247030   6.554   1.136   3.620 -0.9163  0.0386  1.9581
 8539TIP3   OH247031   0.989   4.458  12.102  0.1365  0.0156 -0.0619
 8539TIP3    H147032   1.081   4.475  12.124 -0.2100  2.2792 -0.1962
 8539TIP3    H247033   0.949   4.434  12.186  0.6062  0.1109  0.1912
 8540TIP3   OH247034   0.024   0.048  13.473 -0.3595 -0.8547 -0.2573
 8540TIP3    H147035  -0.068   0.031  13.492 -0.3387 -1.2808 -0.5057
 8540TIP3    H247036   0.069  -0.032  13.499  0.5042  0.6113  3.3834
 8541TIP3   OH247037   0.786   2.717  13.636  0.2609  0.0914  0.3442
 8541TIP3    H147038   0.725   2.789  13.621 -1.1030 -1.2021 -0.4789
 8541TIP3    H247039   0.733   2.648  13.675  0.3336 -2.3024 -3.3300
 8542TIP3   OH247040   5.752   5.932   5.698 -0.2748 -0.4633 -0.2669
 8542TIP3    H147041   5.801   5.909   5.777 -0.2179  0.5408  0.0057
 8542TIP3    H247042   5.752   5.852   5.645  1.5748 -0.5408 -0.2208
 8543TIP3   OH247043   3.362   2.970   0.257  0.6219 -0.0310 -0.1673
 8543TIP3    H147044   3.280   2.923   0.245  0.9770 -0.7876  0.2963
 8543TIP3    H247045   3.430   2.908   0.229  1.0442  0.5982 -0.5977
 8544TIP3   OH247046   5.356   5.515   4.380 -0.0668 -0.2470  0.2746
 8544TIP3    H147047   5.263   5.538   4.374  0.1822  0.4088 -1.6595
 8544TIP3    H247048   5.359   5.448   4.448 -1.9066 -0.0367  0.6307
 8545TIP3   OH247049   0.473   4.177   5.596  0.5639 -0.0467 -0.1962
 8545TIP3    H147050   0.430   4.112   5.541  0.8336  0.6317 -1.2267
 8545TIP3    H247051   0.549   4.132   5.633 -0.0945 -0.7592  0.3377
 8546TIP3   OH247052   3.000   2.729  14.414  0.5858 -0.3646  0.3685
 8546TIP3    H147053   2.909   2.731  14.386  0.6751 -1.3123 -0.0047
 8546TIP3    H247054   3.035   2.814  14.387 -0.2452  0.1183  0.7611
 8547TIP3   OH247055   1.323   4.436   2.173  0.6886  0.1992 -0.4018
 8547TIP3    H147056   1.340   4.342   2.184 -1.0066 -0.1271 -0.1564
 8547TIP3    H247057   1.406   4.473   2.144  1.4369 -1.3529 -0.3348
 8548TIP3   OH247058   3.426   6.046   2.858 -0.2467 -0.0343  0.1606
 8548TIP3    H147059   3.368   6.116   2.828  0.7281  0.7116 -0.0541
 8548TIP3    H247060   3.418   5.978   2.791  0.1505  0.6473 -0.5996
 8549TIP3   OH247061   3.155   4.172  16.933  0.7234  0.0523  0.2039
 8549TIP3    H147062   3.097   4.142  17.002 -0.5857 -2.1680 -1.6973
 8549TIP3    H247063   3.181   4.261  16.959 -2.5937  0.7120  1.7577
 8550TIP3   OH247064   6.489   0.190   4.585 -0.1746  0.2251 -0.1339
 8550TIP3    H147065   6.462   0.271   4.541 -0.2173 -1.0501 -2.6590
 8550TIP3    H247066   6.568   0.214   4.633 -0.0400  1.7165 -1.0293
 8551TIP3   OH247067   2.361   2.172   0.821 -0.2339  0.9097  0.2603
 8551TIP3    H147068   2.440   2.119   0.834 -0.3248  1.0362  1.4822
 8551TIP3    H247069   2.335   2.155   0.731  1.5228  1.3339 -0.3648
 8552TIP3   OH247070   3.000   0.369   4.792 -0.4040  0.3134  0.6883
 8552TIP3    H147071   2.943   0.440   4.823 -1.4474  0.4131 -1.2873
 8552TIP3    H247072   3.015   0.389   4.700  0.8338 -1.0595  0.5604
 8553TIP3   OH247073   6.498   0.862  12.216 -0.5714  0.1865  0.4258
 8553TIP3    H147074   6.422   0.848  12.161 -0.8660  1.4292  0.4910
 8553TIP3    H247075   6.466   0.916  12.289  0.3485  0.7283  0.4572
 8554TIP3   OH247076   2.161   3.031  12.781  0.6103  0.1453 -0.3998
 8554TIP3    H147077   2.164   2.942  12.816  0.3468  0.7519  1.2233
 8554TIP3    H247078   2.085   3.032  12.724 -2.0923  0.4343  2.9055
 8555TIP3   OH247079   3.819   4.458  15.809 -0.3529  0.6382  1.1064
 8555TIP3    H147080   3.779   4.421  15.730  0.9192 -0.9019  1.1455
 8555TIP3    H247081   3.847   4.545  15.782 -0.7742  0.4886  0.1283
 8556TIP3   OH247082   0.615   5.058  15.270  0.6256  0.0648  0.2082
 8556TIP3    H147083   0.599   4.974  15.312  0.8594 -0.0714  0.0273
 8556TIP3    H247084   0.532   5.079  15.226  0.4506  0.1052  0.5514
 8557TIP3   OH247085   0.270   0.205   1.349 -0.1613 -0.1007  0.1700
 8557TIP3    H147086   0.210   0.226   1.420 -2.3224 -1.0285 -1.2977
 8557TIP3    H247087   0.303   0.290   1.319 -1.2406  0.4743  0.5823
 8558TIP3   OH247088   1.667   4.786  12.219  0.0974 -0.0587 -1.3927
 8558TIP3    H147089   1.689   4.843  12.145 -1.5780  1.9691 -0.4370
 8558TIP3    H247090   1.694   4.835  12.296  0.7083 -1.6173 -0.5696
 8559TIP3   OH247091   2.562   0.765   4.617  0.2164 -0.6606  0.2908
 8559TIP3    H147092   2.652   0.768   4.584  0.1208  0.6481  0.0875
 8559TIP3    H247093   2.515   0.710   4.555  1.0050 -1.9486  0.7832
 8560TIP3   OH247094   0.116   3.701  16.056  0.2571 -0.5539 -0.3287
 8560TIP3    H147095   0.077   3.769  16.111  0.1390 -0.5114 -0.4635
 8560TIP3    H247096   0.160   3.748  15.986 -1.3085 -0.6313 -1.4348
 8561TIP3   OH247097   1.871   2.498  17.135 -0.0294  0.4245 -1.1799
 8561TIP3    H147098   1.945   2.551  17.166 -0.5806  0.0107  0.9350
 8561TIP3    H247099   1.796   2.529  17.185 -0.9293 -0.4877 -1.9207
 8562TIP3   OH247100   2.918   5.354   0.821 -0.2306 -0.0777 -0.0926
 8562TIP3    H147101   2.977   5.429   0.815  1.6788 -1.5696 -1.1128
 8562TIP3    H247102   2.833   5.389   0.794  0.7426  1.5693 -1.2769
 8563TIP3   OH247103   5.340   5.209   6.163 -0.8269  0.1553 -0.3682
 8563TIP3    H147104   5.355   5.261   6.242 -2.9967 -1.5799  1.3307
 8563TIP3    H247105   5.427   5.183   6.134  0.1415  2.3797  0.2971
 8564TIP3   OH247106   6.015   0.283   4.410 -0.1726  0.0247  0.2288
 8564TIP3    H147107   5.948   0.254   4.472  0.5228  1.6474  1.7949
 8564TIP3    H247108   5.973   0.353   4.360  0.5445  1.6351  1.7888
 8565TIP3   OH247109   5.555   6.449  15.164  0.2655 -0.2100  0.2529
 8565TIP3    H147110   5.494   6.486  15.101  0.4057  3.5632  2.0374
 8565TIP3    H247111   5.500   6.398  15.224 -0.2063 -1.6175 -1.2992
 8566TIP3   OH247112   6.581   4.629   1.197 -0.3253 -0.3817  0.5807
 8566TIP3    H147113   6.544   4.715   1.218  0.2368 -0.3279  1.4196
 8566TIP3    H247114   6.506   4.578   1.168 -0.5598  0.5831 -0.5926
 8567TIP3   OH247115   2.820   1.047  10.822 -0.2250 -0.0538  0.4642
 8567TIP3    H147116   2.749   1.098  10.783  0.8955  0.7259 -0.5910
 8567TIP3    H247117   2.828   0.970  10.765 -1.0671 -0.8177  1.3350
 8568TIP3   OH247118   3.199   2.201  14.048 -0.0337 -0.0500 -0.8932
 8568TIP3    H147119   3.231   2.230  14.133 -0.8205 -0.3319 -0.4867
 8568TIP3    H247120   3.245   2.119  14.032  0.8435  0.4940 -1.2017
 8569TIP3   OH247121   2.556   2.751  15.083  0.6270  0.6034 -0.0257
 8569TIP3    H147122   2.604   2.804  15.019 -0.5584  0.3685 -1.1647
 8569TIP3    H247123   2.545   2.667  15.040 -0.8250  0.6704  0.1674
 8570TIP3   OH247124   5.383   1.656   4.582 -0.2882  0.2684  0.5203
 8570TIP3    H147125   5.397   1.686   4.492  0.3402 -0.8552  0.2303
 8570TIP3    H247126   5.469   1.627   4.612 -0.3536  1.2087  1.7340
 8571TIP3   OH247127   6.428   5.900   4.470  0.0213  0.0223  0.0442
 8571TIP3    H147128   6.455   5.842   4.542  0.4273 -0.9426 -0.8634
 8571TIP3    H247129   6.422   5.986   4.511 -1.7356 -0.8046  1.7047
 8572TIP3   OH247130   1.689   1.368  16.321  0.2666 -0.5289 -0.6380
 8572TIP3    H147131   1.610   1.397  16.367  1.7662  0.1947  1.6562
 8572TIP3    H247132   1.737   1.317  16.386  1.7489 -0.8463 -1.9251
 8573TIP3   OH247133   4.203   5.895   5.973 -0.1502 -0.2539  0.4383
 8573TIP3    H147134   4.243   5.866   5.892 -1.3567  1.3263 -0.7999
 8573TIP3    H247135   4.272   5.888   6.039  1.3112 -0.1854 -1.0348
 8574TIP3   OH247136   2.838   1.239   2.890  0.3193  0.4439 -0.3974
 8574TIP3    H147137   2.833   1.145   2.877 -0.3802  0.4275 -0.0409
 8574TIP3    H247138   2.876   1.250   2.977 -0.2370  0.4829 -0.1592
 8575TIP3   OH247139   1.131   5.027  14.409  0.0225  0.2810 -0.0887
 8575TIP3    H147140   1.101   4.948  14.452  2.6457 -1.1915 -0.7369
 8575TIP3    H247141   1.078   5.033  14.330 -0.4446 -0.6111  0.1416
 8576TIP3   OH247142   0.978   1.068   5.968 -0.5900  0.4430  0.5336
 8576TIP3    H147143   1.039   1.071   5.895 -1.5295 -0.0297 -0.2969
 8576TIP3    H247144   1.025   1.110   6.041  1.6129 -1.9490  0.6287
 8577TIP3   OH247145   6.646   6.179  11.662 -0.3974 -0.1381 -0.4534
 8577TIP3    H147146   6.729   6.224  11.674 -0.8576  0.8039 -0.6679
 8577TIP3    H247147   6.624   6.194  11.570 -0.4205 -1.0523 -0.5968
 8578TIP3   OH247148   2.381   4.971   4.172 -0.3393 -0.4236 -0.1988
 8578TIP3    H147149   2.349   5.061   4.172 -3.5668 -1.4342 -0.9097
 8578TIP3    H247150   2.392   4.950   4.079 -0.1905 -0.9394 -0.0634
 8579TIP3   OH247151   2.214   5.155   2.123  0.3877  0.6580  0.2850
 8579TIP3    H147152   2.198   5.061   2.128  1.1234  0.4619 -0.6829
 8579TIP3    H247153   2.214   5.185   2.214  1.2981 -0.4738  0.6766
 8580TIP3   OH247154   4.349   0.391   1.935 -0.3788 -0.3466 -0.1894
 8580TIP3    H147155   4.375   0.395   2.027  0.3247 -0.1450 -0.3865
 8580TIP3    H247156   4.349   0.298   1.914  1.1386 -0.3174 -0.4282
 8581TIP3   OH247157   4.956   2.235   5.500 -0.0891  0.0107  0.3031
 8581TIP3    H147158   4.871   2.219   5.458  0.3850  0.2059 -0.7498
 8581TIP3    H247159   5.002   2.151   5.493 -0.1068 -0.0344  0.6859
 8582TIP3   OH247160   2.423   6.807  11.220  0.1365  0.0549  0.2362
 8582TIP3    H147161   2.409   6.874  11.153 -0.5608 -2.2162 -1.9927
 8582TIP3    H247162   2.359   6.829  11.289  0.2609  1.9173 -0.1908
 8583TIP3   OH247163   3.612   1.877  12.613  0.3830 -0.3198  0.1379
 8583TIP3    H147164   3.550   1.819  12.657 -1.4249  0.1927 -1.5704
 8583TIP3    H247165   3.640   1.828  12.535 -1.1392  1.0008 -1.3035
 8584TIP3   OH247166   0.914   6.540  13.489 -0.5075 -0.3724 -0.5810
 8584TIP3    H147167   0.985   6.588  13.447  0.4911 -2.4669 -1.4166
 8584TIP3    H247168   0.871   6.605  13.545  1.4752  1.1779 -0.7449
 8585TIP3   OH247169   5.583   0.313   4.315  0.1209  0.0031  0.5235
 8585TIP3    H147170   5.566   0.341   4.404 -1.4175 -0.8238  0.5332
 8585TIP3    H247171   5.506   0.343   4.265  0.0863 -1.1068 -0.1349
 8586TIP3   OH247172   5.217   6.545   2.897 -0.3020 -0.4123  0.1853
 8586TIP3    H147173   5.163   6.515   2.970 -0.6585  1.3293  0.6568
 8586TIP3    H247174   5.191   6.635   2.882  3.7099  1.1957  1.6252
 8587TIP3   OH247175   4.564   0.764   0.724 -0.0338 -0.3593 -0.6326
 8587TIP3    H147176   4.512   0.831   0.680  0.2305 -0.6815 -1.4706
 8587TIP3    H247177   4.500   0.698   0.751 -0.3569  0.4617  0.6630
 8588TIP3   OH247178   6.494   5.406  12.503 -0.7220  0.1764 -0.5077
 8588TIP3    H147179   6.414   5.434  12.458 -1.8907 -0.4944  1.0595
 8588TIP3    H247180   6.463   5.365  12.584  1.2136 -0.2621  0.0633
 8589TIP3   OH247181   3.719   3.285   3.684 -0.2128 -0.1496  1.2712
 8589TIP3    H147182   3.686   3.212   3.632  0.8881  0.0663  0.2255
 8589TIP3    H247183   3.668   3.282   3.764 -4.0483  1.1863 -0.8599
 8590TIP3   OH247184   3.682   4.113  16.377 -0.4331 -0.3007 -0.1344
 8590TIP3    H147185   3.741   4.053  16.332 -0.5997  1.0291 -2.3023
 8590TIP3    H247186   3.663   4.071  16.461  1.0860 -2.2273 -0.6933
 8591TIP3   OH247187   6.246   4.713  12.513  0.0065 -0.1248  0.0626
 8591TIP3    H147188   6.317   4.761  12.469  0.8709 -0.2769  1.2511
 8591TIP3    H247189   6.172   4.721  12.453  1.0313 -0.0184 -1.2506
 8592TIP3   OH247190   6.064   2.069   2.797 -0.8961 -0.0037 -0.1408
 8592TIP3    H147191   6.148   2.062   2.751 -0.4127  1.7120  0.4263
 8592TIP3    H247192   6.085   2.117   2.877 -2.1773 -0.8256  0.7222
 8593TIP3   OH247193   2.784   6.144   0.907  0.1410  0.1459  0.4548
 8593TIP3    H147194   2.777   6.155   0.812  0.6020 -0.5821  0.3245
 8593TIP3    H247195   2.756   6.228   0.943  2.9518  1.5555 -0.4029
 8594TIP3   OH247196   5.270   5.962   0.602  0.2635 -0.0908 -0.3539
 8594TIP3    H147197   5.228   5.910   0.671  0.4609 -0.2485 -0.3526
 8594TIP3    H247198   5.259   6.053   0.631 -1.6837  0.0105 -1.2352
 8595TIP3   OH247199   2.834   5.398   5.203  0.5100 -0.4288  0.1845
 8595TIP3    H147200   2.813   5.368   5.115 -0.8514 -2.0152  0.9932
 8595TIP3    H247201   2.774   5.472   5.219  1.2628  0.3416 -0.4451
 8596TIP3   OH247202   2.258   0.818  15.463 -0.0629  0.0791  0.1145
 8596TIP3    H147203   2.320   0.747  15.447  0.0004  0.5357 -1.8864
 8596TIP3    H247204   2.173   0.775  15.463  0.1062 -0.2729  0.9478
 8597TIP3   OH247205   0.373   3.228  14.001  0.4909  0.2425  0.3606
 8597TIP3    H147206   0.325   3.257  13.923  1.7513  1.7391  0.1092
 8597TIP3    H247207   0.447   3.288  14.008  1.9704 -1.5698  1.1280
 8598TIP3   OH247208   5.659   6.131  16.670  0.2506  0.4778 -0.1998
 8598TIP3    H147209   5.600   6.083  16.729 -0.0119 -2.8625 -2.8422
 8598TIP3    H247210   5.690   6.205  16.722 -2.7242 -0.1448  2.8313
 8599TIP3   OH247211   4.271   3.751  11.929 -0.6956 -0.1420  0.1744
 8599TIP3    H147212   4.338   3.781  11.867 -1.4921  2.3980  0.4299
 8599TIP3    H247213   4.317   3.745  12.012 -0.1499 -1.3304 -0.1886
 8600TIP3   OH247214   5.529   3.664  15.769  0.2701  0.0321  0.1245
 8600TIP3    H147215   5.447   3.712  15.780  0.7545  0.8708  0.1566
 8600TIP3    H247216   5.586   3.725  15.722  1.0850 -0.3146  0.6466
 8601TIP3   OH247217   1.401   0.438   5.705 -0.3293  0.1109 -0.1966
 8601TIP3    H147218   1.476   0.470   5.655 -0.9003 -0.9164 -1.7574
 8601TIP3    H247219   1.439   0.413   5.790  0.8599  0.7895 -0.4992
 8602TIP3   OH247220   2.508   2.474  15.674  0.0011 -0.0955  0.2090
 8602TIP3    H147221   2.469   2.388  15.691  0.9318 -0.3210  1.3521
 8602TIP3    H247222   2.460   2.534  15.732  0.6617 -0.2065  0.8914
 8603TIP3   OH247223   5.045   5.815  15.473  0.3615  0.1549 -0.4676
 8603TIP3    H147224   5.100   5.885  15.507 -1.1213  0.0764  2.3428
 8603TIP3    H247225   4.964   5.820  15.524 -0.7945 -2.0428 -1.9028
 8604TIP3   OH247226   6.370   3.669   2.844  0.2308  0.3351 -0.4826
 8604TIP3    H147227   6.318   3.725   2.902  0.3079 -0.1860  0.0989
 8604TIP3    H247228   6.314   3.593   2.828  0.0130  0.7004 -1.4997
 8605TIP3   OH247229   5.459   4.350  15.345  0.2201  0.1609  0.2173
 8605TIP3    H147230   5.416   4.380  15.265  0.5795  0.5739  0.1697
 8605TIP3    H247231   5.415   4.268  15.368 -0.4846  0.5052  0.0988
 8606TIP3   OH247232   6.683   2.251  15.606  0.4057  0.1616 -0.4373
 8606TIP3    H147233   6.643   2.175  15.648  0.5570 -0.5297 -1.5043
 8606TIP3    H247234   6.649   2.250  15.517  2.3419 -0.1226 -1.2147
 8607TIP3   OH247235   1.180   0.642   5.161 -0.1217  0.1039 -0.5192
 8607TIP3    H147236   1.207   0.698   5.088  0.8402 -0.9123 -0.9593
 8607TIP3    H247237   1.101   0.685   5.195 -0.1800  0.9879 -1.6891
 8608TIP3   OH247238   5.120   1.198  16.159 -0.4330 -0.4816 -0.1773
 8608TIP3    H147239   5.131   1.251  16.238 -0.1690 -0.4698 -0.2218
 8608TIP3    H247240   5.025   1.193  16.146 -0.4284  0.8509 -0.7825
 8609TIP3   OH247241   2.965   4.277  14.178 -0.1388  0.1114 -0.1814
 8609TIP3    H147242   2.901   4.218  14.138  0.2858  0.6450 -1.7064
 8609TIP3    H247243   2.969   4.352  14.118  0.1401  1.1992  1.1529
 8610TIP3   OH247244   2.651   6.016   1.133 -0.1178  0.5323  0.3287
 8610TIP3    H147245   2.699   6.024   1.051  1.7032  0.0138  1.2668
 8610TIP3    H247246   2.646   6.106   1.166  0.4509  0.5698  0.3285
 8611TIP3   OH247247   6.381   0.207   1.751 -0.2512  0.1354  0.2959
 8611TIP3    H147248   6.358   0.129   1.701  0.6998  0.4214 -0.6389
 8611TIP3    H247249   6.323   0.275   1.716 -0.9119 -0.0882  0.9407
 8612TIP3   OH247250   3.024   3.255  16.520  0.3266 -0.3741  0.0779
 8612TIP3    H147251   3.048   3.166  16.547 -2.0137 -1.1473 -0.1738
 8612TIP3    H247252   3.081   3.312  16.571  0.7984 -1.9732  1.4149
 8613TIP3   OH247253   3.289   2.468   4.896  0.6275  0.3096 -0.2102
 8613TIP3    H147254   3.227   2.417   4.949 -1.0009 -0.4684 -2.6947
 8613TIP3    H247255   3.324   2.533   4.957 -0.8135 -0.7479  1.8949
 8614TIP3   OH247256   6.715   1.423  12.634 -0.4596 -0.4242 -0.2598
 8614TIP3    H147257   6.680   1.379  12.556 -0.9686  1.4936 -1.1530
 8614TIP3    H247258   6.638   1.463  12.674  0.4167  3.1994 -1.8159
 8615TIP3   OH247259   4.350   2.675  12.407  0.0706 -0.2880  0.6329
 8615TIP3    H147260   4.419   2.733  12.440 -0.9053  2.6575 -1.9640
 8615TIP3    H247261   4.272   2.730  12.403 -0.3292 -0.7041 -4.5486
 8616TIP3   OH247262   4.560   6.344   5.561  0.9632  0.3120 -0.4028
 8616TIP3    H147263   4.541   6.250   5.558 -0.0629  0.5113 -0.5064
 8616TIP3    H247264   4.540   6.375   5.473 -0.1481  0.8852  0.0402
 8617TIP3   OH247265   5.617   5.354   2.250 -0.4820 -0.3579  0.6346
 8617TIP3    H147266   5.605   5.265   2.284 -1.6401 -1.1416 -1.6633
 8617TIP3    H247267   5.532   5.377   2.213 -0.2132  1.7676  1.1955
 8618TIP3   OH247268   5.717   2.475  13.630 -0.3757 -0.2930 -0.5149
 8618TIP3    H147269   5.744   2.525  13.553 -1.6908  0.0588 -0.7820
 8618TIP3    H247270   5.624   2.497  13.641 -1.3598 -3.4546 -1.3134
 8619TIP3   OH247271   2.453   1.329   2.998 -0.2027  0.3900  0.3443
 8619TIP3    H147272   2.384   1.296   3.055  0.5616 -0.5705  0.7400
 8619TIP3    H247273   2.454   1.269   2.923 -0.1828  0.7381  0.0614
 8620TIP3   OH247274   3.416   0.692   4.993  0.3451  0.0356 -0.5191
 8620TIP3    H147275   3.364   0.767   5.024  0.8447 -0.0055  0.4501
 8620TIP3    H247276   3.383   0.618   5.042 -1.7982 -0.9226 -3.1379
 8621TIP3   OH247277   1.881   3.001  16.887  0.8848  0.1341 -0.0868
 8621TIP3    H147278   1.843   3.032  16.969  0.8316 -2.5640  1.0337
 8621TIP3    H247279   1.900   2.908  16.904  1.1493 -0.4372 -3.0433
 8622TIP3   OH247280   1.115   2.585   2.398  0.0085  0.3663  0.6626
 8622TIP3    H147281   1.049   2.642   2.359 -1.7556 -1.9584  0.0709
 8622TIP3    H247282   1.113   2.607   2.491 -1.1723  0.7373  0.5636
 8623TIP3   OH247283   4.136   4.140   1.989 -0.1801 -0.2432 -0.4508
 8623TIP3    H147284   4.131   4.205   1.919  2.0075 -0.7417 -1.1623
 8623TIP3    H247285   4.045   4.122   2.012 -0.9729  0.0670 -3.0361
 8624TIP3   OH247286   0.652   1.569  16.944 -0.2155  0.0515  0.6834
 8624TIP3    H147287   0.675   1.652  16.903  0.6349 -1.2199 -1.6259
 8624TIP3    H247288   0.557   1.571  16.953 -0.2147  1.1929  0.5010
 8625TIP3   OH247289   3.570   2.924  12.635 -0.6203 -0.0214 -0.4853
 8625TIP3    H147290   3.552   2.943  12.727 -1.2614 -0.7494 -0.4480
 8625TIP3    H247291   3.525   2.841  12.618 -0.0591 -0.1683 -1.3150
 8626TIP3   OH247292   1.797   5.117  16.738 -0.1197  0.7490  0.7043
 8626TIP3    H147293   1.864   5.166  16.690  0.3487  0.7657  1.3583
 8626TIP3    H247294   1.781   5.039  16.684  1.5689 -0.0390  1.2663
 8627TIP3   OH247295   3.815   1.822  10.421  0.0373  0.3165 -0.0220
 8627TIP3    H147296   3.787   1.902  10.466  1.2548  1.9747 -2.0393
 8627TIP3    H247297   3.898   1.846  10.379  0.2034 -1.8821 -1.0936
 8628TIP3   OH247298   5.116   0.223  13.365 -0.1446  0.2603  0.1245
 8628TIP3    H147299   5.048   0.155  13.360 -0.2193  0.2318  1.3173
 8628TIP3    H247300   5.139   0.227  13.457  0.8314  0.9246 -0.1348
 8629TIP3   OH247301   4.700   5.225  15.430  0.2495 -0.5516 -0.0501
 8629TIP3    H147302   4.634   5.284  15.467 -0.1631  0.5998 -2.4393
 8629TIP3    H247303   4.754   5.200  15.505 -1.5049  0.2769  1.5924
 8630TIP3   OH247304   0.832   3.136   0.779  0.2025 -0.3244  0.3178
 8630TIP3    H147305   0.837   3.069   0.712 -0.4717 -0.7047  0.6285
 8630TIP3    H247306   0.891   3.205   0.750  0.2829 -0.6974 -0.4161
 8631TIP3   OH247307   3.905   4.991  12.804 -0.2714 -0.3222  0.2004
 8631TIP3    H147308   3.905   5.086  12.803  1.0710 -0.2831  1.2218
 8631TIP3    H247309   3.918   4.968  12.896 -0.1228 -1.4816 -0.0889
 8632TIP3   OH247310   1.960   5.202   3.670  0.9300 -0.4486 -0.1610
 8632TIP3    H147311   1.994   5.250   3.746 -0.9660  1.1671 -0.2662
 8632TIP3    H247312   1.897   5.140   3.707  0.1427  0.2097 -0.3960
 8633TIP3   OH247313   1.612   3.483  12.135  0.1662 -0.7472  0.0198
 8633TIP3    H147314   1.599   3.519  12.223  0.0655 -0.1899 -0.2188
 8633TIP3    H247315   1.551   3.532  12.079  2.1252  0.8658 -0.8470
 8634TIP3   OH247316   4.057   3.710   2.145 -0.0939 -0.0591  1.0473
 8634TIP3    H147317   4.041   3.674   2.232  1.7936 -0.5737  1.2100
 8634TIP3    H247318   4.037   3.803   2.154  0.4583 -0.0311  2.1383
 8635TIP3   OH247319   1.810   1.928   1.218  0.3570 -0.4446  0.5035
 8635TIP3    H147320   1.894   1.967   1.191 -0.0326 -0.4906 -0.8763
 8635TIP3    H247321   1.756   2.003   1.242  0.1559 -0.2349 -0.5419
 8636TIP3   OH247322   1.772   4.722  13.791 -0.5223 -0.1213 -0.2030
 8636TIP3    H147323   1.767   4.768  13.707 -0.2368  1.2174  0.4871
 8636TIP3    H247324   1.788   4.791  13.855  0.0618 -1.2145  0.8614
 8637TIP3   OH247325   3.822   1.942  16.330 -0.0586 -0.0179  0.2145
 8637TIP3    H147326   3.805   2.022  16.279  1.6817  0.4498  0.3260
 8637TIP3    H247327   3.761   1.948  16.404 -2.4859 -0.5905 -1.5735
 8638TIP3   OH247328   6.050   6.211  14.699  0.0547  0.7654 -0.0473
 8638TIP3    H147329   6.077   6.297  14.730 -0.6145  1.2010 -0.6245
 8638TIP3    H247330   6.120   6.152  14.725  1.3422  1.7785 -1.1214
 8639TIP3   OH247331   1.533   1.369   0.183 -1.3223  0.5879  0.1268
 8639TIP3    H147332   1.624   1.389   0.207 -0.8502 -1.7017  0.5028
 8639TIP3    H247333   1.482   1.439   0.224  0.1983  1.4431  0.6592
 8640TIP3   OH247334   4.253   5.136   3.858  0.1588 -0.7673 -0.0444
 8640TIP3    H147335   4.305   5.210   3.890  1.2200 -0.5947 -1.9656
 8640TIP3    H247336   4.175   5.135   3.913  1.4781 -0.0631  1.9496
 8641TIP3   OH247337   1.706   6.054   4.899 -0.6583 -0.4172  0.2137
 8641TIP3    H147338   1.715   6.026   4.991 -0.5889 -0.3873  0.2160
 8641TIP3    H247339   1.638   6.121   4.901  0.3153  0.5945  0.4533
 8642TIP3   OH247340   5.462   6.246   5.672  0.0570  0.2366  0.1085
 8642TIP3    H147341   5.395   6.179   5.658  0.0071  0.2176  0.4322
 8642TIP3    H247342   5.432   6.322   5.622  2.2613 -1.3007 -4.0405
 8643TIP3   OH247343   0.114   3.517   3.614 -0.3972 -0.0645  0.1107
 8643TIP3    H147344   0.203   3.483   3.610 -0.7828 -1.1005 -0.2634
 8643TIP3    H247345   0.081   3.487   3.699 -0.8489 -0.9567 -0.3608
 8644TIP3   OH247346   3.499   0.095   2.790 -0.4190 -0.6328 -0.0391
 8644TIP3    H147347   3.470   0.056   2.708  0.3315 -0.5432 -0.3568
 8644TIP3    H247348   3.583   0.136   2.769  0.3750 -1.6316  1.0534
 8645TIP3   OH247349   1.625   2.617  16.835 -0.0772  0.3132  0.3209
 8645TIP3    H147350   1.618   2.606  16.741 -0.3918 -0.6345  0.4408
 8645TIP3    H247351   1.555   2.678  16.857 -0.5775 -0.1474  0.0412
 8646TIP3   OH247352   3.480   4.403  14.492  0.0595 -0.3337  0.5424
 8646TIP3    H147353   3.393   4.421  14.455  0.1522 -0.2652  0.3565
 8646TIP3    H247354   3.466   4.405  14.587 -0.0863 -0.0479  0.5166
 8647TIP3   OH247355   6.107   3.775   0.782 -0.6705 -0.2898  0.5016
 8647TIP3    H147356   6.144   3.688   0.789 -0.8859 -0.4617 -0.3588
 8647TIP3    H247357   6.149   3.813   0.705  0.0780  0.7016  1.3714
 8648TIP3   OH247358   6.216   0.347  14.059 -0.3072  0.0004 -0.4461
 8648TIP3    H147359   6.198   0.416  14.122  1.7308 -1.3705  1.7605
 8648TIP3    H247360   6.298   0.373  14.017 -0.0275 -0.6340 -0.2899
 8649TIP3   OH247361   5.525   5.900   5.082  0.0329  0.0691 -0.7130
 8649TIP3    H147362   5.482   5.945   5.154  0.5469  1.0377 -0.9896
 8649TIP3    H247363   5.589   5.964   5.049  0.8374 -0.8982 -1.0670
 8650TIP3   OH247364   5.554   1.629   3.290 -0.3026 -0.1145  0.2162
 8650TIP3    H147365   5.499   1.688   3.341 -0.8074 -0.0549 -0.3817
 8650TIP3    H247366   5.536   1.542   3.325 -1.9042 -0.2861 -0.9150
 8651TIP3   OH247367   3.402   2.719  13.526  0.0295  0.3983  0.0251
 8651TIP3    H147368   3.382   2.720  13.620 -0.1255  0.0739 -0.0035
 8651TIP3    H247369   3.317   2.710  13.484  0.1974 -0.8199 -0.1032
 8652TIP3   OH247370   3.686   3.060   5.807  0.5530  0.1325  0.4779
 8652TIP3    H147371   3.698   3.114   5.885 -1.7188  0.9109  0.3790
 8652TIP3    H247372   3.697   2.970   5.839  0.2428  0.4626  1.5816
 8653TIP3   OH247373   0.815   0.027  12.498  0.3498  0.2212 -0.0109
 8653TIP3    H147374   0.877   0.044  12.568  0.6446 -0.8320 -0.0021
 8653TIP3    H247375   0.746   0.093  12.510  1.8175  1.9174 -0.5013
 8654TIP3   OH247376   5.582   3.780   4.193  0.3319  0.1251 -0.2604
 8654TIP3    H147377   5.662   3.736   4.163  0.0129 -1.0728  0.5580
 8654TIP3    H247378   5.588   3.868   4.157  1.2191 -0.4527 -1.6095
 8655TIP3   OH247379   6.072   2.891  16.808  0.3087 -0.4267 -0.0143
 8655TIP3    H147380   6.058   2.809  16.855  0.1936 -0.9337 -0.9179
 8655TIP3    H247381   6.012   2.953  16.850  1.5381 -0.3410  1.7517
 8656TIP3   OH247382   1.990   5.671   3.947  0.0732 -0.0885  0.0699
 8656TIP3    H147383   2.028   5.597   3.994  1.1523  0.3427 -0.0940
 8656TIP3    H247384   1.966   5.734   4.015  2.6369  1.0098  0.0756
 8657TIP3   OH247385   4.867   4.520   0.446 -0.0018 -0.2348 -0.3447
 8657TIP3    H147386   4.823   4.565   0.518  0.9135 -0.2879  0.2687
 8657TIP3    H247387   4.951   4.493   0.483  0.3081 -0.6353 -1.3144
 8658TIP3   OH247388   5.339   4.362  12.674 -0.3984  0.3459 -0.3594
 8658TIP3    H147389   5.366   4.313  12.597  0.9964  0.4468  0.0260
 8658TIP3    H247390   5.336   4.297  12.744 -0.4703  0.4652 -0.2503
 8659TIP3   OH247391   0.816   0.981  15.588 -0.2551 -0.1872 -0.0172
 8659TIP3    H147392   0.807   1.043  15.516 -0.8065 -1.1106 -0.7651
 8659TIP3    H247393   0.793   1.032  15.666 -0.4447  0.6077 -0.5761
 8660TIP3   OH247394   3.637   2.740   0.770  0.5495  0.1892  0.3278
 8660TIP3    H147395   3.637   2.722   0.864 -2.2611 -2.9605 -0.0646
 8660TIP3    H247396   3.545   2.759   0.750  1.1402  1.0832 -1.7677
 8661TIP3   OH247397   4.276   4.754   3.579 -0.5406 -0.2260  0.2709
 8661TIP3    H147398   4.260   4.788   3.491 -0.5081 -0.8842  0.0056
 8661TIP3    H247399   4.331   4.677   3.566 -0.1487 -0.0621  0.9082
 8662TIP3   OH247400   4.482   4.023  12.234 -0.1119  0.4305 -0.9100
 8662TIP3    H147401   4.555   3.989  12.181  1.5703 -1.9588  2.5615
 8662TIP3    H247402   4.525   4.063  12.309 -2.3982  0.3503  0.5075
 8663TIP3   OH247403   6.290   1.923   3.411 -0.0008  0.4818  1.0322
 8663TIP3    H147404   6.199   1.892   3.409  0.6613 -1.6141  1.0987
 8663TIP3    H247405   6.322   1.900   3.498  1.1255 -0.5390  0.3827
 8664TIP3   OH247406   0.187   4.411  13.294  0.1544 -0.0987  0.0579
 8664TIP3    H147407   0.121   4.440  13.357  2.0546  1.9969  1.1886
 8664TIP3    H247408   0.160   4.322  13.272 -1.9672 -0.0183  1.9328
 8665TIP3   OH247409   3.943   3.213  16.641 -0.0437 -0.1486 -0.1820
 8665TIP3    H147410   3.957   3.126  16.678  1.1353 -0.0662 -0.3873
 8665TIP3    H247411   3.968   3.204  16.549 -0.5143  0.2671 -0.3569
 8666TIP3   OH247412   5.334   1.590  12.461  0.1878  0.2055 -0.1400
 8666TIP3    H147413   5.384   1.560  12.536  0.2319 -0.4423 -0.4187
 8666TIP3    H247414   5.251   1.542  12.466  0.7007 -0.8723 -1.2142
 8667TIP3   OH247415   6.785   2.355  11.788  0.0229 -0.0106  0.3870
 8667TIP3    H147416   6.706   2.380  11.835  0.5250  0.5486  0.9556
 8667TIP3    H247417   6.783   2.407  11.708 -1.0635 -1.2978 -0.4616
 8668TIP3   OH247418   1.869   5.650   2.693  0.1251  0.1621  0.2635
 8668TIP3    H147419   1.791   5.663   2.638  0.1301  1.4858  0.5297
 8668TIP3    H247420   1.936   5.704   2.651  1.0115 -1.1894 -0.1302
 8669TIP3   OH247421   2.996   1.114  11.006 -0.0286  1.0206  1.0754
 8669TIP3    H147422   3.056   1.040  11.008  0.7593  1.6513  1.0691
 8669TIP3    H247423   2.930   1.089  10.941  0.2749  0.3675  1.0071
 8670TIP3   OH247424   4.492   2.951  10.190  0.2591  0.0673 -0.2946
 8670TIP3    H147425   4.403   2.939  10.223  0.1935 -0.5291 -0.6700
 8670TIP3    H247426   4.544   2.886  10.239  0.3021 -0.2737 -0.7874
 8671TIP3   OH247427   6.218   4.910   6.419 -0.2047  0.0005  0.7215
 8671TIP3    H147428   6.152   4.883   6.483 -0.3256  2.8010  1.9015
 8671TIP3    H247429   6.261   4.985   6.459  2.5861 -0.6600 -0.7605
 8672TIP3   OH247430   4.597   5.233  13.159 -0.0051  0.0227 -0.0676
 8672TIP3    H147431   4.647   5.309  13.127 -2.2742  0.2805 -3.6092
 8672TIP3    H247432   4.507   5.265  13.166 -1.0368 -2.2662 -1.7163
 8673TIP3   OH247433   3.362   0.830  11.230  0.0503 -0.2169 -0.3966
 8673TIP3    H147434   3.417   0.904  11.206 -0.9750  0.1983 -1.5899
 8673TIP3    H247435   3.424   0.762  11.258  1.1027  0.5283 -0.8444
 8674TIP3   OH247436   3.102   3.197   5.075 -0.5826 -0.2151  0.3847
 8674TIP3    H147437   3.015   3.179   5.111 -0.7578  1.1344  0.7117
 8674TIP3    H247438   3.092   3.282   5.033  0.4254 -0.3571 -0.1536
 8675TIP3   OH247439   6.741   1.951  12.707  0.0814  0.1311  0.2422
 8675TIP3    H147440   6.793   1.877  12.738  0.7814  0.3548 -0.3584
 8675TIP3    H247441   6.661   1.912  12.673  0.8047 -0.4380 -0.8446
 8676TIP3   OH247442   3.483   2.461  12.098 -0.1242  0.5172  0.4815
 8676TIP3    H147443   3.515   2.537  12.148  2.2238 -0.0400 -0.0361
 8676TIP3    H247444   3.475   2.391  12.162  0.0144  0.5926  0.5825
 8677TIP3   OH247445   3.745   6.327  11.081 -0.2267 -0.8498  0.0967
 8677TIP3    H147446   3.703   6.353  11.163 -0.6839  1.1082 -0.6968
 8677TIP3    H247447   3.698   6.247  11.055 -1.7790 -0.1204  0.5176
 8678TIP3   OH247448   4.710   6.258  13.493 -0.4265 -0.0647 -0.1413
 8678TIP3    H147449   4.705   6.337  13.439  1.1126  0.2511  0.1284
 8678TIP3    H247450   4.729   6.291  13.581 -0.4232 -0.7035  0.0984
 8679TIP3   OH247451   1.545   0.501  17.174 -0.0668  0.2980  0.6086
 8679TIP3    H147452   1.574   0.573  17.230 -0.3124  0.4771  0.5077
 8679TIP3    H247453   1.548   0.536  17.085  1.2929 -0.3054  0.4044
 8680TIP3   OH247454   5.725   3.534  11.420  0.5029  0.5541  0.0801
 8680TIP3    H147455   5.798   3.503  11.367 -0.0096  0.7742 -0.7870
 8680TIP3    H247456   5.651   3.480  11.392  0.1772  0.8241  0.4110
 8681TIP3   OH247457   1.657   3.269   2.722 -0.1804  0.1984 -0.5600
 8681TIP3    H147458   1.727   3.333   2.710  0.7014 -0.4944  0.6828
 8681TIP3    H247459   1.621   3.288   2.808 -1.5693  0.5537 -1.1806
 8682TIP3   OH247460   2.320   1.648  14.120  0.4056  0.1956 -0.8273
 8682TIP3    H147461   2.297   1.734  14.154  0.9216 -0.0469  0.1692
 8682TIP3    H247462   2.245   1.623  14.066 -1.2215 -0.0755  1.3984
 8683TIP3   OH247463   2.232   0.966  13.760  0.2998  0.3423  0.0361
 8683TIP3    H147464   2.247   1.059  13.773  1.3997  0.1854  0.0175
 8683TIP3    H247465   2.247   0.952  13.666  0.3412  0.1098  0.0753
 8684TIP3   OH247466   2.906   2.121  16.498 -0.6474 -0.2028 -0.1437
 8684TIP3    H147467   2.923   2.157  16.585 -2.3409 -0.9413  0.5205
 8684TIP3    H247468   2.913   2.196  16.439  2.0107  0.0626  0.3707
 8685TIP3   OH247469   3.868   5.994   4.629 -0.1697  0.3747  0.2380
 8685TIP3    H147470   3.829   5.995   4.716  0.9532 -0.9955  0.7979
 8685TIP3    H247471   3.869   6.086   4.602 -2.7269  0.5796  0.6173
 8686TIP3   OH247472   5.547   4.196  10.965 -0.6474 -0.2956 -0.0402
 8686TIP3    H147473   5.531   4.290  10.963  1.4231  0.1838  1.7313
 8686TIP3    H247474   5.509   4.163  10.884  0.5052  2.3983 -1.8270
 8687TIP3   OH247475   2.064   4.906  13.874 -0.2250 -0.2345  0.8516
 8687TIP3    H147476   2.115   4.892  13.953  1.5380  0.5642 -0.0969
 8687TIP3    H247477   2.070   4.823  13.827  1.6909  0.3443 -0.0319
 8688TIP3   OH247478   6.201   0.128  14.216 -1.0285 -0.4338 -0.5248
 8688TIP3    H147479   6.151   0.170  14.286 -2.3622 -0.5887 -1.3646
 8688TIP3    H247480   6.201   0.191  14.145  0.9937  0.0498 -0.1641
 8689TIP3   OH247481   1.775   6.055   0.110  0.2298 -0.2334 -0.4079
 8689TIP3    H147482   1.829   5.983   0.144  1.4425  0.5515 -0.6180
 8689TIP3    H247483   1.743   6.022   0.025  2.4314  0.1750 -1.4783
 8690TIP3   OH247484   4.031   3.391   0.724  0.5825 -0.1984 -0.2213
 8690TIP3    H147485   4.057   3.365   0.636  1.4626 -2.5118  0.6149
 8690TIP3    H247486   4.110   3.428   0.762  1.6136 -3.1727  0.8843
 8691TIP3   OH247487   1.826   3.544  16.826 -0.1133 -0.0326 -0.4810
 8691TIP3    H147488   1.900   3.600  16.849  0.6430 -0.1602 -2.3759
 8691TIP3    H247489   1.787   3.587  16.749 -0.0481 -1.6216 -1.4466
 8692TIP3   OH247490   2.502   2.892  12.672  0.0836 -0.1751 -0.6007
 8692TIP3    H147491   2.494   2.938  12.756  1.1895 -1.6344  0.3500
 8692TIP3    H247492   2.589   2.853  12.674 -0.0300 -0.6003 -2.2733
 8693TIP3   OH247493   3.693   3.280  16.749  0.2833  0.1764  0.8262
 8693TIP3    H147494   3.783   3.261  16.725  0.1438  1.3147 -0.8007
 8693TIP3    H247495   3.644   3.275  16.667 -1.1094 -0.2522  1.6461
 8694TIP3   OH247496   0.564   3.634  16.466 -0.2457 -0.1756  0.4343
 8694TIP3    H147497   0.581   3.682  16.385 -1.8518 -1.8403 -0.9905
 8694TIP3    H247498   0.642   3.580  16.479 -1.1013 -2.0890 -1.7278
 8695TIP3   OH247499   6.022   3.386   2.198  0.2481  0.8940 -0.2352
 8695TIP3    H147500   6.066   3.385   2.282 -1.0561 -2.5317  0.5815
 8695TIP3    H247501   6.080   3.337   2.140 -0.7535 -0.5457 -0.0877
 8696TIP3   OH247502   0.261   2.021   4.655 -0.4077  0.5078 -0.3269
 8696TIP3    H147503   0.307   2.060   4.581  0.8803 -0.4355 -0.0529
 8696TIP3    H247504   0.168   2.027   4.631 -0.0085 -0.0675 -2.1695
 8697TIP3   OH247505   5.095   2.349  14.865  0.7154  0.2432  0.0077
 8697TIP3    H147506   5.037   2.349  14.942  1.5783 -0.6747  0.6872
 8697TIP3    H247507   5.093   2.440  14.834  1.8995  1.1638  2.3479
 8698TIP3   OH247508   4.277   4.353   2.983 -0.5531 -0.7327  0.2306
 8698TIP3    H147509   4.348   4.332   2.923 -0.5840  0.2955 -0.1755
 8698TIP3    H247510   4.204   4.298   2.954 -0.1511 -1.2580  0.2014
 8699TIP3   OH247511   2.149   6.757   4.347  0.0901 -0.1048  0.7726
 8699TIP3    H147512   2.135   6.820   4.418  0.4817 -2.2796  2.9156
 8699TIP3    H247513   2.221   6.701   4.378  1.2650 -0.2919 -2.0010
 8700TIP3   OH247514   0.745   1.306   1.868  0.1782 -1.5198  0.0145
 8700TIP3    H147515   0.707   1.240   1.810 -1.5007 -0.3851 -0.2561
 8700TIP3    H247516   0.739   1.387   1.818 -0.1081 -0.7444  1.2672
 8701TIP3   OH247517   0.489   2.106  12.487  0.3199  0.3727  0.4321
 8701TIP3    H147518   0.403   2.146  12.482  0.7450  1.1499 -0.8536
 8701TIP3    H247519   0.481   2.024  12.438  0.8192  1.4174 -1.4831
 8702TIP3   OH247520   4.286   4.245  15.661  0.2871 -0.1073 -0.0698
 8702TIP3    H147521   4.249   4.303  15.594  0.5615  0.3008  0.1236
 8702TIP3    H247522   4.212   4.192  15.691  0.2195 -0.4896 -0.8880
 8703TIP3   OH247523   3.847   0.063  14.444  0.0989 -0.3278  0.3147
 8703TIP3    H147524   3.753   0.077  14.452  0.2857  0.5588  1.3409
 8703TIP3    H247525   3.885   0.131  14.500  1.4101  0.4133 -1.3999
 8704TIP3   OH247526   6.461   4.571  15.099 -0.7633 -0.3273 -0.1195
 8704TIP3    H147527   6.369   4.591  15.115 -1.1068 -2.1376  0.3802
 8704TIP3    H247528   6.484   4.506  15.166  0.3802 -1.1916 -1.2889
 8705TIP3   OH247529   4.192   4.236   5.292  0.8018  0.1092 -0.1148
 8705TIP3    H147530   4.204   4.190   5.209  0.8180 -0.3906  0.1622
 8705TIP3    H247531   4.109   4.203   5.326  1.2625 -0.4082  0.5285
 8706TIP3   OH247532   6.654   3.496  16.613 -0.0255  0.3009  0.4801
 8706TIP3    H147533   6.620   3.411  16.642  0.9817  0.1416  1.2706
 8706TIP3    H247534   6.651   3.492  16.518 -0.9469 -0.2137  0.5204
 8707TIP3   OH247535   3.618   0.339  14.793  0.1222 -0.1794 -0.6781
 8707TIP3    H147536   3.535   0.384  14.780 -1.1000 -2.2708 -0.5713
 8707TIP3    H247537   3.625   0.329  14.888 -0.4505 -1.5659 -0.7501
 8708TIP3   OH247538   5.414   5.348  11.222 -0.2052  0.4777 -0.5703
 8708TIP3    H147539   5.372   5.381  11.143 -0.0286  3.1431  0.3186
 8708TIP3    H247540   5.504   5.381  11.216 -0.6260  2.2492  1.4265
 8709TIP3   OH247541   2.462   2.899   3.699  0.7868 -0.0645 -0.2673
 8709TIP3    H147542   2.444   2.832   3.765 -1.1191  1.8857  1.3271
 8709TIP3    H247543   2.533   2.951   3.736  1.4730 -0.4794 -0.9716
 8710TIP3   OH247544   4.123   0.054   0.175  0.1889  0.5305 -0.3420
 8710TIP3    H147545   4.098  -0.034   0.204 -0.7553  1.0968  0.6353
 8710TIP3    H247546   4.172   0.090   0.249 -2.5395  2.1193  0.8302
 8711TIP3   OH247547   6.423   4.870   3.497 -0.7193  0.0797  0.0530
 8711TIP3    H147548   6.441   4.780   3.471  0.5139 -0.4671  2.4656
 8711TIP3    H247549   6.506   4.916   3.482 -0.2342 -0.0634  1.9357
 8712TIP3   OH247550   3.932   1.883  11.415  0.7533 -0.3105  0.4224
 8712TIP3    H147551   3.976   1.863  11.498  0.5635 -0.1030  0.5726
 8712TIP3    H247552   3.990   1.946  11.372  0.8384 -0.3974  0.4087
 8713TIP3   OH247553   5.080   0.454   2.493 -0.6860  0.0333 -0.3469
 8713TIP3    H147554   5.101   0.542   2.526 -1.5008 -0.0578  0.4498
 8713TIP3    H247555   5.095   0.460   2.399 -0.1379  0.8514 -0.2212
 8714TIP3   OH247556   6.517   0.569   0.834  0.2890 -0.3541  0.3772
 8714TIP3    H147557   6.436   0.518   0.842 -0.3748  0.6636  0.2121
 8714TIP3    H247558   6.498   0.635   0.768  0.9348  0.4935  1.0167
 8715TIP3   OH247559   6.247   1.021   0.774  0.2297  0.4210 -0.0779
 8715TIP3    H147560   6.335   1.030   0.738 -0.2568  2.0152 -0.9359
 8715TIP3    H247561   6.230   1.104   0.819 -2.4036  2.0853 -3.6154
 8716TIP3   OH247562   0.265   2.664  10.140 -0.0032  0.3090 -0.6528
 8716TIP3    H147563   0.308   2.711  10.212 -0.7484 -0.7047  0.4795
 8716TIP3    H247564   0.172   2.665  10.162  0.0039 -2.1778 -0.2594
 8717TIP3   OH247565   1.591   3.001   0.843 -0.0561  0.1603 -0.2634
 8717TIP3    H147566   1.658   3.045   0.790 -0.2820 -0.3246 -0.9728
 8717TIP3    H247567   1.606   3.033   0.932  0.2639  1.0874 -0.6310
 8718TIP3   OH247568   0.064   1.394   0.340 -0.6119  0.5639  0.1407
 8718TIP3    H147569   0.058   1.474   0.286 -0.0412 -0.3422 -1.3163
 8718TIP3    H247570   0.039   1.324   0.281 -1.1588 -0.3603  1.4270
 8719TIP3   OH247571   1.129   4.364  10.420 -0.1018 -0.3461 -0.2270
 8719TIP3    H147572   1.115   4.283  10.469  0.5330 -0.1274  0.3283
 8719TIP3    H247573   1.203   4.346  10.362  0.4902  0.0448  0.3938
 8720TIP3   OH247574   5.247   3.949  13.508  0.0834 -0.1149  0.4233
 8720TIP3    H147575   5.247   3.997  13.591  2.1837  1.3992 -0.3807
 8720TIP3    H247576   5.301   3.872  13.525  0.9724  0.4784  0.3398
 8721TIP3   OH247577   0.715   0.144   2.919 -0.1296  0.0932 -0.2610
 8721TIP3    H147578   0.653   0.077   2.947 -1.6662  1.6951  0.3597
 8721TIP3    H247579   0.690   0.163   2.829  1.3411 -1.2334 -1.0020
 8722TIP3   OH247580   1.125   1.870   5.975 -0.5334 -0.4964  0.5779
 8722TIP3    H147581   1.198   1.812   5.955 -0.8523 -1.4777  2.0332
 8722TIP3    H247582   1.048   1.822   5.946 -0.6861 -0.0059  0.1607
 8723TIP3   OH247583   0.798   0.255   3.926 -0.2614 -0.1423  0.7214
 8723TIP3    H147584   0.819   0.346   3.906 -0.1127 -0.2269  0.4941
 8723TIP3    H247585   0.717   0.260   3.978 -0.1277  0.1325  0.9054
 8724TIP3   OH247586   3.605   5.112  12.026 -0.3088  0.5495 -0.1018
 8724TIP3    H147587   3.618   5.131  12.118  0.7276  1.5989 -0.4461
 8724TIP3    H247588   3.512   5.128  12.011 -0.9621 -1.6533  1.1873
 8725TIP3   OH247589   2.480   0.266  15.937  0.0885  0.1099  0.1545
 8725TIP3    H147590   2.464   0.210  16.013 -0.6023  1.6245  1.1707
 8725TIP3    H247591   2.407   0.249  15.878  0.5756 -0.9962 -0.1626
 8726TIP3   OH247592   0.802   2.126  16.375 -0.1839 -0.0193 -0.1713
 8726TIP3    H147593   0.823   2.145  16.284  1.2936  1.2880  0.3796
 8726TIP3    H247594   0.790   2.212  16.415  0.6443 -0.4818  1.1588
 8727TIP3   OH247595   2.693   2.635   3.937 -0.0512  0.0639 -0.1212
 8727TIP3    H147596   2.697   2.643   4.032 -0.3082 -0.9462 -0.0157
 8727TIP3    H247597   2.606   2.670   3.914 -0.3984 -0.6080  0.1311
 8728TIP3   OH247598   6.703   2.302   1.971  0.0245 -0.2213 -0.2824
 8728TIP3    H147599   6.786   2.331   1.934 -0.5675 -0.4322 -1.8979
 8728TIP3    H247600   6.721   2.287   2.064  2.2695 -2.0080 -0.9143
 8729TIP3   OH247601   1.305   3.757  11.446 -0.3773 -0.2011 -0.0669
 8729TIP3    H147602   1.305   3.664  11.470 -0.1095 -0.4576 -0.9921
 8729TIP3    H247603   1.396   3.774  11.420 -0.7379 -0.0783 -1.3141
 8730TIP3   OH247604   6.280   4.529  16.326  0.0637  0.1670 -0.0331
 8730TIP3    H147605   6.197   4.503  16.287  1.0061 -0.1582 -1.9692
 8730TIP3    H247606   6.276   4.496  16.416 -0.8393 -2.2488 -0.8680
 8731TIP3   OH247607   1.698   6.500   5.243  0.5974  0.2463 -0.5683
 8731TIP3    H147608   1.670   6.513   5.152  0.8964 -1.0176 -0.8657
 8731TIP3    H247609   1.698   6.405   5.255  5.7861 -0.1001 -0.9679
 8732TIP3   OH247610   1.258   6.576   0.545  0.4027 -0.6095  0.0642
 8732TIP3    H147611   1.269   6.655   0.493 -0.4211 -0.6637 -0.2008
 8732TIP3    H247612   1.304   6.508   0.495  2.3925 -0.0339  1.0173
 8733TIP3   OH247613   0.864   4.702   5.216  0.0244 -0.3719  0.3434
 8733TIP3    H147614   0.957   4.704   5.239  0.2478 -1.2959 -0.4165
 8733TIP3    H247615   0.838   4.611   5.228 -1.1150  0.0974  1.7313
 8734TIP3   OH247616   1.483   3.387   2.200 -0.1535  0.6477 -0.1045
 8734TIP3    H147617   1.400   3.383   2.152 -0.0871  2.8952 -0.5007
 8734TIP3    H247618   1.541   3.327   2.152 -1.7985 -1.9153  0.8820
 8735TIP3   OH247619   2.647   5.087  13.204 -0.3073  0.3221  0.2131
 8735TIP3    H147620   2.704   5.090  13.128  0.0243 -3.7615  0.0387
 8735TIP3    H247621   2.689   5.144  13.269  1.8342  0.4660 -1.2077
 8736TIP3   OH247622   6.181   0.452   3.257  0.0084  0.0753  0.2683
 8736TIP3    H147623   6.200   0.546   3.260  1.8832 -0.2896  2.0014
 8736TIP3    H247624   6.094   0.446   3.216 -1.3000  2.7250  2.3512
 8737TIP3   OH247625   1.336   0.141   4.910  0.3702 -0.1464 -0.0222
 8737TIP3    H147626   1.375   0.161   4.825  0.8872  0.8362  0.4378
 8737TIP3    H247627   1.364   0.212   4.967  0.6682 -1.1747  1.1734
 8738TIP3   OH247628   2.582   4.153  12.581  0.0551 -0.2004  0.4638
 8738TIP3    H147629   2.516   4.106  12.631  0.5937 -0.0060  1.3754
 8738TIP3    H247630   2.557   4.245  12.589 -0.6502 -0.2599 -0.8090
 8739TIP3   OH247631   5.324   1.820   3.366 -0.0245  0.5603 -0.4896
 8739TIP3    H147632   5.258   1.752   3.375  0.8399 -0.2277  0.0852
 8739TIP3    H247633   5.284   1.884   3.307 -1.2175  0.0217 -0.2997
 8740TIP3   OH247634   4.908   2.455  12.481 -0.4554  0.0235  0.4891
 8740TIP3    H147635   4.922   2.510  12.404 -1.2153 -1.9828 -1.1962
 8740TIP3    H247636   4.928   2.511  12.556  0.0250  2.1491 -1.1549
 8741TIP3   OH247637   2.934   5.830  14.283 -0.0028 -0.0507 -0.5898
 8741TIP3    H147638   2.948   5.881  14.203 -1.2480  1.5314  0.1549
 8741TIP3    H247639   2.881   5.886  14.339  1.5594 -0.7279  1.7448
 8742TIP3   OH247640   2.841   4.773  10.442  0.2038 -0.8742  0.0382
 8742TIP3    H147641   2.925   4.779  10.398  0.9711 -0.2266  1.5111
 8742TIP3    H247642   2.851   4.701  10.504 -0.5232 -1.1682 -0.1732
 8743TIP3   OH247643   4.809   5.757   2.462  0.4064 -0.7246  0.5231
 8743TIP3    H147644   4.745   5.686   2.467 -0.4561 -0.0589 -0.5116
 8743TIP3    H247645   4.892   5.713   2.441 -0.4846 -1.3286 -2.1486
 8744TIP3   OH247646   6.766   0.340  11.848 -0.4493  0.7257  0.1097
 8744TIP3    H147647   6.738   0.404  11.782 -0.1885  0.7956  0.0663
 8744TIP3    H247648   6.856   0.365  11.868 -0.5218  0.6882  0.4751
 8745TIP3   OH247649   4.300   3.258   4.940 -0.4752 -0.1313  0.4931
 8745TIP3    H147650   4.372   3.198   4.954 -0.4794 -0.0469  0.8774
 8745TIP3    H247651   4.341   3.340   4.911 -0.4341 -0.1530  0.4908
 8746TIP3   OH247652   4.467   0.668   4.865 -0.2603 -0.4071 -0.7857
 8746TIP3    H147653   4.410   0.719   4.923  0.7253  0.2983 -0.4130
 8746TIP3    H247654   4.449   0.577   4.888  3.0076 -0.2194  3.6575
 8747TIP3   OH247655   4.554   5.481   0.462 -0.1481 -0.2018 -0.2974
 8747TIP3    H147656   4.587   5.537   0.391 -0.7766  0.1416 -0.3242
 8747TIP3    H247657   4.625   5.478   0.525  0.6801 -1.0351 -1.2259
 8748TIP3   OH247658   5.920   0.932   5.893  0.7155  0.4523 -0.4409
 8748TIP3    H147659   5.991   0.868   5.899  1.4391  1.3786  2.4168
 8748TIP3    H247660   5.932   0.989   5.969 -3.2345  0.5194  0.3661
 8749TIP3   OH247661   2.723   0.751  16.525  0.5159  0.0383 -0.2718
 8749TIP3    H147662   2.784   0.812  16.483  0.2305 -0.2787 -1.1559
 8749TIP3    H247663   2.643   0.803  16.538  1.1643  0.6799  1.5597
 8750TIP3   OH247664   5.327   1.205  15.277  0.0104 -0.2380 -0.7253
 8750TIP3    H147665   5.350   1.207  15.369  1.3752 -0.8148 -1.0392
 8750TIP3    H247666   5.387   1.267  15.236 -0.1494 -0.4689 -1.3206
 8751TIP3   OH247667   5.495   0.721  10.713 -0.5386  0.5373  0.2301
 8751TIP3    H147668   5.432   0.741  10.782 -1.4770  0.4823 -0.5797
 8751TIP3    H247669   5.458   0.644  10.669  0.0651  0.5464 -0.2969
 8752TIP3   OH247670   4.239   4.184   6.181  0.4669  0.4778  0.0529
 8752TIP3    H147671   4.280   4.193   6.095 -2.1140  3.5977 -1.0665
 8752TIP3    H247672   4.291   4.241   6.238  0.5539  0.5849 -0.1307
 8753TIP3   OH247673   6.613   1.192   1.528 -0.2341  0.1581  0.0123
 8753TIP3    H147674   6.622   1.106   1.568  0.7352  0.1094 -0.2900
 8753TIP3    H247675   6.628   1.253   1.601  0.5514  0.0665 -0.0634
 8754TIP3   OH247676   5.366   4.582   5.635 -0.3458  0.0422 -0.2400
 8754TIP3    H147677   5.360   4.613   5.545  2.6091  0.9215 -0.2153
 8754TIP3    H247678   5.335   4.491   5.631 -3.7051  1.0664 -1.3621
 8755TIP3   OH247679   5.717   1.752   3.954 -0.1705  0.0295  0.0928
 8755TIP3    H147680   5.631   1.781   3.924  0.3587  1.9983  0.3961
 8755TIP3    H247681   5.705   1.735   4.047 -0.5991 -1.3034 -0.1787
 8756TIP3   OH247682   6.244   4.906   1.133 -0.0158 -0.3223  0.1071
 8756TIP3    H147683   6.192   4.839   1.089 -0.9119  0.8893 -0.7480
 8756TIP3    H247684   6.257   4.974   1.066  2.1838 -0.3058  0.4595
 8757TIP3   OH247685   5.319   4.633   3.294  0.3650 -0.3541 -0.3904
 8757TIP3    H147686   5.392   4.668   3.244  0.9968 -0.2394  0.5953
 8757TIP3    H247687   5.241   4.658   3.244  1.0005 -0.8091 -1.6495
 8758TIP3   OH247688   3.196   4.081   5.616 -0.1467  0.0762 -0.0953
 8758TIP3    H147689   3.148   4.028   5.553 -0.1301 -0.4017  0.2931
 8758TIP3    H247690   3.222   4.159   5.566  1.7901 -1.2701 -1.3396
 8759TIP3   OH247691   3.776   4.717  13.282  0.1914 -0.6696 -0.1153
 8759TIP3    H147692   3.722   4.709  13.361 -0.4558  0.8436 -0.3572
 8759TIP3    H247693   3.828   4.796  13.296  1.3677 -1.3534 -0.4803
 8760TIP3   OH247694   1.656   4.560  12.085 -0.1754 -0.2895 -0.4421
 8760TIP3    H147695   1.653   4.594  11.995  1.0711 -0.6127 -0.6291
 8760TIP3    H247696   1.672   4.637  12.139 -1.1424 -0.0609 -0.4573
 8761TIP3   OH247697   1.530   0.909   3.927  0.0363  0.0210  0.6705
 8761TIP3    H147698   1.548   0.972   3.857  0.7641 -0.9778 -0.0586
 8761TIP3    H247699   1.615   0.871   3.947 -0.3306 -0.4145  1.4110
 8762TIP3   OH247700   0.906   4.383  14.682 -0.1548 -0.5175 -0.4353
 8762TIP3    H147701   0.863   4.383  14.597  0.2940 -0.3677 -0.6656
 8762TIP3    H247702   0.863   4.313  14.731 -0.0405 -0.9680 -0.9735
 8763TIP3   OH247703   3.019   6.686   3.226  0.4833  0.2023 -0.4422
 8763TIP3    H147704   2.997   6.779   3.224 -1.5938 -0.2130  0.7034
 8763TIP3    H247705   3.109   6.684   3.257 -0.0052  1.7884  1.2519
 8764TIP3   OH247706   3.832   4.573  14.108 -0.1458 -0.2475  0.4301
 8764TIP3    H147707   3.764   4.595  14.172  1.2106  1.0921  1.4773
 8764TIP3    H247708   3.911   4.561  14.161  0.7566 -0.2881 -0.8981
 8765TIP3   OH247709   4.114   5.675   3.125 -0.4112 -0.0181  0.1851
 8765TIP3    H147710   4.193   5.684   3.179 -0.0201  1.7212 -0.6021
 8765TIP3    H247711   4.059   5.749   3.151 -0.4081  0.5868 -1.4351
 8766TIP3   OH247712   1.161   2.038   0.924  0.2059 -0.3407  0.1990
 8766TIP3    H147713   1.223   2.109   0.941 -1.3677  1.4363 -1.0782
 8766TIP3    H247714   1.216   1.968   0.887  1.7772  0.2339  1.3310
 8767TIP3   OH247715   5.233   5.155  12.953  0.3280  1.0334  0.0817
 8767TIP3    H147716   5.276   5.240  12.957 -0.1335  1.2445  0.7106
 8767TIP3    H247717   5.194   5.144  13.040  0.5482  0.0954  0.0778
 8768TIP3   OH247718   1.144   0.373   2.629 -0.3751 -0.1907  0.5315
 8768TIP3    H147719   1.128   0.320   2.707 -0.3538  1.1759  1.5111
 8768TIP3    H247720   1.057   0.397   2.598 -0.4044 -1.5168 -0.4390
 8769TIP3   OH247721   0.432   1.317  11.914  0.2590  0.3345  0.0003
 8769TIP3    H147722   0.442   1.293  11.822  0.2763  0.3201  0.0060
 8769TIP3    H247723   0.452   1.411  11.915  1.9003  0.0100  0.2543
 8770TIP3   OH247724   2.246   0.273   1.996  0.9080  0.3170  0.1772
 8770TIP3    H147725   2.272   0.358   2.030 -0.7486  1.2023 -0.6481
 8770TIP3    H247726   2.282   0.271   1.907 -1.7575  1.6265 -1.0398
 8771TIP3   OH247727   0.607   0.568   4.493  0.0893 -0.1810  0.4381
 8771TIP3    H147728   0.544   0.591   4.562 -0.0687 -0.3736  0.3572
 8771TIP3    H247729   0.601   0.641   4.431  0.0415 -0.1358  0.4948
 8772TIP3   OH247730   3.036   6.324   5.589  0.1293  0.6023 -0.4108
 8772TIP3    H147731   2.948   6.345   5.557 -0.7505 -0.2457  1.2835
 8772TIP3    H247732   3.069   6.407   5.624  1.0975  1.5343 -3.2976
 8773TIP3   OH247733   5.328   0.018  16.173 -0.2822  0.2619 -0.1279
 8773TIP3    H147734   5.333   0.107  16.209 -1.9270  0.4655 -0.3416
 8773TIP3    H247735   5.390  -0.032  16.226  1.0682  1.6261 -0.3387
 8774TIP3   OH247736   0.330   2.574   2.594  0.7267 -0.0280  0.3384
 8774TIP3    H147737   0.413   2.534   2.567  1.5877  2.0943 -0.3395
 8774TIP3    H247738   0.354   2.633   2.665 -0.4654 -0.4384  1.1133
 8775TIP3   OH247739   5.198   4.228  14.326  0.4821 -1.0003  0.4340
 8775TIP3    H147740   5.126   4.239  14.264  1.5306  1.3514 -0.4754
 8775TIP3    H247741   5.212   4.133  14.330 -0.8021 -1.3327 -1.5108
 8776TIP3   OH247742   6.144   3.303  15.790 -0.5824 -0.1139 -0.3271
 8776TIP3    H147743   6.182   3.234  15.735  1.5438  0.0701  0.7740
 8776TIP3    H247744   6.188   3.383  15.762 -0.4150  0.1882  0.7524
 8777TIP3   OH247745   1.378   5.496   5.235  0.4337  0.0088 -0.5804
 8777TIP3    H147746   1.317   5.466   5.302 -0.1743  0.6160 -0.8370
 8777TIP3    H247747   1.391   5.421   5.178  0.9926 -0.5234  0.2403
 8778TIP3   OH247748   5.432   1.043   6.375  0.1163  0.1253 -0.0119
 8778TIP3    H147749   5.488   1.033   6.298  1.3157 -1.3277  0.9842
 8778TIP3    H247750   5.360   1.098   6.345  0.8914  0.1668 -1.9766
 8779TIP3   OH247751   0.043   3.432  11.738 -0.9089  0.3893  0.3498
 8779TIP3    H147752   0.115   3.492  11.755 -0.1374 -0.9766  2.2938
 8779TIP3    H247753   0.070   3.350  11.778 -2.5074 -0.8905 -1.0359
 8780TIP3   OH247754   1.708   5.790  11.330  0.2918 -0.0916  0.1052
 8780TIP3    H147755   1.729   5.739  11.409  0.8834  1.0680  0.7151
 8780TIP3    H247756   1.634   5.743  11.291  1.4127 -1.9634  0.1148
 8781TIP3   OH247757   2.383   6.546  17.025 -0.9357  0.0702  0.4201
 8781TIP3    H147758   2.294   6.523  16.997 -0.8698  0.0267  0.2438
 8781TIP3    H247759   2.440   6.503  16.960 -0.8509  2.5418 -1.2795
 8782TIP3   OH247760   3.580   6.567   0.508 -0.1208 -0.6174 -0.6576
 8782TIP3    H147761   3.643   6.597   0.574  1.0698 -2.3915 -0.9083
 8782TIP3    H247762   3.590   6.629   0.436  1.7323 -1.1004 -0.8694
 8783TIP3   OH247763   1.877   4.011   1.981 -0.3715 -0.4754  0.0349
 8783TIP3    H147764   1.902   4.074   2.048  0.3020 -0.7380  0.0285
 8783TIP3    H247765   1.781   4.012   1.982 -0.3837 -0.9738  1.4668
 8784TIP3   OH247766   6.140   0.817  15.900 -0.3171 -0.3240  0.6873
 8784TIP3    H147767   6.139   0.822  15.804  0.2838 -0.2488  0.6779
 8784TIP3    H247768   6.087   0.740  15.921 -1.5832  0.4281  0.3642
 8785TIP3   OH247769   1.463   6.580  15.893 -0.5825  0.4459  0.0328
 8785TIP3    H147770   1.431   6.597  15.805 -1.4809  1.4215  0.5272
 8785TIP3    H247771   1.478   6.667  15.931  0.9665  0.0458  0.4444
 8786TIP3   OH247772   5.453   0.076   4.486 -0.1127  0.0490  0.1589
 8786TIP3    H147773   5.535   0.123   4.471 -0.5106  0.5659 -0.3991
 8786TIP3    H247774   5.399   0.137   4.536 -1.4367  1.0752 -2.3581
 8787TIP3   OH247775   3.254   6.074   2.550  0.1757  0.6823  0.1053
 8787TIP3    H147776   3.241   5.983   2.573 -0.1765  0.6449 -0.2275
 8787TIP3    H247777   3.277   6.117   2.632  0.6013  0.2482  0.2175
 8788TIP3   OH247778   2.218   5.854  10.969  0.4862 -0.3591 -0.0183
 8788TIP3    H147779   2.275   5.781  10.993 -0.5481 -1.8018 -1.6798
 8788TIP3    H247780   2.241   5.873  10.878 -0.5856  0.1022 -0.2064
 8789TIP3   OH247781   0.817   2.433   0.014  0.0529 -0.3562 -0.2545
 8789TIP3    H147782   0.819   2.338   0.004 -2.4101 -0.4442 -0.5959
 8789TIP3    H247783   0.774   2.465  -0.065  2.9257  1.3296 -1.2604
 8790TIP3   OH247784   4.367   2.597   5.647 -0.3013 -0.1341 -0.1688
 8790TIP3    H147785   4.341   2.514   5.607  1.7305 -0.6542 -0.5300
 8790TIP3    H247786   4.378   2.576   5.740  0.1170 -0.2789 -0.2444
 8791TIP3   OH247787   0.722   6.608  13.950  0.0948  0.3572  0.1600
 8791TIP3    H147788   0.687   6.691  13.983 -0.3507 -0.3899  1.6307
 8791TIP3    H247789   0.655   6.576  13.890 -1.0944 -0.3005  1.7706
 8792TIP3   OH247790   5.299   1.790   2.465  0.1940 -0.0088 -0.2209
 8792TIP3    H147791   5.208   1.765   2.482 -0.4076  2.8876  1.3838
 8792TIP3    H247792   5.348   1.752   2.538  0.0093 -0.2372 -0.2139
 8793TIP3   OH247793   2.462   0.316   1.499  0.1441 -0.0475 -0.6103
 8793TIP3    H147794   2.381   0.343   1.454 -1.8159 -1.1838  1.9544
 8793TIP3    H247795   2.495   0.243   1.447  0.9081  1.8252 -2.9737
 8794TIP3   OH247796   4.355   1.211  13.151 -1.1785  0.2060  0.3698
 8794TIP3    H147797   4.383   1.123  13.123  0.6494  1.2334 -1.3576
 8794TIP3    H247798   4.264   1.200  13.177 -0.2816 -2.7192  2.8647
 8795TIP3   OH247799   0.088   2.366   2.555  0.3819  0.7118  0.0150
 8795TIP3    H147800   0.113   2.284   2.513  0.2659  1.0084 -0.6539
 8795TIP3    H247801   0.153   2.379   2.625  0.0146 -0.2675  0.5485
 8796TIP3   OH247802   2.272   1.295  15.768 -0.1045  0.0779  0.7254
 8796TIP3    H147803   2.330   1.220  15.755  1.0470  1.1085 -0.3917
 8796TIP3    H247804   2.332   1.369  15.779 -1.1219  1.5615 -2.6660
 8797TIP3   OH247805   1.577   5.664  10.681  0.1493  0.1533  0.3373
 8797TIP3    H147806   1.542   5.748  10.649  2.0260  0.4704 -1.0913
 8797TIP3    H247807   1.667   5.684  10.707  0.3589 -1.2600  0.7879
 8798TIP3   OH247808   4.324   5.977  13.960  0.3374  0.2645 -0.6732
 8798TIP3    H147809   4.320   6.072  13.962  2.1665  0.3628 -0.4053
 8798TIP3    H247810   4.413   5.957  13.932  0.0846 -1.3810 -0.4114
 8799TIP3   OH247811   5.499   5.970  15.458  0.3005  0.8722 -0.4334
 8799TIP3    H147812   5.509   6.062  15.434  1.4592  1.1025  0.8398
 8799TIP3    H247813   5.568   5.924  15.411 -0.3653  0.6198 -1.1794
 8800TIP3   OH247814   2.748   1.858   1.611 -0.2496  0.1512  0.6904
 8800TIP3    H147815   2.821   1.802   1.584 -0.5897 -0.1096  0.2960
 8800TIP3    H247816   2.675   1.830   1.555 -1.6358 -1.9467  3.3271
 8801TIP3   OH247817   0.323   3.321   0.641  0.2865 -0.0015 -0.2103
 8801TIP3    H147818   0.353   3.411   0.631  1.9459 -0.6597 -1.8495
 8801TIP3    H247819   0.398   3.274   0.676 -0.4188 -0.8406  0.2122
 8802TIP3   OH247820   5.394   0.218   1.694  0.0826  0.1741  0.0693
 8802TIP3    H147821   5.307   0.180   1.681  0.6642 -1.0090 -0.5518
 8802TIP3    H247822   5.426   0.235   1.606  1.1190 -0.9363  0.2029
 8803TIP3   OH247823   0.506   6.805   3.043  0.1436  0.4654  0.1873
 8803TIP3    H147824   0.417   6.805   3.078 -0.1413  0.7017 -0.5221
 8803TIP3    H247825   0.548   6.731   3.087 -0.8814 -0.6671 -0.6655
 8804TIP3   OH247826   2.089   4.817  13.092  0.2057 -0.0129  0.6121
 8804TIP3    H147827   2.000   4.783  13.087  0.3665 -0.2496 -1.2104
 8804TIP3    H247828   2.143   4.748  13.053  1.2406  0.0273  1.8927
 8805TIP3   OH247829   6.719   6.460  12.763 -0.2489  0.1501  0.0449
 8805TIP3    H147830   6.800   6.484  12.809  0.3897  0.3743 -1.1583
 8805TIP3    H247831   6.742   6.380  12.715 -0.0758  1.3170 -1.9382
 8806TIP3   OH247832   6.676   0.286   4.798 -0.9572 -0.0916  0.0795
 8806TIP3    H147833   6.634   0.371   4.782 -0.5941  0.2352  0.8355
 8806TIP3    H247834   6.697   0.286   4.891 -1.6660 -1.3515  0.2593
 8807TIP3   OH247835   5.986   6.155  15.082  0.4885 -0.1697 -0.0910
 8807TIP3    H147836   5.898   6.134  15.050  0.6735 -0.2863 -0.5206
 8807TIP3    H247837   5.982   6.135  15.176  0.0040 -0.0043 -0.0750
 8808TIP3   OH247838   3.643   5.117  14.940  0.0730  0.0938  0.2899
 8808TIP3    H147839   3.719   5.065  14.968  0.3134 -0.3239 -1.0378
 8808TIP3    H247840   3.680   5.201  14.913 -0.1230  0.4098  1.0031
 8809TIP3   OH247841   4.849   4.615   2.786  0.4783 -0.0043 -0.0109
 8809TIP3    H147842   4.912   4.591   2.719  1.8790  0.9961  0.8941
 8809TIP3    H247843   4.839   4.537   2.840  1.3043 -0.0342  0.1081
 8810TIP3   OH247844   4.760   3.652   2.990  0.5048  0.1039  0.4372
 8810TIP3    H147845   4.845   3.608   2.997  0.2618 -0.3099  0.7716
 8810TIP3    H247846   4.715   3.608   2.918  0.7059  0.5561  0.0235
 8811TIP3   OH247847   4.341   2.885   2.575 -0.2211  0.5662 -0.5470
 8811TIP3    H147848   4.261   2.897   2.625  0.1217 -1.1712  0.4659
 8811TIP3    H247849   4.332   2.800   2.534  0.8342  0.6314 -0.9546
 8812TIP3   OH247850   4.477   3.507   5.807 -0.1520 -0.0543 -0.6278
 8812TIP3    H147851   4.505   3.502   5.715  2.3131  0.5879  0.0147
 8812TIP3    H247852   4.495   3.597   5.833 -2.5788  0.3100  0.0413
 8813TIP3   OH247853   6.210   6.198  17.230  0.1332  0.4221  0.2127
 8813TIP3    H147854   6.178   6.223  17.143  1.6663 -0.7836 -0.7535
 8813TIP3    H247855   6.269   6.125  17.213 -0.0362 -0.2718  2.3599
 8814TIP3   OH247856   4.747   3.836   3.244 -0.7962 -0.2461 -0.1459
 8814TIP3    H147857   4.752   3.745   3.272 -0.5438 -0.5319 -1.0653
 8814TIP3    H247858   4.749   3.887   3.325 -0.5806 -1.0432  0.3602
 8815TIP3   OH247859   1.345   4.512   2.491  0.5485 -0.1418 -0.3057
 8815TIP3    H147860   1.428   4.526   2.446  1.2675  0.7538  1.2115
 8815TIP3    H247861   1.302   4.597   2.489  0.8687  0.0840  1.1756
 8816TIP3   OH247862   2.506   3.575   3.328 -0.1599  0.3652 -0.1859
 8816TIP3    H147863   2.514   3.571   3.423  0.8959  1.2274 -0.2106
 8816TIP3    H247864   2.534   3.489   3.297  0.3756  0.3854  0.2392
 8817TIP3   OH247865   4.035   6.239   0.798  0.4859 -0.4367  0.0034
 8817TIP3    H147866   4.067   6.236   0.888  0.2452  1.4417  0.1971
 8817TIP3    H247867   4.112   6.224   0.743  1.3782  1.9920  0.4970
 8818TIP3   OH247868   3.650   2.213  11.852  0.0462  0.2471 -0.0164
 8818TIP3    H147869   3.727   2.210  11.795  1.4183  0.3566  1.7659
 8818TIP3    H247870   3.680   2.180  11.936 -1.3654  2.0042  1.2584
 8819TIP3   OH247871   4.844   4.004  16.233  0.3719  0.0374 -0.1616
 8819TIP3    H147872   4.923   3.999  16.287  0.9719  0.3884 -0.9986
 8819TIP3    H247873   4.786   4.065  16.280  1.1576  0.8658 -0.2526
 8820TIP3   OH247874   1.693   1.483  11.906 -0.2301 -0.2536 -0.3238
 8820TIP3    H147875   1.661   1.503  11.818  0.2108 -0.4064 -0.5212
 8820TIP3    H247876   1.708   1.569  11.946 -3.0644 -0.1007  0.6077
 8821TIP3   OH247877   3.286   4.655  12.653  0.0817  0.1355  0.0016
 8821TIP3    H147878   3.322   4.570  12.628  1.2311  0.6571 -0.1860
 8821TIP3    H247879   3.239   4.638  12.734  3.1138 -0.1088  1.8613
 8822TIP3   OH247880   5.697   3.635  16.656 -0.4026  0.1245 -0.5044
 8822TIP3    H147881   5.620   3.603  16.703 -0.5895  1.2918  0.0241
 8822TIP3    H247882   5.728   3.559  16.607 -1.1789 -0.6863  0.2148
 8823TIP3   OH247883   6.480   4.253  16.574  0.0669 -0.0216 -0.4090
 8823TIP3    H147884   6.552   4.282  16.630 -0.4373  1.9807 -0.7137
 8823TIP3    H247885   6.473   4.159  16.589  1.4644  0.0889  1.0965
 8824TIP3   OH247886   5.936   4.505   5.512  0.3869  0.0590 -0.6865
 8824TIP3    H147887   6.000   4.576   5.526 -1.1489  1.1454  1.3941
 8824TIP3    H247888   5.854   4.541   5.545 -0.6321 -2.4221 -0.3566
 8825TIP3   OH247889   2.777   1.485   2.992 -0.0154  0.4158  0.2943
 8825TIP3    H147890   2.765   1.399   2.951 -0.4915  0.1050  1.0692
 8825TIP3    H247891   2.689   1.515   3.013  0.0395  1.7208 -1.1790
 8826TIP3   OH247892   1.789   3.762  12.212 -0.2331  0.7320  0.0722
 8826TIP3    H147893   1.719   3.770  12.147 -1.4785 -0.6574  1.1388
 8826TIP3    H247894   1.744   3.777  12.296  0.7324 -0.2437  0.7872
 8827TIP3   OH247895   4.023   6.592   0.079  0.4986  0.7752  0.2269
 8827TIP3    H147896   4.087   6.620   0.014  0.5627  0.6890  0.2524
 8827TIP3    H247897   4.076   6.558   0.151  0.4346 -1.4561 -0.6803
 8828TIP3   OH247898   0.481   0.597  17.133 -0.1167 -0.4993 -0.4457
 8828TIP3    H147899   0.418   0.635  17.072  0.6843  1.5600 -0.0924
 8828TIP3    H247900   0.555   0.570  17.078  0.3207  0.7427 -0.5187
 8829TIP3   OH247901   4.136   6.514   0.905 -0.3405 -0.5288  0.1497
 8829TIP3    H147902   4.133   6.515   0.810  3.0785 -1.7472 -0.1211
 8829TIP3    H247903   4.064   6.455   0.931 -1.9021  0.5389 -1.5457
 8830TIP3   OH247904   1.691   6.416   0.759  0.5843  0.9395  0.2600
 8830TIP3    H147905   1.669   6.479   0.690  0.6374  1.1868  0.4681
 8830TIP3    H247906   1.784   6.431   0.776  1.0073 -0.2825 -0.8052
 8831TIP3   OH247907   1.885   4.524  12.842 -0.4836  0.1573 -0.3856
 8831TIP3    H147908   1.864   4.601  12.896  1.7513  0.4187  0.2178
 8831TIP3    H247909   1.919   4.460  12.904  0.1976 -0.3065 -1.2241
 8832TIP3   OH247910   2.808   4.216  11.324 -0.6743 -0.6774  0.4386
 8832TIP3    H147911   2.848   4.165  11.254 -0.1633 -1.2303  1.1261
 8832TIP3    H247912   2.765   4.152  11.379  0.4280 -0.4539  1.6060
 8833TIP3   OH247913   3.609   4.514  16.231 -0.7400  0.2013 -0.4100
 8833TIP3    H147914   3.613   4.428  16.274 -0.4527  0.5718  0.3294
 8833TIP3    H247915   3.654   4.573  16.292 -2.1996  1.1496 -0.1981
 8834TIP3   OH247916   3.843   2.844   0.603  0.2891 -0.3974  0.3763
 8834TIP3    H147917   3.766   2.824   0.657 -1.3762  1.1033 -1.2812
 8834TIP3    H247918   3.871   2.759   0.568 -1.9108 -0.8053 -0.5754
 8835TIP3   OH247919   2.263   2.371   6.302  0.2051  0.4540 -0.0455
 8835TIP3    H147920   2.256   2.333   6.390  0.3953 -0.1723 -0.2910
 8835TIP3    H247921   2.347   2.417   6.302  1.5707 -1.8777 -0.7412
 8836TIP3   OH247922   5.952   3.178   2.559 -0.2912  0.2352 -0.4976
 8836TIP3    H147923   5.996   3.263   2.569 -0.6162  0.3554 -0.1070
 8836TIP3    H247924   6.004   3.118   2.613 -0.0999  0.1933 -0.7228
 8837TIP3   OH247925   0.472   6.493   1.637 -0.4429 -0.4001  0.1514
 8837TIP3    H147926   0.506   6.411   1.601  1.2938 -0.8390  2.5890
 8837TIP3    H247927   0.532   6.560   1.603 -1.3956 -0.1816 -1.1949
 8838TIP3   OH247928   6.676   1.907  12.088  0.3048 -0.3717 -0.8481
 8838TIP3    H147929   6.710   1.991  12.120  1.2463 -1.2109  0.4852
 8838TIP3    H247930   6.717   1.895  12.003  1.9425 -0.4753 -0.0868
 8839TIP3   OH247931   6.493   5.014   2.888 -0.1902  0.1232 -0.0744
 8839TIP3    H147932   6.438   5.087   2.860 -1.5016 -0.0505  1.8478
 8839TIP3    H247933   6.564   5.056   2.937  1.4061  0.3320 -2.3926
 8840TIP3   OH247934   2.192   3.018   5.154  0.1357  0.2777 -0.0084
 8840TIP3    H147935   2.131   3.091   5.152  0.0346  0.2236 -2.8014
 8840TIP3    H247936   2.272   3.054   5.192 -1.1166  0.6855  2.4586
 8841TIP3   OH247937   0.429   0.940  15.181  0.1520  0.0118 -1.1077
 8841TIP3    H147938   0.488   0.884  15.230 -1.5675 -2.4458 -1.6799
 8841TIP3    H247939   0.471   0.950  15.095  2.1584  2.6374  0.0351
 8842TIP3   OH247940   6.190   1.237  15.655 -0.1024  0.0657  0.6757
 8842TIP3    H147941   6.111   1.289  15.643  0.4730  1.0793  1.1642
 8842TIP3    H247942   6.211   1.247  15.748  0.3604 -0.5519  0.6462
 8843TIP3   OH247943   3.097   6.207   0.446 -0.1429 -0.7578 -0.8078
 8843TIP3    H147944   3.179   6.158   0.441 -0.1245 -0.8046 -0.1079
 8843TIP3    H247945   3.078   6.212   0.540 -0.6208 -0.2190 -0.9327
 8844TIP3   OH247946   4.904   1.317  14.795 -0.2743 -0.3092 -0.1183
 8844TIP3    H147947   4.915   1.230  14.832  1.9738 -0.4226 -0.8572
 8844TIP3    H247948   4.963   1.372  14.846 -2.2030  0.9839  0.8186
 8845TIP3   OH247949   0.166   5.919  15.073  0.1532 -0.4129 -0.1778
 8845TIP3    H147950   0.167   5.877  15.159  0.3368 -0.9969 -0.4576
 8845TIP3    H247951   0.218   5.861  15.017  1.8110  1.0524 -0.2041
 8846TIP3   OH247952   4.020   2.332  11.170 -0.1333  0.3251  0.1146
 8846TIP3    H147953   4.016   2.380  11.087  0.3918  0.3627  0.1052
 8846TIP3    H247954   4.103   2.284  11.165 -1.0579 -1.3175 -0.2799
 8847TIP3   OH247955   4.731   1.989   2.513  0.4291 -0.4131  0.1945
 8847TIP3    H147956   4.792   2.003   2.586 -0.3657 -0.1964  0.8207
 8847TIP3    H247957   4.740   2.068   2.459  1.7094 -0.9748 -0.4774
 8848TIP3   OH247958   3.150   0.720   1.621  0.3913 -0.0397 -0.2106
 8848TIP3    H147959   3.073   0.683   1.578  0.1915  1.1469 -0.9158
 8848TIP3    H247960   3.210   0.646   1.631 -1.3456 -1.3227  1.6261
 8849TIP3   OH247961   2.168   5.455  16.353 -0.2479  0.3952 -0.2628
 8849TIP3    H147962   2.179   5.365  16.386 -0.1507  0.7196  0.6105
 8849TIP3    H247963   2.256   5.492  16.356 -0.1891  0.3434 -1.1669
 8850TIP3   OH247964   1.447   2.688  16.012 -0.7161  0.1109  0.2782
 8850TIP3    H147965   1.466   2.777  16.042 -0.4457  1.5616 -3.5520
 8850TIP3    H247966   1.351   2.684  16.008 -0.7225  0.8113 -0.8263
 8851TIP3   OH247967   0.242   5.684  13.606 -0.0072  0.2416  0.0704
 8851TIP3    H147968   0.156   5.651  13.631  0.7424 -1.5581  0.4510
 8851TIP3    H247969   0.225   5.738  13.529 -1.3288 -1.3141 -0.7981
 8852TIP3   OH247970   1.633   5.459   3.607 -0.4006  0.2730 -0.3776
 8852TIP3    H147971   1.547   5.497   3.587 -1.0875 -1.5392 -1.0980
 8852TIP3    H247972   1.636   5.456   3.703 -2.6697 -2.7248 -0.2659
 8853TIP3   OH247973   1.042   2.141  11.730 -0.5565 -0.8436 -0.3812
 8853TIP3    H147974   1.013   2.079  11.796  1.1077 -1.2329  0.0317
 8853TIP3    H247975   1.002   2.110  11.649 -2.5028 -0.4439  0.3675
 8854TIP3   OH247976   0.062   3.579   6.304  0.3667 -0.2024  0.4534
 8854TIP3    H147977   0.143   3.542   6.338  0.4638  0.0942  0.5435
 8854TIP3    H247978   0.074   3.674   6.310  0.4968 -0.1381 -0.6837
 8855TIP3   OH247979   2.454   0.394   0.551 -0.1343 -0.0029 -0.0806
 8855TIP3    H147980   2.359   0.404   0.560  0.0390  1.1703  0.6474
 8855TIP3    H247981   2.487   0.392   0.641  0.3796 -2.4046 -0.2649
 8856TIP3   OH247982   2.911   3.920   3.634 -0.0219  0.1783  0.5013
 8856TIP3    H147983   2.993   3.930   3.586 -0.6686 -0.7365 -0.8523
 8856TIP3    H247984   2.934   3.866   3.710  0.4219 -1.0537 -0.4821
 8857TIP3   OH247985   4.261   2.640   1.595 -0.4361 -0.0168 -0.1893
 8857TIP3    H147986   4.189   2.670   1.539 -1.3991  1.0073  1.5193
 8857TIP3    H247987   4.238   2.549   1.616 -2.4548  0.9071  2.0572
 8858TIP3   OH247988   1.550   6.379   0.037 -0.5566  0.0549 -0.1572
 8858TIP3    H147989   1.593   6.343   0.115 -2.6782  1.4022  1.7669
 8858TIP3    H247990   1.495   6.307   0.005 -1.2508  0.0991  0.8803
 8859TIP3   OH247991   0.512   3.816  16.986  0.0440  0.1040  0.2369
 8859TIP3    H147992   0.459   3.814  16.906  1.3451 -0.1441 -0.6478
 8859TIP3    H247993   0.565   3.895  16.978  0.8053 -0.3734  0.4315
 8860TIP3   OH247994   4.780   2.249   2.907  0.4150 -0.1753 -0.2662
 8860TIP3    H147995   4.856   2.302   2.884  0.2811 -0.3941 -1.2726
 8860TIP3    H247996   4.808   2.199   2.984  0.9422  0.4740 -0.0292
 8861TIP3   OH247997   2.904   4.223  15.529 -0.4033 -0.1881 -0.0720
 8861TIP3    H147998   2.974   4.159  15.519  1.1256  1.6297 -1.6937
 8861TIP3    H247999   2.825   4.175  15.502  0.4457 -1.7763  0.1186
 8862TIP3   OH248000   3.825   0.696  16.538 -0.2720 -0.0587 -0.3961
 8862TIP3    H148001   3.916   0.675  16.516  0.5803  2.2612  0.6343
 8862TIP3    H248002   3.781   0.704  16.453  1.1667  1.4563 -1.0469
 8863TIP3   OH248003   6.504   4.927   5.712 -0.2969 -0.3665  0.2897
 8863TIP3    H148004   6.478   4.905   5.622  0.1149  2.2256 -0.5768
 8863TIP3    H248005   6.425   4.965   5.751 -0.5152 -1.6222  1.1047
 8864TIP3   OH248006   3.169   3.412  16.898 -0.2169  0.0381 -0.2734
 8864TIP3    H148007   3.252   3.369  16.919 -0.9872 -1.3992 -0.0872
 8864TIP3    H248008   3.128   3.429  16.982  0.1162  1.2766 -0.3369
 8865TIP3   OH248009   4.852   3.805   1.670 -0.7856  0.5295 -0.3202
 8865TIP3    H148010   4.777   3.829   1.616 -2.0260 -1.7769  0.2541
 8865TIP3    H248011   4.895   3.734   1.622  0.5502  1.2124 -0.2066
 8866TIP3   OH248012   0.313   4.355  11.045  0.5538  0.1419 -0.0068
 8866TIP3    H148013   0.390   4.411  11.057  0.6529 -0.0468  0.2565
 8866TIP3    H248014   0.350   4.269  11.023  0.4202  0.0341  0.1896
 8867TIP3   OH248015   6.597   6.293   6.673 -0.2138 -0.4889 -0.0978
 8867TIP3    H148016   6.620   6.201   6.682  0.7354 -0.1548  1.1843
 8867TIP3    H248017   6.651   6.325   6.601  1.7248 -0.2656  1.3779
 8868TIP3   OH248018   2.289   3.013   4.799 -0.4878  0.3972  0.1285
 8868TIP3    H148019   2.323   3.098   4.826  1.5150 -0.1457 -0.4477
 8868TIP3    H248020   2.205   3.032   4.757  0.4451  2.2681 -1.0346
 8869TIP3   OH248021   5.158   0.986   3.858  0.1475 -0.4129 -0.8360
 8869TIP3    H148022   5.213   0.908   3.850  0.0010 -0.5122 -0.8922
 8869TIP3    H248023   5.102   0.967   3.934 -0.1131 -0.5037 -1.0501
 8870TIP3   OH248024   6.108   1.451  14.192  0.3030 -0.0060 -0.4530
 8870TIP3    H148025   6.202   1.466  14.199  0.1764 -0.0114  3.0588
 8870TIP3    H248026   6.100   1.360  14.165  1.3041  0.0041 -0.8170
 8871TIP3   OH248027   0.427   5.117   2.240  0.1474 -0.0666  0.2781
 8871TIP3    H148028   0.495   5.088   2.179  0.8234 -0.9887  1.4377
 8871TIP3    H248029   0.345   5.093   2.197  0.4593  1.8837 -1.5691
 8872TIP3   OH248030   3.490   0.096  16.265  0.2161 -0.2019 -0.7076
 8872TIP3    H148031   3.519   0.175  16.218 -0.2039 -0.3273 -1.1802
 8872TIP3    H248032   3.572   0.052  16.288  0.4229 -0.5373 -2.0075
 8873TIP3   OH248033   4.113   5.418  15.218 -0.0322  0.2683  0.0604
 8873TIP3    H148034   4.043   5.483  15.214  0.0384  0.3719  0.5050
 8873TIP3    H248035   4.175   5.445  15.151 -0.7785 -0.2523 -0.8800
 8874TIP3   OH248036   2.795   1.954  11.544 -0.1114  0.4191  0.5391
 8874TIP3    H148037   2.882   1.985  11.572  0.5766  0.1966 -1.2296
 8874TIP3    H248038   2.797   1.860  11.560 -1.2178  0.7572  3.3683
 8875TIP3   OH248039   1.610   3.837   5.594  0.1586 -0.1469 -0.1591
 8875TIP3    H148040   1.549   3.763   5.590  0.3962 -0.4476  1.1472
 8875TIP3    H248041   1.603   3.879   5.509  0.5115 -2.0698 -1.1935
 8876TIP3   OH248042   1.210   2.336   0.571  0.0710  0.3728  0.1212
 8876TIP3    H148043   1.293   2.370   0.539 -0.3561  1.1859 -0.1528
 8876TIP3    H248044   1.161   2.313   0.492  0.5292 -1.3748  0.3004
 8877TIP3   OH248045   1.058   4.112  10.979  0.0158 -0.4120 -0.3017
 8877TIP3    H148046   1.102   4.028  10.991 -1.9592 -1.2774  1.7593
 8877TIP3    H248047   1.004   4.099  10.900  0.3769 -0.7701 -0.4962
 8878TIP3   OH248048   1.413   2.791  13.193 -0.2764  0.6204 -0.4449
 8878TIP3    H148049   1.329   2.796  13.239 -0.1494  0.5219 -0.2030
 8878TIP3    H248050   1.469   2.855  13.238  0.1794 -0.2427  0.2311
 8879TIP3   OH248051   1.798   4.483  17.141 -0.0247 -0.0918  0.9064
 8879TIP3    H148052   1.726   4.496  17.203  0.1836  0.6710  1.0033
 8879TIP3    H248053   1.809   4.569  17.100  1.5102  0.0887  1.6359
 8880TIP3   OH248054   2.411   3.888  15.015  0.3869 -0.1792 -0.2720
 8880TIP3    H148055   2.329   3.934  14.996 -0.1045 -0.5399  0.8454
 8880TIP3    H248056   2.460   3.889  14.933  0.2980  2.1131 -0.3601
 8881TIP3   OH248057   5.515   1.909  12.511  0.3064 -0.1330  0.5297
 8881TIP3    H148058   5.574   1.917  12.436 -2.3984  0.3914 -1.7086
 8881TIP3    H248059   5.485   1.818  12.508 -1.3912  0.4115 -0.4010
 8882TIP3   OH248060   3.656   1.528   6.743  0.6807  0.0225 -0.2041
 8882TIP3    H148061   3.725   1.589   6.716  0.6605  0.1064 -0.0654
 8882TIP3    H248062   3.686   1.443   6.711  0.7569  0.0892 -0.3115
 8883TIP3   OH248063   2.657   5.055  12.572  0.2989  0.4458  0.0318
 8883TIP3    H148064   2.610   4.974  12.556 -1.9800  1.7221 -0.0649
 8883TIP3    H248065   2.749   5.029  12.574 -0.2220 -1.8364 -1.7614
 8884TIP3   OH248066   6.041   5.071   2.950 -0.2059 -0.2067  0.4065
 8884TIP3    H148067   6.039   5.003   3.017  0.3258  0.2792  0.9315
 8884TIP3    H248068   5.960   5.058   2.900  0.4252 -1.9627 -0.2581
 8885TIP3   OH248069   3.474   5.091   0.485 -0.8681  0.1769 -1.3311
 8885TIP3    H148070   3.412   5.146   0.437 -2.2947  0.0988  0.3122
 8885TIP3    H248071   3.500   5.144   0.560 -0.2031 -0.4172 -1.1332
 8886TIP3   OH248072   3.026   1.493  13.341  0.6792  0.2329  0.0172
 8886TIP3    H148073   3.026   1.516  13.434  0.7327  3.8262 -0.7268
 8886TIP3    H248074   2.939   1.518  13.310  1.1556  0.4706 -1.1847
 8887TIP3   OH248075   3.114   5.285   2.921  0.5712  0.2974  0.2882
 8887TIP3    H148076   3.172   5.304   2.847  0.8338 -1.4233  0.0119
 8887TIP3    H248077   3.141   5.198   2.951  0.1159  0.7304  2.0850
 8888TIP3   OH248078   3.063   3.341   5.882  0.3469  0.5745  0.5202
 8888TIP3    H148079   3.117   3.401   5.934  0.1187  2.4391 -1.2427
 8888TIP3    H248080   3.061   3.260   5.932  3.8633  0.7681  1.2032
 8889TIP3   OH248081   3.853   3.884  16.335 -0.4720  0.8803 -0.1576
 8889TIP3    H148082   3.847   3.789  16.340 -0.3201  0.8860  0.2172
 8889TIP3    H248083   3.946   3.901  16.316 -0.4536  0.9595  0.0027
 8890TIP3   OH248084   5.835   6.328   2.351  0.2634 -0.2588 -0.7996
 8890TIP3    H148085   5.811   6.257   2.410  2.1526  1.1039  1.7798
 8890TIP3    H248086   5.751   6.361   2.318 -0.7657 -2.1343 -0.2322
 8891TIP3   OH248087   5.287   1.776   6.476  0.2030 -0.7071 -0.0300
 8891TIP3    H148088   5.232   1.817   6.543  1.3773  0.8721  0.0180
 8891TIP3    H248089   5.246   1.691   6.460 -1.2166 -0.3066  1.2726
 8892TIP3   OH248090   3.219   6.691  16.478 -0.2207  0.2875 -0.3911
 8892TIP3    H148091   3.202   6.601  16.451  0.0699  0.4389 -1.0897
 8892TIP3    H248092   3.312   6.705  16.461  0.2460  0.0717  1.6495
 8893TIP3   OH248093   0.487   2.201   4.091 -0.3473  0.0617 -0.2527
 8893TIP3    H148094   0.551   2.243   4.149  0.4157 -0.6104 -0.6006
 8893TIP3    H248095   0.513   2.228   4.003 -1.7849  1.4723 -0.3038
 8894TIP3   OH248096   4.882   1.709  11.623  0.1121  0.3577 -0.5208
 8894TIP3    H148097   4.947   1.760  11.671 -0.1250 -0.1185  0.3375
 8894TIP3    H248098   4.864   1.760  11.544 -0.9077  2.1484  0.7919
 8895TIP3   OH248099   4.175   0.827   1.874 -0.1392  0.1160  0.1869
 8895TIP3    H148100   4.185   0.871   1.958  2.2185  0.7322 -0.3361
 8895TIP3    H248101   4.260   0.838   1.831 -0.6234 -1.9215 -1.4517
 8896TIP3   OH248102   5.356   4.961   0.303  0.3855 -0.0381 -0.2032
 8896TIP3    H148103   5.368   4.990   0.212  1.9554 -2.0680 -0.6975
 8896TIP3    H248104   5.289   5.020   0.337  0.7941  1.7294 -2.2198
 8897TIP3   OH248105   5.480   3.546   3.024 -0.5623  0.3465  0.4955
 8897TIP3    H148106   5.479   3.499   2.942  0.1720 -1.1873  1.3289
 8897TIP3    H248107   5.571   3.575   3.035 -1.1304  2.6689 -0.3482
 8898TIP3   OH248108   5.083   3.503   0.252 -0.0862 -0.2743  0.1766
 8898TIP3    H148109   5.123   3.423   0.285 -1.1350 -0.2810  1.5378
 8898TIP3    H248110   5.036   3.539   0.327 -2.4939 -0.2048 -1.2300
 8899TIP3   OH248111   2.897   5.615  13.392  0.1495 -0.1647 -0.1621
 8899TIP3    H148112   2.930   5.612  13.482  0.1177 -0.9760 -0.1665
 8899TIP3    H248113   2.932   5.696  13.356 -1.1056  0.9638  1.0497
 8900TIP3   OH248114   2.578   5.867   4.667  0.2375  0.2721 -0.5306
 8900TIP3    H148115   2.664   5.863   4.626  0.3948  1.3079 -0.3157
 8900TIP3    H248116   2.574   5.789   4.722  1.8657  1.2510  1.0612
 8901TIP3   OH248117   4.765   6.694  12.672 -0.6409 -0.3374 -0.1850
 8901TIP3    H148118   4.715   6.718  12.750 -1.4484 -0.2878 -0.7061
 8901TIP3    H248119   4.855   6.688  12.703 -1.1465 -1.9984  1.1323
 8902TIP3   OH248120   6.070   1.923   0.016  0.0983 -0.1751  0.2571
 8902TIP3    H148121   5.982   1.923   0.054 -0.7693 -1.1595 -1.5885
 8902TIP3    H248122   6.067   1.854  -0.051  2.6442 -1.0166  0.9043
 8903TIP3   OH248123   0.047   5.471  11.349 -0.1751  0.8020 -0.3110
 8903TIP3    H148124   0.054   5.477  11.444 -1.0012  0.4602 -0.2221
 8903TIP3    H248125  -0.046   5.454  11.333  0.2842 -1.3768 -1.0373
 8904TIP3   OH248126   3.476   6.357   5.913 -0.2290  0.4021  0.2792
 8904TIP3    H148127   3.395   6.344   5.863  0.7540 -2.3905 -0.7994
 8904TIP3    H248128   3.540   6.384   5.848 -0.0151  1.5143  0.9384
 8905TIP3   OH248129   5.204   3.332  14.740 -0.0652  0.5990  0.0636
 8905TIP3    H148130   5.213   3.238  14.725  1.1542  0.8739 -1.1289
 8905TIP3    H248131   5.292   3.367  14.725 -0.8825  2.1684 -1.4393
 8906TIP3   OH248132   1.983   3.066  15.030 -0.2007  0.4840 -0.2841
 8906TIP3    H148133   2.047   3.078  15.099 -0.8851  0.6695  0.3251
 8906TIP3    H248134   2.007   3.130  14.963  0.7835 -0.0633 -0.4724
 8907TIP3   OH248135   1.841   6.790   4.324  0.7905 -0.0555 -0.2327
 8907TIP3    H148136   1.922   6.745   4.300 -0.8696 -1.9843 -2.6221
 8907TIP3    H248137   1.819   6.844   4.248 -0.1547  0.5112  0.4142
 8908TIP3   OH248138   4.325   3.534   1.118 -0.3539 -0.7622  0.8191
 8908TIP3    H148139   4.413   3.568   1.131 -1.2029  1.4580  1.1783
 8908TIP3    H248140   4.285   3.536   1.205 -1.9162  1.9062  0.1578
 8909TIP3   OH248141   5.973   0.416  16.239 -0.0967 -0.1748 -0.6991
 8909TIP3    H148142   5.944   0.385  16.153  0.0471 -2.3719 -0.0367
 8909TIP3    H248143   5.910   0.378  16.301  0.7753 -0.0805  0.2786
 8910TIP3   OH248144   4.724   3.800  16.701  0.3640 -0.3198  0.4050
 8910TIP3    H148145   4.692   3.788  16.612  1.5933 -0.9283  0.0354
 8910TIP3    H248146   4.733   3.895  16.710 -0.3537 -0.2126  0.1100
 8911TIP3   OH248147   2.408   3.688  12.313 -0.4965  0.0295  0.0055
 8911TIP3    H148148   2.334   3.714  12.259  1.1011  0.8409 -1.9587
 8911TIP3    H248149   2.398   3.594  12.324 -1.6963  0.0947 -0.3753
 8912TIP3   OH248150   2.152   0.789   2.024  0.1414  0.5383  0.3839
 8912TIP3    H148151   2.122   0.865   2.074  0.5289 -0.2323  1.8528
 8912TIP3    H248152   2.091   0.719   2.048  0.4376  0.1100 -0.0989
 8913TIP3   OH248153   2.357   3.439  14.854  0.8172  0.2654  0.3698
 8913TIP3    H148154   2.340   3.430  14.760 -1.0284 -0.5676  0.7359
 8913TIP3    H248155   2.409   3.363  14.877  0.4431 -0.0520  0.1826
 8914TIP3   OH248156   3.490   2.963   1.277  0.3861  0.0245  0.3540
 8914TIP3    H148157   3.581   2.940   1.258  0.3362 -0.1329  0.3018
 8914TIP3    H248158   3.439   2.891   1.240  0.1240  0.9092 -1.0956
 8915TIP3   OH248159   2.592   3.170   2.286  0.1104  0.0492  0.3673
 8915TIP3    H148160   2.581   3.116   2.363 -1.0910  1.1899  1.0330
 8915TIP3    H248161   2.680   3.148   2.253  0.3293 -0.9956  1.6031
 8916TIP3   OH248162   2.502   2.384   0.152 -0.0508 -0.2307  0.4733
 8916TIP3    H148163   2.426   2.394   0.209  0.3967  0.1126  1.0170
 8916TIP3    H248164   2.477   2.429   0.071 -1.3449 -2.1643 -0.2732
 8917TIP3   OH248165   5.596   6.413  11.953 -0.3382 -0.1306  0.0302
 8917TIP3    H148166   5.690   6.423  11.967 -0.4987  1.2275  0.2660
 8917TIP3    H248167   5.579   6.322  11.975  0.8146 -0.2193  0.6726
 8918TIP3   OH248168   1.981   4.492   0.096 -0.1812 -0.2316 -0.0893
 8918TIP3    H148169   1.946   4.498   0.007 -0.4642  0.0090  0.0377
 8918TIP3    H248170   1.925   4.428   0.140  0.9214 -1.5348 -0.5349
 8919TIP3   OH248171   5.632   0.462  15.508  0.4875 -0.0540  0.0755
 8919TIP3    H148172   5.630   0.545  15.459  0.3729 -0.4694 -0.6363
 8919TIP3    H248173   5.565   0.472  15.575  1.1789  0.8311  0.6703
 8920TIP3   OH248174   3.024   5.318  15.482 -0.2969 -0.3984 -0.3340
 8920TIP3    H148175   3.037   5.403  15.524 -1.5299  0.0433 -0.7889
 8920TIP3    H248176   2.962   5.335  15.411 -0.7486 -1.7074 -0.2959
 8921TIP3   OH248177   4.618   5.928  14.645 -0.4609  0.1467  0.1684
 8921TIP3    H148178   4.647   5.922  14.554 -2.4028 -1.1259 -0.4226
 8921TIP3    H248179   4.687   5.883  14.695  1.5582  2.4158 -0.3567
 8922TIP3   OH248180   4.725   5.098  11.205  0.3915 -0.0737 -0.0941
 8922TIP3    H148181   4.713   5.164  11.137  1.9463  0.6463  0.2892
 8922TIP3    H248182   4.703   5.144  11.286  0.5619 -0.2994  0.0798
 8923TIP3   OH248183   3.115   4.607   0.632 -0.2490 -0.0169 -0.3021
 8923TIP3    H148184   3.107   4.702   0.622  0.7909  0.2610  1.1359
 8923TIP3    H248185   3.208   4.590   0.618 -0.4663 -0.8619 -0.7612
 8924TIP3   OH248186   6.182   5.414  14.552  0.1547  0.0600  0.6210
 8924TIP3    H148187   6.219   5.466  14.481 -0.0868 -0.3918  0.1537
 8924TIP3    H248188   6.099   5.456  14.573  0.6336  0.7081  1.2425
 8925TIP3   OH248189   4.853   5.943   0.615  0.1032  0.2716  0.3538
 8925TIP3    H148190   4.851   5.892   0.534 -1.3315 -0.6823  0.9495
 8925TIP3    H248191   4.904   5.890   0.676  0.9343  0.8563  0.1949
 8926TIP3   OH248192   2.136   1.117  14.600 -0.0099  0.2363 -0.0154
 8926TIP3    H148193   2.113   1.028  14.628  1.3069 -0.0478  0.2412
 8926TIP3    H248194   2.098   1.125  14.513  1.3885 -1.2657 -0.8224
 8927TIP3   OH248195   0.489   1.317  13.496  0.6394 -0.2904  0.0703
 8927TIP3    H148196   0.555   1.285  13.558  1.4238  0.1527 -0.5086
 8927TIP3    H248197   0.413   1.261  13.510  0.9944 -0.5436  1.0512
 8928TIP3   OH248198   3.050   1.735  12.201 -0.3318  0.3407  0.1674
 8928TIP3    H148199   3.069   1.732  12.108  0.4337  1.6759  0.2458
 8928TIP3    H248200   3.063   1.646  12.232  1.0757  0.2233 -0.7089
 8929TIP3   OH248201   0.957   4.055  12.289  0.1671  0.0278  0.1287
 8929TIP3    H148202   1.041   4.094  12.313  0.9403 -0.9852 -0.8986
 8929TIP3    H248203   0.898   4.081  12.361  1.0380  1.7139  0.2926
 8930TIP3   OH248204   0.401   2.875  14.890 -0.1338 -0.6258  0.1673
 8930TIP3    H148205   0.489   2.911  14.889  0.8695 -2.6815  2.3193
 8930TIP3    H248206   0.361   2.911  14.970 -0.5600 -1.0977  0.1764
 8931TIP3   OH248207   5.007   6.478  14.548  0.4669 -0.0057  0.6679
 8931TIP3    H148208   4.943   6.461  14.617 -1.6756 -1.1313 -1.4000
 8931TIP3    H248209   4.966   6.442  14.469  3.2534  0.1795 -1.0051
 8932TIP3   OH248210   2.059   2.641   5.684  0.4942  0.0075  0.0542
 8932TIP3    H148211   2.124   2.651   5.615  0.8743 -0.6975  0.2980
 8932TIP3    H248212   1.978   2.619   5.639  0.6218  0.0579 -0.1975
 8933TIP3   OH248213   1.208   2.982  16.669  0.2295 -0.5468  0.1469
 8933TIP3    H148214   1.114   2.995  16.660  0.5300 -0.0274 -3.1434
 8933TIP3    H248215   1.233   3.040  16.741 -1.7459  0.3105  0.1952
 8934TIP3   OH248216   6.064   5.553   5.047  1.0074 -0.0029 -0.0180
 8934TIP3    H148217   6.109   5.611   5.109  0.1439  0.7507 -0.0758
 8934TIP3    H248218   5.972   5.554   5.075  0.4990  0.7528 -1.5739
 8935TIP3   OH248219   0.103   6.714  11.389 -0.2019  0.3683 -0.3425
 8935TIP3    H148220   0.120   6.772  11.315  1.7168 -0.1503 -0.3582
 8935TIP3    H248221   0.031   6.659  11.360  0.0267  0.6737 -1.5417
 8936TIP3   OH248222   6.340   6.032   5.200 -0.5786  1.1018  0.0177
 8936TIP3    H148223   6.389   6.055   5.280 -1.4329  0.2821  0.8112
 8936TIP3    H248224   6.327   6.115   5.154 -2.8686  2.1795  2.3491
 8937TIP3   OH248225   1.593   4.475   2.104 -0.2636 -0.1510 -0.0302
 8937TIP3    H148226   1.605   4.558   2.057 -1.0863  0.3801  0.6732
 8937TIP3    H248227   1.646   4.485   2.183 -2.0166  0.6013  1.1156
 8938TIP3   OH248228   5.864   0.540   4.234 -0.3418  0.0077  0.1088
 8938TIP3    H148229   5.778   0.568   4.203 -0.0147  0.8580 -0.0565
 8938TIP3    H248230   5.898   0.485   4.163 -0.8657 -0.5965  0.3085
 8939TIP3   OH248231   6.034   2.279   2.608 -0.7774 -0.4219 -0.0985
 8939TIP3    H148232   5.988   2.267   2.525  1.0640 -0.8434 -1.1150
 8939TIP3    H248233   6.006   2.205   2.662 -0.3054 -1.4241 -1.1809
 8940TIP3   OH248234   2.287   0.169   4.193  0.3129 -0.2097 -0.3711
 8940TIP3    H148235   2.268   0.087   4.237 -0.1827  0.8943  1.5869
 8940TIP3    H248236   2.258   0.156   4.103 -0.3439 -1.9434  0.0727
 8941TIP3   OH248237   2.048   2.358   0.697  0.1630  0.0667  0.3045
 8941TIP3    H148238   1.954   2.372   0.709  0.2867  0.6757  0.6502
 8941TIP3    H248239   2.056   2.265   0.677 -0.5739  0.1477 -0.4460
 8942TIP3   OH248240   2.414   3.152   4.353  0.7262  0.5348  0.2060
 8942TIP3    H148241   2.457   3.129   4.271 -1.5929  0.9788 -1.2550
 8942TIP3    H248242   2.455   3.234   4.380  1.7942  0.1754 -0.2893
 8943TIP3   OH248243   0.416   6.120   3.400 -0.5335  0.0306  0.5835
 8943TIP3    H148244   0.432   6.100   3.492  1.3406 -0.7539  0.1416
 8943TIP3    H248245   0.471   6.197   3.383  0.6973 -1.0111 -0.3227
 8944TIP3   OH248246   4.737   5.051   4.398  0.2525  0.5147  0.4718
 8944TIP3    H148247   4.676   5.120   4.370  0.2255  0.1140 -0.5129
 8944TIP3    H248248   4.694   5.009   4.473 -0.8758  0.0102 -0.4231
 8945TIP3   OH248249   4.784   3.917  15.976 -0.8021 -0.1324  0.2798
 8945TIP3    H148250   4.834   3.942  16.054  0.0314 -3.0384  0.7851
 8945TIP3    H248251   4.694   3.909  16.007 -0.3546 -2.0335  1.2033
 8946TIP3   OH248252   3.615   2.857  11.396 -0.2232 -0.2493  0.1220
 8946TIP3    H148253   3.522   2.835  11.395 -0.8662  2.1173 -1.4282
 8946TIP3    H248254   3.636   2.877  11.305  1.1825  1.5560  0.7798
 8947TIP3   OH248255   2.672   3.670   6.328 -0.0950  0.4119  0.2371
 8947TIP3    H148256   2.627   3.594   6.290 -0.6168  1.1203 -0.6009
 8947TIP3    H248257   2.743   3.632   6.380 -0.9400 -0.6848  0.6336
 8948TIP3   OH248258   3.078   0.518  12.109  0.0855 -0.7174 -0.1614
 8948TIP3    H148259   2.983   0.522  12.101  0.2283  0.0140 -2.3578
 8948TIP3    H248260   3.110   0.536  12.020  2.2738 -0.9980  0.5071
 8949TIP3   OH248261   4.463   3.094   0.446  0.5573  0.7358  0.0645
 8949TIP3    H148262   4.534   3.034   0.424 -0.2613 -1.0825  2.0223
 8949TIP3    H248263   4.386   3.038   0.457 -0.3326  2.1416  1.6211
 8950TIP3   OH248264   6.447   6.466  16.556 -0.2260 -0.0051 -0.2703
 8950TIP3    H148265   6.385   6.394  16.569 -1.7685  0.9823 -1.7677
 8950TIP3    H248266   6.445   6.483  16.461 -0.0327  2.0877  0.0461
 8951TIP3   OH248267   1.026   4.007  11.295 -0.8031 -0.5314 -0.0782
 8951TIP3    H148268   0.979   4.085  11.324 -1.5384 -1.0389  0.1056
 8951TIP3    H248269   1.028   3.950  11.372  1.8178  0.2564  0.5351
 8952TIP3   OH248270   4.878   4.029   5.544 -0.0604 -0.2007 -0.7025
 8952TIP3    H148271   4.821   4.036   5.468  1.2292 -2.2385 -1.9462
 8952TIP3    H248272   4.887   3.935   5.559  1.5941  0.0996  0.4893
 8953TIP3   OH248273   3.494   6.219  16.178  0.0198  0.2178  0.8384
 8953TIP3    H148274   3.588   6.220  16.157 -0.5942  0.3805 -2.2067
 8953TIP3    H248275   3.476   6.310  16.205  0.9050 -0.1027  2.7546
 8954TIP3   OH248276   5.887   6.415   6.437  0.1912  0.2988  0.2282
 8954TIP3    H148277   5.848   6.332   6.464 -1.5734  0.1198 -2.4791
 8954TIP3    H248278   5.838   6.482   6.485 -2.1212 -0.0503 -1.4717
 8955TIP3   OH248279   0.354   1.910  17.012 -0.3162  0.5352 -0.1158
 8955TIP3    H148280   0.433   1.911  17.065  0.4850 -1.7905 -1.1011
 8955TIP3    H248281   0.350   1.997  16.972  1.1598  1.0396  0.7621
 8956TIP3   OH248282   6.760   0.559   1.315 -0.1895 -1.0550 -0.3090
 8956TIP3    H148283   6.742   0.481   1.368  0.6407 -1.4554 -0.5890
 8956TIP3    H248284   6.793   0.523   1.232 -1.1466 -0.4319 -0.9765
 8957TIP3   OH248285   5.107   4.161   0.306  0.2221  0.2519 -0.3667
 8957TIP3    H148286   5.184   4.109   0.285  0.0888  0.2565 -0.8821
 8957TIP3    H248287   5.119   4.243   0.258  0.6842  0.9360  0.8461
 8958TIP3   OH248288   2.945   2.012   5.750 -1.1353  0.3358  0.1727
 8958TIP3    H148289   2.935   2.080   5.684 -2.1500  0.0153 -0.0184
 8958TIP3    H248290   3.002   1.947   5.709  0.6293  1.4700  0.6993
 8959TIP3   OH248291   2.092   2.643  17.144 -0.4899  0.2538 -0.3564
 8959TIP3    H148292   2.120   2.726  17.105  1.5823 -0.3595 -0.2545
 8959TIP3    H248293   2.120   2.576  17.081 -0.0309 -0.5178  0.6393
 8960TIP3   OH248294   4.705   6.100   5.946  0.7152 -0.4754 -0.7302
 8960TIP3    H148295   4.780   6.135   5.993  0.6053  0.5476 -1.2906
 8960TIP3    H248296   4.736   6.089   5.856  0.8131 -2.0671 -0.5421
 8961TIP3   OH248297   5.298   2.230   0.364  0.5333 -0.4687  0.1005
 8961TIP3    H148298   5.265   2.140   0.363  0.9683 -0.7259 -3.1340
 8961TIP3    H248299   5.393   2.221   0.372  0.4996 -0.1922  0.9369
 8962TIP3   OH248300   3.057   4.182   0.598 -0.0551 -0.0139  0.0890
 8962TIP3    H148301   3.051   4.088   0.616 -0.2556 -0.0356 -0.0983
 8962TIP3    H248302   3.027   4.192   0.507  0.5686  0.1473 -0.1080
 8963TIP3   OH248303   5.992   1.460  13.170  0.2906  0.5482 -0.8407
 8963TIP3    H148304   5.955   1.482  13.085  1.4343  1.4928 -1.1274
 8963TIP3    H248305   6.079   1.501  13.169 -0.0681  1.4842  1.1616
 8964TIP3   OH248306   0.755   1.100  13.379 -0.4897 -0.0085 -0.3160
 8964TIP3    H148307   0.772   1.100  13.284 -0.1692 -3.0449 -0.3697
 8964TIP3    H248308   0.839   1.123  13.418 -0.6852  1.5201 -0.7151
 8965TIP3   OH248309   0.383   5.354  11.014 -0.5176 -0.2981  0.1014
 8965TIP3    H148310   0.313   5.356  11.079 -0.6314  0.8961 -0.0380
 8965TIP3    H248311   0.355   5.415  10.947  1.5373  1.7853  0.9995
 8966TIP3   OH248312   4.809   2.114  12.294  0.1774  0.2785  0.0193
 8966TIP3    H148313   4.771   2.035  12.333  0.5220  0.6273  1.1088
 8966TIP3    H248314   4.821   2.092  12.202 -1.6520 -0.2184 -0.1388
 8967TIP3   OH248315   6.554   2.916  12.019  0.3430 -0.3006 -0.6948
 8967TIP3    H148316   6.485   2.864  12.060 -0.6930  2.0366  0.7110
 8967TIP3    H248317   6.609   2.852  11.974 -0.6054 -2.6187  1.2641
 8968TIP3   OH248318   0.809   4.868  16.427  0.2347 -0.6631 -0.0823
 8968TIP3    H148319   0.749   4.928  16.471  0.5390  0.8408 -1.6134
 8968TIP3    H248320   0.766   4.846  16.344  0.9790 -1.0274 -0.3907
 8969TIP3   OH248321   4.003   4.792  13.711 -0.2903  0.0012  0.5211
 8969TIP3    H148322   4.002   4.871  13.765 -1.2650  0.0643  0.4289
 8969TIP3    H248323   4.042   4.820  13.628  0.9544 -0.0334  1.0801
 8970TIP3   OH248324   1.672   4.191   4.637 -0.1723 -0.4088 -0.2867
 8970TIP3    H148325   1.747   4.227   4.590 -0.1951  0.1204  0.0755
 8970TIP3    H248326   1.654   4.255   4.706 -1.3050 -0.2535 -0.7055
 8971TIP3   OH248327   6.105   3.798   0.515  0.4329 -0.4207  0.1997
 8971TIP3    H148328   6.139   3.881   0.481 -0.4574 -0.3272 -0.5096
 8971TIP3    H248329   6.057   3.760   0.442  1.3950 -1.9099  0.3117
 8972TIP3   OH248330   1.555   6.172   1.239  0.0494 -0.2329  0.0149
 8972TIP3    H148331   1.579   6.226   1.164  1.3697  1.3246  1.4549
 8972TIP3    H248332   1.637   6.163   1.289 -0.8181 -1.0526  1.3667
 8973TIP3   OH248333   4.700   3.115   0.119  0.1250  0.7093 -0.5764
 8973TIP3    H148334   4.641   3.041   0.106 -0.0444  0.5815  0.8184
 8973TIP3    H248335   4.776   3.095   0.065  0.5396 -1.0287  0.5714
 8974TIP3   OH248336   0.185   6.500   1.636  0.4907 -0.1172  0.1116
 8974TIP3    H148337   0.269   6.456   1.625  0.8023  0.6822 -0.8464
 8974TIP3    H248338   0.207   6.591   1.656 -0.0992  0.4934 -1.7856
 8975TIP3   OH248339   4.751   4.842   4.853 -0.0035  0.1565  0.1698
 8975TIP3    H148340   4.789   4.929   4.866 -1.5525  1.0351 -0.8303
 8975TIP3    H248341   4.824   4.781   4.866  1.4874  1.6909 -0.6881
 8976TIP3   OH248342   6.665   3.107  17.190  0.0535  0.4791 -0.0942
 8976TIP3    H148343   6.590   3.149  17.231  0.1418 -0.4497  1.0763
 8976TIP3    H248344   6.713   3.068  17.263  0.8126 -0.2956 -0.9849
 8977TIP3   OH248345   2.638   5.108  15.134  0.4910  0.1573  0.1957
 8977TIP3    H148346   2.682   5.103  15.050 -0.8110 -0.1335 -0.4945
 8977TIP3    H248347   2.573   5.038  15.132 -2.3561  2.5935 -0.2743
 8978TIP3   OH248348   0.836   6.739   6.314 -0.1256 -0.5477  0.2521
 8978TIP3    H148349   0.849   6.830   6.339 -0.2353 -0.2159 -0.8438
 8978TIP3    H248350   0.760   6.711   6.365 -1.7187  0.7748 -1.2322
 8979TIP3   OH248351   5.980   2.388   1.865 -0.5604 -0.7770 -0.1927
 8979TIP3    H148352   6.069   2.367   1.838  0.8297  0.1008  3.1514
 8979TIP3    H248353   5.976   2.483   1.863  0.1554 -0.5247  3.5607
 8980TIP3   OH248354   5.717   4.742   2.889 -0.3296  0.5725  0.3397
 8980TIP3    H148355   5.799   4.702   2.919 -2.1339 -1.5148  3.0115
 8980TIP3    H248356   5.680   4.680   2.827  0.5276  2.0694 -1.8133
 8981TIP3   OH248357   5.215   0.485  15.747 -0.3659  0.4960  0.0549
 8981TIP3    H148358   5.214   0.511  15.655  1.1719 -0.0257 -0.1402
 8981TIP3    H248359   5.133   0.520  15.783 -1.8871 -0.8388 -1.9078
 8982TIP3   OH248360   2.366   1.534   4.997 -0.4330  0.0124  0.0253
 8982TIP3    H148361   2.427   1.608   4.999  0.0045 -0.3327  1.7596
 8982TIP3    H248362   2.280   1.574   5.015 -0.6486  0.4129 -1.7541
 8983TIP3   OH248363   6.269   3.883  12.940 -0.2863  0.2843  0.0202
 8983TIP3    H148364   6.275   3.804  12.886 -1.6940  1.8515 -2.6530
 8983TIP3    H248365   6.351   3.930  12.923  0.1439 -0.1296  0.8809
 8984TIP3   OH248366   0.435   0.754  15.814  0.0210 -0.2450 -0.1179
 8984TIP3    H148367   0.347   0.781  15.837  0.2389  1.1143 -0.8069
 8984TIP3    H248368   0.492   0.799  15.877  0.2541 -0.8322  0.0994
 8985TIP3   OH248369   3.653   2.005  16.575 -0.5490 -0.1219 -0.1109
 8985TIP3    H148370   3.585   2.059  16.615 -0.9665 -0.3029 -0.5610
 8985TIP3    H248371   3.689   1.955  16.647 -2.0805 -1.2943 -0.0937
 8986TIP3   OH248372   6.148   3.859  15.150 -0.6864 -0.1281  0.1119
 8986TIP3    H148373   6.212   3.859  15.079 -0.6166  0.9122  0.1651
 8986TIP3    H248374   6.200   3.845  15.230 -0.5123  0.7810  0.1618
 8987TIP3   OH248375   0.435   4.294  14.957 -0.2297 -0.3178  0.0168
 8987TIP3    H148376   0.466   4.385  14.955  1.1442 -0.7530  0.2623
 8987TIP3    H248377   0.455   4.264  15.045  0.9124 -1.3560 -0.5649
 8988TIP3   OH248378   4.471   6.689  11.787  0.4692 -0.6116 -0.3059
 8988TIP3    H148379   4.389   6.730  11.814 -1.0279 -3.4870 -0.0556
 8988TIP3    H248380   4.532   6.706  11.860 -0.5251 -0.1141  0.4320
 8989TIP3   OH248381   0.872   0.140  11.871  0.0812 -0.2332 -0.1976
 8989TIP3    H148382   0.881   0.235  11.867 -2.9560  0.1186 -1.6814
 8989TIP3    H248383   0.820   0.125  11.950 -2.3700 -0.2352 -1.7130
 8990TIP3   OH248384   1.098   1.666   4.108  0.5012 -0.0421 -0.3604
 8990TIP3    H148385   1.164   1.603   4.080 -0.9912 -0.8858 -2.2035
 8990TIP3    H248386   1.109   1.740   4.048  0.5191  0.3355  0.0982
 8991TIP3   OH248387   1.536   5.989  16.913 -0.4948  0.3684 -0.4529
 8991TIP3    H148388   1.532   5.977  16.819  2.3652 -2.9307 -0.3810
 8991TIP3    H248389   1.452   5.957  16.946 -0.9157  0.0447 -1.8087
 8992TIP3   OH248390   1.917   4.763   0.620  0.3154  0.3154 -0.0258
 8992TIP3    H148391   1.849   4.764   0.688 -0.7834  1.1859 -1.0844
 8992TIP3    H248392   1.874   4.720   0.546  0.5981  1.6943 -1.0150
 8993TIP3   OH248393   1.075   6.810  13.415 -0.4790  0.0544 -0.1502
 8993TIP3    H148394   1.139   6.881  13.420  0.2138 -0.6360  1.6830
 8993TIP3    H248395   1.126   6.730  13.425 -1.5334 -0.5498  0.6601
 8994TIP3   OH248396   2.329   1.758   1.277 -0.4127  0.0208  0.0793
 8994TIP3    H148397   2.301   1.666   1.269 -2.1928  0.6168 -1.1426
 8994TIP3    H248398   2.308   1.781   1.367 -2.3343 -0.0940 -0.2916
 8995TIP3   OH248399   6.015   4.262   0.521 -0.0584 -0.4005 -0.2544
 8995TIP3    H148400   6.068   4.182   0.526  1.7196  0.7206 -0.2452
 8995TIP3    H248401   6.044   4.306   0.441 -1.7645 -0.2443 -0.8241
 8996TIP3   OH248402   6.060   3.441   0.248  0.2245 -0.1892  0.0718
 8996TIP3    H148403   6.143   3.485   0.232  0.2083  0.2362  1.0619
 8996TIP3    H248404   6.048   3.447   0.343  1.0276 -3.7450  0.5475
 8997TIP3   OH248405   5.782   1.034  12.804 -0.2482  0.3737  0.3719
 8997TIP3    H148406   5.720   1.017  12.875  0.2478 -0.2802  0.6576
 8997TIP3    H248407   5.845   1.096  12.842  0.1121 -0.1043  0.5628
 8998TIP3   OH248408   0.122   3.394  15.321 -0.2914  0.0670  0.0549
 8998TIP3    H148409   0.059   3.416  15.390  0.5487 -0.5207  1.0361
 8998TIP3    H248410   0.081   3.426  15.240 -1.3955  0.5748  0.7890
 8999TIP3   OH248411   2.382   3.529  16.063  0.1420 -0.1279 -0.0504
 8999TIP3    H148412   2.433   3.451  16.083  0.9989  0.4721  0.1857
 8999TIP3    H248413   2.311   3.498  16.006 -0.0975 -1.2190  0.8207
 9000TIP3   OH248414   5.645   4.488   1.394  0.6368 -0.8270 -0.0769
 9000TIP3    H148415   5.701   4.417   1.362  0.9815 -0.8006  0.4546
 9000TIP3    H248416   5.697   4.531   1.461 -0.3135 -1.3011  1.0131
 9001TIP3   OH248417   6.293   2.437  16.494 -0.3005  0.6834 -0.3063
 9001TIP3    H148418   6.313   2.501  16.563 -1.0962 -0.3691  0.9482
 9001TIP3    H248419   6.353   2.364  16.510 -1.5866 -0.2789  0.3276
 9002TIP3   OH248420   0.841   6.404  15.063 -0.3219  0.1211 -0.1784
 9002TIP3    H148421   0.828   6.445  14.978 -2.4094  1.5838  0.7535
 9002TIP3    H248422   0.789   6.325  15.061 -0.9318  0.5115 -0.0565
 9003TIP3   OH248423   1.492   3.577  14.162 -0.0896 -0.4795 -0.7226
 9003TIP3    H148424   1.399   3.594  14.146 -0.2811  0.5511  1.1670
 9003TIP3    H248425   1.493   3.522  14.240  0.8671 -1.6653 -1.5453
 9004TIP3   OH248426   4.577   4.079  14.533  0.4909 -0.0898 -0.4445
 9004TIP3    H148427   4.535   4.024  14.599 -0.9775  1.2371 -0.2322
 9004TIP3    H248428   4.605   4.018  14.465  0.0294 -1.2249  0.3568
 9005TIP3   OH248429   6.100   4.155   5.717 -0.1966 -0.5908 -0.0247
 9005TIP3    H148430   6.123   4.244   5.743 -1.2600 -0.2448 -0.2193
 9005TIP3    H248431   6.081   4.109   5.799  0.2711 -0.6147  0.0695
 9006TIP3   OH248432   0.367   6.135   4.336 -0.1962  0.1580  0.2545
 9006TIP3    H148433   0.449   6.177   4.309 -1.2536  1.6829 -0.7938
 9006TIP3    H248434   0.367   6.050   4.291  0.9206  0.0289  0.4810
 9007TIP3   OH248435   1.722   1.563   5.614  0.6821  0.2341  0.5246
 9007TIP3    H148436   1.663   1.591   5.544 -0.3370 -0.2492  1.1659
 9007TIP3    H248437   1.747   1.473   5.590  0.0310 -0.0694  0.9618
 9008TIP3   OH248438   6.399   5.163   3.668  0.1988 -0.6782 -0.3664
 9008TIP3    H148439   6.326   5.101   3.668 -0.0933 -0.3433 -0.3466
 9008TIP3    H248440   6.359   5.246   3.641  0.1736 -0.0579  1.4026
 9009TIP3   OH248441   1.884   0.251  13.509 -0.2392 -0.3992 -0.1264
 9009TIP3    H148442   1.831   0.321  13.471 -0.2390 -0.6373 -0.5634
 9009TIP3    H248443   1.955   0.297  13.554  0.6497 -0.1547 -1.7237
 9010TIP3   OH248444   4.615   4.041   1.164 -0.7244 -0.0865 -0.0018
 9010TIP3    H148445   4.538   3.987   1.142 -1.2054  0.7282 -0.3511
 9010TIP3    H248446   4.591   4.083   1.247 -0.5213 -0.0918  0.0587
 9011TIP3   OH248447   0.156   5.019  15.636  1.0214 -0.2405 -0.0945
 9011TIP3    H148448   0.148   4.971  15.553  0.3235  0.3933 -0.4143
 9011TIP3    H248449   0.086   4.983  15.691  1.2111 -0.3618  0.0693
 9012TIP3   OH248450   2.293   4.872  16.973  0.0183 -0.3194  0.6834
 9012TIP3    H148451   2.233   4.818  16.921 -0.2441  0.3900  0.2338
 9012TIP3    H248452   2.377   4.866  16.927 -0.0990 -0.0689  0.4301
 9013TIP3   OH248453   3.921   2.154   1.851 -0.6182 -0.3765  0.2735
 9013TIP3    H148454   3.855   2.102   1.896 -2.8131  1.7979 -0.2398
 9013TIP3    H248455   3.929   2.234   1.904  1.3157 -0.3862  0.0714
 9014TIP3   OH248456   3.228   3.990   2.720 -0.0704 -0.4220  0.4034
 9014TIP3    H148457   3.228   4.060   2.786 -0.7835 -0.9368  0.9666
 9014TIP3    H248458   3.233   3.910   2.771 -0.3651 -0.8241 -0.1930
 9015TIP3   OH248459   5.305   2.038   1.917  0.6300 -0.0407  0.1040
 9015TIP3    H148460   5.229   2.024   1.974  0.2408 -0.9950 -0.6179
 9015TIP3    H248461   5.340   2.123   1.944 -1.0148  0.6806  0.1003
 9016TIP3   OH248462   2.587   1.340  15.953 -0.1136  0.7937  0.0869
 9016TIP3    H148463   2.562   1.257  15.994  1.0658  0.5070  0.2639
 9016TIP3    H248464   2.594   1.401  16.026 -1.7605  1.2819 -0.1238
 9017TIP3   OH248465   5.204   5.933  11.091 -0.0107  0.2720  0.0724
 9017TIP3    H148466   5.159   5.998  11.037 -1.6736  0.4208  1.5597
 9017TIP3    H248467   5.294   5.934  11.059 -0.2249  2.5460 -0.6460
 9018TIP3   OH248468   4.838   0.724  15.075  0.1697 -0.2316  0.1884
 9018TIP3    H148469   4.850   0.808  15.120  1.1570  0.0164 -0.5076
 9018TIP3    H248470   4.910   0.669  15.105  1.5976  0.3399 -1.9371
 9019TIP3   OH248471   2.624   4.814   4.217  0.1917  0.3870  0.0912
 9019TIP3    H148472   2.539   4.847   4.187  0.1517  1.3860  1.2183
 9019TIP3    H248473   2.603   4.752   4.287  0.3601 -0.3319 -0.4798
 9020TIP3   OH248474   4.036   6.291   5.935  0.3140  0.0032  0.1384
 9020TIP3    H148475   3.981   6.312   6.011  1.7065 -0.7909  1.4353
 9020TIP3    H248476   4.105   6.236   5.971  0.5128 -1.1727 -1.9026
 9021TIP3   OH248477   1.706   0.523  12.285 -0.1783 -0.0989 -0.0003
 9021TIP3    H148478   1.624   0.573  12.284  1.2165  2.3794 -0.7605
 9021TIP3    H248479   1.744   0.542  12.370  0.2361 -0.0998 -0.1839
 9022TIP3   OH248480   3.288   5.752   5.122  0.1447 -0.0302 -0.4927
 9022TIP3    H148481   3.271   5.734   5.214  2.6093 -2.0054 -0.3071
 9022TIP3    H248482   3.280   5.847   5.113  1.9770  0.5027  2.3072
 9023TIP3   OH248483   6.297   5.589  14.346 -0.7171 -0.0473 -0.0691
 9023TIP3    H148484   6.235   5.659  14.362 -1.4482 -0.2721 -1.7177
 9023TIP3    H248485   6.289   5.570  14.253  1.8390 -0.0846 -0.3661
 9024TIP3   OH248486   2.098   5.628   2.863 -0.0637 -0.2864 -0.0733
 9024TIP3    H148487   2.040   5.611   2.789 -0.1075  0.6625 -0.2669
 9024TIP3    H248488   2.054   5.586   2.937 -1.2548  0.8134 -0.1284
 9025TIP3   OH248489   3.754   1.142   5.381  0.1981 -0.9394 -0.3160
 9025TIP3    H148490   3.725   1.166   5.293  0.0655  1.9095  0.3879
 9025TIP3    H248491   3.674   1.144   5.434  0.6731  0.4821  0.4023
 9026TIP3   OH248492   4.099   5.778   1.218 -0.8495 -0.4251 -0.0447
 9026TIP3    H148493   4.105   5.694   1.263  1.0417 -0.5303 -0.4124
 9026TIP3    H248494   4.114   5.843   1.287  1.8133 -0.5788 -0.3864
 9027TIP3   OH248495   1.140   3.226   5.250  0.0906 -0.3486  0.2275
 9027TIP3    H148496   1.226   3.202   5.282  0.8187  0.1513 -1.2563
 9027TIP3    H248497   1.127   3.317   5.279  0.4241 -0.1481 -0.2422
 9028TIP3   OH248498   5.511   5.534   0.493  0.2253  0.1004 -0.2708
 9028TIP3    H148499   5.478   5.463   0.547 -1.7062 -0.4556 -2.0514
 9028TIP3    H248500   5.513   5.610   0.551  1.2981 -1.1219  1.3739
 9029TIP3   OH248501   5.426   4.208  14.776 -0.3402  0.1804  0.0170
 9029TIP3    H148502   5.437   4.116  14.802  1.1762  0.0869 -0.8082
 9029TIP3    H248503   5.352   4.208  14.716  0.1365 -0.6620 -0.5936
 9030TIP3   OH248504   5.025   5.223   4.174 -0.0660  0.4446 -0.0783
 9030TIP3    H148505   5.116   5.227   4.203 -0.1036  0.4490  0.0379
 9030TIP3    H248506   4.977   5.186   4.248 -0.3318  1.4336  0.2654
 9031TIP3   OH248507   0.491   0.761  10.609 -0.0149  0.2105 -0.4591
 9031TIP3    H148508   0.554   0.771  10.537  1.4327 -1.3173  0.5359
 9031TIP3    H248509   0.517   0.681  10.653 -1.3173  0.7203  1.3543
 9032TIP3   OH248510   1.716   4.809  15.515  0.1305 -0.2153  0.3787
 9032TIP3    H148511   1.784   4.810  15.447  1.8621  1.3488  2.0257
 9032TIP3    H248512   1.738   4.734  15.570 -0.2213 -0.4312  0.2299
 9033TIP3   OH248513   1.708   5.589  11.552 -0.2717  0.2537  0.6592
 9033TIP3    H148514   1.693   5.498  11.528 -0.4149  0.4623 -0.0753
 9033TIP3    H248515   1.663   5.599  11.636 -1.8951  0.1197 -0.1530
 9034TIP3   OH248516   1.000   3.600  12.892 -1.0682  0.3336  0.1067
 9034TIP3    H148517   1.038   3.651  12.821 -0.5642  0.3961  0.4132
 9034TIP3    H248518   0.929   3.550  12.851 -0.2668 -0.2492 -0.6180
 9035TIP3   OH248519   0.627   1.509  12.772 -0.2382  0.2089 -0.3467
 9035TIP3    H148520   0.570   1.433  12.782 -1.3916  1.1364  0.3334
 9035TIP3    H248521   0.711   1.480  12.808 -0.9452 -0.4224  0.8867
 9036TIP3   OH248522   2.623   1.458  12.841 -0.4822  0.3365 -0.4079
 9036TIP3    H148523   2.657   1.533  12.794 -0.3919  1.0430  0.7507
 9036TIP3    H248524   2.572   1.409  12.775  1.1647  0.2613 -1.6962
 9037TIP3   OH248525   2.034   1.594   4.805  0.1174 -0.4193 -0.1780
 9037TIP3    H148526   2.067   1.621   4.891 -1.9082  1.3264  0.1240
 9037TIP3    H248527   2.073   1.655   4.743 -1.8268  1.1888  0.0952
 9038TIP3   OH248528   5.281   3.788  15.737  0.0920  0.2325 -0.1420
 9038TIP3    H148529   5.291   3.876  15.701 -2.0528 -0.8199 -3.7163
 9038TIP3    H248530   5.231   3.801  15.818 -0.5655  2.2667 -0.8155
 9039TIP3   OH248531   3.414   5.933   1.635  0.2358  0.3357 -0.3223
 9039TIP3    H148532   3.460   5.915   1.717  1.3483  2.4512 -0.3965
 9039TIP3    H248533   3.474   5.906   1.566 -0.6390 -1.3053 -0.4832
 9040TIP3   OH248534   3.178   0.556  16.395  0.5746 -0.1882  0.0024
 9040TIP3    H148535   3.171   0.462  16.379 -0.2477 -0.1336  0.0180
 9040TIP3    H248536   3.264   0.579  16.360  1.5604 -1.2560  1.6090
 9041TIP3   OH248537   0.823   4.872  11.998  0.3382  0.5399 -0.0845
 9041TIP3    H148538   0.855   4.889  11.909  0.3385  2.0548  0.1897
 9041TIP3    H248539   0.821   4.776  12.004  1.7024  0.4004 -1.2254
 9042TIP3   OH248540   3.133   4.774  11.327 -0.0843 -0.1891  0.3299
 9042TIP3    H148541   3.221   4.805  11.350 -0.4447  2.4048 -1.2700
 9042TIP3    H248542   3.138   4.758  11.233 -1.3013  0.0009  0.2246
 9043TIP3   OH248543   2.287   3.362  12.397  0.1076 -0.1006 -0.2834
 9043TIP3    H148544   2.222   3.312  12.447  0.0550 -0.5842 -0.8358
 9043TIP3    H248545   2.358   3.379  12.459  1.9902 -4.2005 -1.0286
 9044TIP3   OH248546   0.839   4.427  11.662 -0.6206  0.3410 -0.6212
 9044TIP3    H148547   0.802   4.346  11.698 -0.9463 -0.0585 -1.8209
 9044TIP3    H248548   0.923   4.436  11.707 -0.3846 -0.8857 -0.7700
 9045TIP3   OH248549   3.754   0.233   0.616  0.1653  0.4635 -0.0077
 9045TIP3    H148550   3.848   0.223   0.599  0.4424  0.2017  1.5210
 9045TIP3    H248551   3.720   0.276   0.538  1.8040  1.7557 -0.0714
 9046TIP3   OH248552   5.246   3.411   1.453 -0.6708  0.3018 -0.1073
 9046TIP3    H148553   5.240   3.440   1.544 -4.1120 -1.2574  0.3509
 9046TIP3    H248554   5.195   3.475   1.404 -0.1463  0.2833 -0.6821
 9047TIP3   OH248555   3.195   1.712  15.140  0.5043 -0.0336  0.3659
 9047TIP3    H148556   3.262   1.748  15.083 -1.4330 -0.8599 -2.6658
 9047TIP3    H248557   3.113   1.750  15.109 -0.7471 -1.0079  2.2415
 9048TIP3   OH248558   2.260   2.429  11.704 -0.4035 -0.8280  0.6771
 9048TIP3    H148559   2.336   2.389  11.745 -0.4128 -1.7249 -0.1286
 9048TIP3    H248560   2.293   2.510  11.665 -0.2996 -0.2144  1.9914
 9049TIP3   OH248561   5.021   5.389  11.629  0.4149 -0.1252  0.1136
 9049TIP3    H148562   5.021   5.303  11.586 -0.9444 -0.4442  0.6887
 9049TIP3    H248563   4.951   5.437  11.585  1.3457  0.8016 -0.3833
 9050TIP3   OH248564   3.724   3.637  14.153  0.2810 -0.3722 -0.2145
 9050TIP3    H148565   3.699   3.616  14.063  1.5099  2.3043 -1.3035
 9050TIP3    H248566   3.673   3.715  14.174  0.6645 -0.4549  1.1152
 9051TIP3   OH248567   4.971   5.935   5.038 -0.3340 -0.1207 -0.0819
 9051TIP3    H148568   4.987   6.023   5.004 -2.0200  0.5991  0.8702
 9051TIP3    H248569   5.005   5.936   5.127 -0.3195 -0.4470 -0.0795
 9052TIP3   OH248570   3.283   0.292  16.372 -0.2081 -0.6216  0.0324
 9052TIP3    H148571   3.325   0.300  16.458  0.3988 -1.8535 -0.1341
 9052TIP3    H248572   3.344   0.240  16.320 -0.4567  0.3049 -1.2378
 9053TIP3   OH248573   4.331   2.445  12.591  0.3437  0.4883  0.3725
 9053TIP3    H148574   4.247   2.417  12.628  0.1502 -0.9194 -1.0228
 9053TIP3    H248575   4.309   2.520  12.536 -0.6044 -1.6000 -2.3171
 9054TIP3   OH248576   5.318   4.585   2.087 -0.3509  0.3407 -0.1192
 9054TIP3    H148577   5.242   4.569   2.032 -1.0471  0.1098  0.8792
 9054TIP3    H248578   5.304   4.530   2.164  0.7460  0.4260  0.1558
 9055TIP3   OH248579   4.031   1.667  16.572  0.4158  0.2012 -0.0206
 9055TIP3    H148580   4.071   1.694  16.655 -4.0095 -0.4880  2.6570
 9055TIP3    H248581   4.028   1.747  16.520  1.9999  1.0171  1.0401
 9056TIP3   OH248582   0.407   3.574   1.533 -0.2241  0.0528  0.1271
 9056TIP3    H148583   0.486   3.621   1.560 -1.4735  1.4841  1.5103
 9056TIP3    H248584   0.392   3.511   1.604  0.2255 -0.9737 -0.6585
 9057TIP3   OH248585   3.308   0.952  16.069 -0.2918 -0.4128 -0.7770
 9057TIP3    H148586   3.261   0.964  15.986  1.5854 -0.2200 -1.8637
 9057TIP3    H248587   3.393   0.918  16.044  0.6777  0.5378  1.0081
 9058TIP3   OH248588   1.804   4.965  13.930  0.3881  1.1296  0.1596
 9058TIP3    H148589   1.759   5.015  13.862 -0.4687  0.1604  0.0051
 9058TIP3    H248590   1.894   4.957  13.897 -0.2557 -0.2709 -1.4307
 9059TIP3   OH248591   0.461   6.126   1.618 -0.1567 -0.4889 -0.2162
 9059TIP3    H148592   0.377   6.170   1.605  0.8986  1.5185 -0.6419
 9059TIP3    H248593   0.441   6.033   1.607 -2.1574 -0.0103 -1.1254
 9060TIP3   OH248594   0.611   6.626   2.184  0.0354  0.0948  0.1418
 9060TIP3    H148595   0.676   6.688   2.152  0.4887  0.9285  2.4858
 9060TIP3    H248596   0.533   6.680   2.201  0.0773 -0.1541  1.1802
 9061TIP3   OH248597   4.855   3.158   4.730 -0.2028  0.3198 -0.1027
 9061TIP3    H148598   4.870   3.246   4.766 -2.7448  0.3298  1.2042
 9061TIP3    H248599   4.764   3.160   4.701 -0.6717 -2.1860  0.9370
 9062TIP3   OH248600   2.096   4.395   3.612 -0.1213 -0.1967  0.3328
 9062TIP3    H148601   2.171   4.336   3.610  0.8932  1.0465 -1.6939
 9062TIP3    H248602   2.025   4.344   3.572 -0.2047 -1.1186  1.5825
 9063TIP3   OH248603   6.267   5.742  16.286  0.8457  0.4209 -0.0971
 9063TIP3    H148604   6.270   5.648  16.306  0.1744 -0.1498 -2.4410
 9063TIP3    H248605   6.198   5.776  16.344  1.0037 -0.5293  0.6835
 9064TIP3   OH248606   5.934   4.861   3.073  0.0174  0.2564 -0.2129
 9064TIP3    H148607   5.849   4.871   3.117 -0.3321  0.4196 -0.9183
 9064TIP3    H248608   5.962   4.773   3.097 -0.2533  0.2746  0.1938
 9065TIP3   OH248609   4.887   4.970   5.844 -0.2994 -0.5002 -0.1115
 9065TIP3    H148610   4.816   5.012   5.893  0.5572  1.9654 -0.8164
 9065TIP3    H248611   4.955   4.954   5.909  0.3717  1.6825 -0.1976
 9066TIP3   OH248612   0.542   4.013  15.624  0.2698  0.4178 -0.3225
 9066TIP3    H148613   0.598   3.935  15.632 -2.1002 -1.2871  1.2517
 9066TIP3    H248614   0.453   3.978  15.616 -0.9228  2.9564  0.6167
 9067TIP3   OH248615   2.919   1.691   4.324  0.9598 -0.3205 -0.0199
 9067TIP3    H148616   2.942   1.689   4.416 -0.6252  1.1543  0.4634
 9067TIP3    H248617   2.979   1.628   4.283  1.0752 -1.7076  2.1170
 9068TIP3   OH248618   0.518   3.321   1.475  0.3055  0.2354 -0.1825
 9068TIP3    H148619   0.437   3.270   1.468  1.0820 -1.0199 -0.3033
 9068TIP3    H248620   0.490   3.412   1.464 -1.1571 -0.1247  0.3034
 9069TIP3   OH248621   0.028   2.843  11.581 -0.3373 -0.6155 -0.7161
 9069TIP3    H148622   0.075   2.861  11.499  1.7689  0.4032  0.6340
 9069TIP3    H248623  -0.033   2.916  11.590  1.4181  0.8396 -0.0383
 9070TIP3   OH248624   1.329   3.184   0.236  0.1089  0.3660  0.0149
 9070TIP3    H148625   1.247   3.210   0.276  0.3095 -2.0106  2.2012
 9070TIP3    H248626   1.328   3.088   0.236 -0.0053 -0.0400 -6.2233
 9071TIP3   OH248627   0.883   1.440  16.847 -0.5392  0.5617  0.3133
 9071TIP3    H148628   0.866   1.451  16.753  0.6164 -1.1854 -0.1520
 9071TIP3    H248629   0.807   1.480  16.890 -0.8909  1.7753 -1.3373
 9072TIP3   OH248630   0.933   0.519  14.712  0.4536  0.4597  0.0029
 9072TIP3    H148631   0.873   0.447  14.733  0.0348  0.5681 -0.7915
 9072TIP3    H248632   0.981   0.534  14.794 -1.3661  1.0898  1.0042
 9073TIP3   OH248633   6.605   2.705  14.672 -0.3821  0.0568 -0.7649
 9073TIP3    H148634   6.687   2.657  14.663 -0.3465 -0.0460  0.0499
 9073TIP3    H248635   6.536   2.640  14.658 -0.3311  0.0318 -0.9017
 9074TIP3   OH248636   3.161   2.210   0.297  0.1981 -0.4814 -0.1580
 9074TIP3    H148637   3.221   2.277   0.264 -0.4895  0.5618  0.6251
 9074TIP3    H248638   3.154   2.146   0.226 -0.3346  1.0752 -1.5761
 9075TIP3   OH248639   4.982   0.124  16.559  0.6954  0.2250 -0.0307
 9075TIP3    H148640   4.939   0.054  16.608  0.0074  0.0348 -0.8645
 9075TIP3    H248641   4.916   0.194  16.554  1.4976  1.0906  1.0929
 9076TIP3   OH248642   2.930   0.548  12.426  0.0047  0.1550  0.1437
 9076TIP3    H148643   2.916   0.456  12.405  0.4240  0.3884 -1.2350
 9076TIP3    H248644   2.852   0.593  12.394  0.0206  0.3472  0.3681
 9077TIP3   OH248645   4.500   1.230  10.864 -0.1677  0.4862  0.5604
 9077TIP3    H148646   4.567   1.205  10.800 -0.0970 -1.2909  1.2690
 9077TIP3    H248647   4.422   1.247  10.812  0.6490  2.1492 -0.2424
 9078TIP3   OH248648   2.675   5.900  11.650 -0.1089  0.0494 -0.1352
 9078TIP3    H148649   2.710   5.836  11.712  2.1195  0.5508 -0.7942
 9078TIP3    H248650   2.745   5.965  11.640 -1.6231  1.6588 -0.8176
 9079TIP3   OH248651   2.442   5.974  13.361 -0.0038  0.2360  0.1074
 9079TIP3    H148652   2.355   5.971  13.401  1.2673 -0.7701  3.1074
 9079TIP3    H248653   2.474   6.063  13.378  0.4942 -0.1592  1.3571
 9080TIP3   OH248654   0.919   2.600   0.846  0.3099  0.0753 -0.1765
 9080TIP3    H148655   0.979   2.527   0.860 -0.0675  0.0245  1.2944
 9080TIP3    H248656   0.854   2.566   0.785  1.5443  0.0195 -1.5074
 9081TIP3   OH248657   2.447   6.799   5.622  0.2448  0.3860 -0.0257
 9081TIP3    H148658   2.529   6.849   5.627 -0.6492  1.8557  0.6297
 9081TIP3    H248659   2.385   6.849   5.675 -0.9692 -0.9352 -0.1371
 9082TIP3   OH248660   4.108   3.375  13.811 -0.7078  0.0246 -1.0092
 9082TIP3    H148661   4.091   3.451  13.867  2.1624  0.5898 -0.7515
 9082TIP3    H248662   4.074   3.400  13.725 -0.1494  1.4678 -0.8300
 9083TIP3   OH248663   0.266   4.943  16.642  0.3737  0.0479  0.0169
 9083TIP3    H148664   0.345   4.932  16.588 -0.1684 -0.8211 -0.6251
 9083TIP3    H248665   0.240   4.853  16.665 -0.3676  0.3309  0.3124
 9084TIP3   OH248666   4.046   6.516   2.759 -0.5321 -0.1236 -0.3903
 9084TIP3    H148667   4.050   6.426   2.792  0.3604 -0.0718 -0.3265
 9084TIP3    H248668   4.135   6.534   2.728 -0.9578  0.3944 -1.3359
 9085TIP3   OH248669   3.302   1.803  15.403 -0.1000 -0.1542  0.5610
 9085TIP3    H148670   3.236   1.870  15.421  1.4335  1.9757 -1.1706
 9085TIP3    H248671   3.278   1.769  15.316  0.7598  0.3021  0.1298
 9086TIP3   OH248672   1.949   1.992  16.259  0.4703  0.2764  0.2146
 9086TIP3    H148673   1.993   1.958  16.336 -0.0069 -1.3831 -0.2043
 9086TIP3    H248674   2.014   2.050  16.218  0.7694  1.0729  1.7566
 9087TIP3   OH248675   2.435   2.568  11.356  0.7604  0.0589 -0.1700
 9087TIP3    H148676   2.495   2.513  11.306 -0.0231 -1.9700  1.0104
 9087TIP3    H248677   2.416   2.517  11.435 -0.3931  1.8411  0.7714
 9088TIP3   OH248678   6.205   3.704  16.284 -0.0414  0.1273  0.1006
 9088TIP3    H148679   6.116   3.740  16.278  0.3419  0.9118 -1.0349
 9088TIP3    H248680   6.193   3.620  16.329 -1.0471  1.2852  2.1769
 9089TIP3   OH248681   6.786   1.676  15.192  0.3893  0.4180 -0.0409
 9089TIP3    H148682   6.855   1.616  15.166 -0.4733 -0.5195 -0.2327
 9089TIP3    H248683   6.755   1.642  15.276 -0.4725  0.2714 -0.4129
 9090TIP3   OH248684   2.739   2.114  13.979 -0.1020  0.1100 -0.1274
 9090TIP3    H148685   2.814   2.173  13.972 -0.1335  0.5949  2.5748
 9090TIP3    H248686   2.663   2.172  13.977 -0.1955  0.0497  1.1812
 9091TIP3   OH248687   2.031   3.404  13.429 -0.1671 -0.3443 -0.4448
 9091TIP3    H148688   2.056   3.489  13.464  0.1811 -0.8786  0.6748
 9091TIP3    H248689   1.982   3.424  13.349 -1.1811  0.9664  0.4551
 9092TIP3   OH248690   0.990   3.761  12.116 -0.2395  0.2055 -0.5064
 9092TIP3    H148691   1.022   3.848  12.094 -0.3774  0.2916 -0.3654
 9092TIP3    H248692   1.016   3.706  12.042 -0.3181  0.4062 -0.6831
 9093TIP3   OH248693   5.549   4.992  13.099 -0.2737 -0.2429  0.2569
 9093TIP3    H148694   5.636   5.002  13.136 -0.0489 -0.6233 -0.1438
 9093TIP3    H248695   5.490   4.989  13.174  0.1235 -0.5650  0.5582
 9094TIP3   OH248696   0.085   3.699   3.967 -0.1943  0.0199  0.0347
 9094TIP3    H148697   0.142   3.698   4.043  0.1080 -1.3565 -0.1977
 9094TIP3    H248698  -0.002   3.678   4.001  0.1492 -1.8288 -0.1276
 9095TIP3   OH248699   4.011   6.058  16.689  0.0952 -0.5730  0.1844
 9095TIP3    H148700   4.066   6.074  16.612 -1.4125 -0.4754 -0.9084
 9095TIP3    H248701   3.943   6.124  16.684  0.5968  0.1695  2.2699
 9096TIP3   OH248702   0.466   1.521  15.061 -0.1150  0.3740  0.1424
 9096TIP3    H148703   0.466   1.481  14.975  1.0303 -0.2438  0.4055
 9096TIP3    H248704   0.446   1.613  15.045 -0.6431  0.1210 -0.6936
 9097TIP3   OH248705   4.410   0.762  16.188  0.2305  0.0515 -0.7352
 9097TIP3    H148706   4.410   0.791  16.279 -0.9414  0.3252 -0.8112
 9097TIP3    H248707   4.386   0.840  16.137  1.6869  0.1234 -1.3751
 9098TIP3   OH248708   0.269   0.746  11.100 -0.5556 -0.3327  0.4091
 9098TIP3    H148709   0.222   0.759  11.182 -0.0331  0.5034  0.5901
 9098TIP3    H248710   0.204   0.766  11.032 -1.3334 -2.1565  0.5594
 9099TIP3   OH248711   2.639   1.791   0.251  0.1850 -0.0156  0.3577
 9099TIP3    H148712   2.566   1.802   0.190 -0.1897 -0.4366  0.7173
 9099TIP3    H248713   2.657   1.879   0.284  0.0840  0.1430 -0.0141
 9100TIP3   OH248714   0.039   5.743  17.074 -0.3114  0.6792 -0.1609
 9100TIP3    H148715   0.110   5.688  17.041  0.1359  0.6988  0.7425
 9100TIP3    H248716  -0.041   5.696  17.049  0.0479  0.0060 -0.0570
 9101TIP3   OH248717   1.146   0.770   5.440 -0.5924 -0.4109 -0.3235
 9101TIP3    H148718   1.199   0.731   5.510 -0.0677 -1.0341 -1.0484
 9101TIP3    H248719   1.067   0.801   5.484 -1.2122 -2.6435  0.2564
 9102TIP3   OH248720   6.596   6.759   6.187  0.8013 -0.9401  0.0465
 9102TIP3    H148721   6.579   6.853   6.198  0.4357 -0.9145 -0.7300
 9102TIP3    H248722   6.692   6.753   6.181  0.7677 -0.4506 -1.3238
 9103TIP3   OH248723   3.945   2.720  13.784  0.1956 -0.2985 -0.7856
 9103TIP3    H148724   4.020   2.670  13.815  1.9069  1.5358 -1.7181
 9103TIP3    H248725   3.882   2.715  13.856  2.0056 -0.3029  0.9090
 9104TIP3   OH248726   5.972   1.532  14.406  0.4920  0.3208  0.1287
 9104TIP3    H148727   6.014   1.514  14.321 -1.0169 -0.3467 -0.5073
 9104TIP3    H248728   5.948   1.624  14.402 -0.3777  0.0778 -0.5583
 9105TIP3   OH248729   3.014   5.873  15.683  0.1744 -0.2530 -0.0618
 9105TIP3    H148730   3.022   5.965  15.657  2.4037  0.2164  1.8792
 9105TIP3    H248731   2.963   5.875  15.765 -0.2507 -0.8256 -0.3014
 9106TIP3   OH248732   4.339   4.316   1.183  0.0425 -0.3993 -0.3607
 9106TIP3    H148733   4.364   4.408   1.179 -0.1662 -0.3775 -1.5310
 9106TIP3    H248734   4.376   4.278   1.103 -0.7234 -1.1073 -0.3849
 9107TIP3   OH248735   1.444   3.962   6.358  1.2463 -0.0464 -0.0125
 9107TIP3    H148736   1.483   3.932   6.440  0.9368  0.4998  0.3395
 9107TIP3    H248737   1.395   4.041   6.381 -0.3686 -0.8902 -0.3497
 9108TIP3   OH248738   2.512   3.350   1.565 -0.5027  0.0870 -0.1253
 9108TIP3    H148739   2.509   3.355   1.469 -0.0953 -2.0037 -0.2863
 9108TIP3    H248740   2.589   3.401   1.589 -0.1976  0.0396 -0.9666
 9109TIP3   OH248741   6.317   1.214  11.913 -0.2681 -0.3078 -0.5144
 9109TIP3    H148742   6.281   1.299  11.888  1.6719  1.2017  1.4535
 9109TIP3    H248743   6.247   1.173  11.965 -0.5831  0.9079  0.0636
 9110TIP3   OH248744   3.072   2.335   6.625  0.1932  0.0559 -0.1158
 9110TIP3    H148745   3.099   2.305   6.538  0.3559 -1.3876  0.4096
 9110TIP3    H248746   3.115   2.420   6.635 -0.6342  0.7197 -1.8322
 9111TIP3   OH248747   4.476   5.917  15.408  0.2190  0.2175 -0.4255
 9111TIP3    H148748   4.524   5.962  15.477 -0.4766 -1.8963  1.5569
 9111TIP3    H248749   4.545   5.878  15.353  0.7738  1.1250 -0.3989
 9112TIP3   OH248750   4.744   4.224  11.056  0.0977 -0.2345  0.3480
 9112TIP3    H148751   4.799   4.264  10.988  0.6432 -0.8516  0.4173
 9112TIP3    H248752   4.692   4.296  11.090 -1.7716 -0.2601 -2.1979
 9113TIP3   OH248753   4.565   2.434  10.988 -0.3075  0.2724 -0.1752
 9113TIP3    H148754   4.481   2.392  10.968 -0.2274 -0.4362  0.8834
 9113TIP3    H248755   4.623   2.406  10.918 -1.0124  0.9893 -1.0673
 9114TIP3   OH248756   2.941   2.528   3.355  0.3091  0.2719 -0.2162
 9114TIP3    H148757   2.896   2.450   3.387 -1.4376  1.0366 -0.6751
 9114TIP3    H248758   3.034   2.511   3.371  0.0400 -2.1614 -0.8883
 9115TIP3   OH248759   2.137   0.642  13.780 -0.0130 -0.0027 -0.6467
 9115TIP3    H148760   2.133   0.670  13.872 -2.7912 -0.7203 -0.4825
 9115TIP3    H248761   2.143   0.723  13.730 -1.1748  0.5581  0.0911
 9116TIP3   OH248762   1.917   4.614   5.377  0.2193  0.8302  0.3464
 9116TIP3    H148763   1.859   4.686   5.402 -0.2660 -0.2145  2.5159
 9116TIP3    H248764   1.958   4.587   5.459 -0.3965 -2.0011 -0.1588
 9117TIP3   OH248765   2.444   1.034  16.854  0.4686 -0.2572 -0.2171
 9117TIP3    H148766   2.432   1.063  16.944 -2.2811  0.8483 -0.8404
 9117TIP3    H248767   2.463   0.941  16.861 -0.8661 -0.4580  1.4887
 9118TIP3   OH248768   0.745   5.529  11.683 -0.0081 -0.0411  0.6984
 9118TIP3    H148769   0.840   5.527  11.680 -0.0471 -0.0340 -0.9432
 9118TIP3    H248770   0.719   5.438  11.696  0.2092 -0.0908  0.7870
 9119TIP3   OH248771   5.922   1.175   5.171 -0.4589  0.5859 -0.2159
 9119TIP3    H148772   5.972   1.119   5.112 -0.8047 -0.8201  0.7678
 9119TIP3    H248773   5.885   1.115   5.236 -0.4073  2.0104  1.2122
 9120TIP3   OH248774   2.193   3.002   4.334  0.8794  0.2214 -0.4170
 9120TIP3    H148775   2.268   3.061   4.343 -0.1201  1.6062 -0.8521
 9120TIP3    H248776   2.151   3.028   4.252 -1.5699  1.2878  1.0379
 9121TIP3   OH248777   0.153   4.837  12.698  0.1233 -0.4582  0.6511
 9121TIP3    H148778   0.242   4.836  12.663  0.3253 -1.1417  1.1616
 9121TIP3    H248779   0.102   4.884  12.632  0.6374 -1.0706 -0.2006
 9122TIP3   OH248780   1.851   1.747  12.863  0.9465 -0.0013 -0.0435
 9122TIP3    H148781   1.799   1.806  12.809  1.5435  1.0577  0.5054
 9122TIP3    H248782   1.919   1.803  12.901 -0.4981 -0.2340  3.2691
 9123TIP3   OH248783   0.045   4.617   1.454 -0.3261  0.2501 -0.1178
 9123TIP3    H148784   0.103   4.589   1.383 -0.5329  0.7445 -0.4916
 9123TIP3    H248785   0.005   4.697   1.421 -1.6881 -0.3986 -0.1216
 9124TIP3   OH248786   3.718   2.782  17.154 -0.7484  0.1588  0.0776
 9124TIP3    H148787   3.738   2.691  17.130 -1.1379  0.1314 -0.1638
 9124TIP3    H248788   3.750   2.791  17.243 -0.9096 -0.2885  0.1866
 9125TIP3   OH248789   4.885   1.457  16.741  1.2764 -0.2772 -0.1441
 9125TIP3    H148790   4.954   1.421  16.796  1.3099 -0.6232 -0.4135
 9125TIP3    H248791   4.929   1.522  16.686  1.1925  0.2832  0.4304
 9126TIP3   OH248792   5.719   1.961   0.284  0.0130  0.1425  0.5212
 9126TIP3    H148793   5.763   1.944   0.367  0.3524 -2.4785 -0.0993
 9126TIP3    H248794   5.745   1.888   0.228  1.2679  2.6976 -2.5437
 9127TIP3   OH248795   0.085   2.914   2.884 -0.0405  0.0756  0.4335
 9127TIP3    H148796   0.133   2.927   2.802  0.1971  0.1818  0.5902
 9127TIP3    H248797   0.106   2.824   2.909  1.6843  0.7417  1.5393
 9128TIP3   OH248798   5.520   4.539  12.987  0.3060 -0.2839 -0.3813
 9128TIP3    H148799   5.521   4.481  12.910  0.4339  0.3934 -0.8959
 9128TIP3    H248800   5.602   4.587  12.981  0.2338 -0.1000  0.0883
 9129TIP3   OH248801   1.903   3.539   5.071 -0.1881  0.2923  0.4426
 9129TIP3    H148802   1.874   3.625   5.042 -1.3904  0.1130  1.0530
 9129TIP3    H248803   1.841   3.478   5.032  0.8098 -0.3391 -0.2076
 9130TIP3   OH248804   0.393   1.366   6.394 -0.0895  0.2141  0.6832
 9130TIP3    H148805   0.398   1.278   6.431  1.0647  0.5307  1.3290
 9130TIP3    H248806   0.459   1.416   6.443  1.6037  0.6490 -1.8699
 9131TIP3   OH248807   0.079   3.455   5.393 -0.3304 -0.3137  0.4443
 9131TIP3    H148808   0.157   3.492   5.351  0.3432 -0.3307  1.6119
 9131TIP3    H248809   0.103   3.451   5.486 -1.3145 -1.3747  0.6649
 9132TIP3   OH248810   0.379   3.746  13.326 -0.2719  0.3852 -0.9697
 9132TIP3    H148811   0.302   3.691  13.338 -0.2917  0.6110  0.0795
 9132TIP3    H248812   0.352   3.813  13.263 -1.3079  1.1279  0.2302
 9133TIP3   OH248813   1.401   6.360   0.711  0.1971 -0.0377 -0.0452
 9133TIP3    H148814   1.374   6.445   0.745 -0.3111 -0.1763 -0.0940
 9133TIP3    H248815   1.487   6.344   0.751  0.0061  0.2032  0.4737
 9134TIP3   OH248816   5.064   2.661  12.025 -0.1390  0.6042 -0.5019
 9134TIP3    H148817   5.010   2.669  11.946 -0.5315  0.9275 -0.2101
 9134TIP3    H248818   5.083   2.751  12.050 -2.4934  0.6730  1.4152
 9135TIP3   OH248819   0.677   4.715  10.850  0.4930  0.1907  0.2754
 9135TIP3    H148820   0.699   4.804  10.877 -1.3610  0.8931 -0.3705
 9135TIP3    H248821   0.587   4.702  10.880 -0.4284 -0.2344 -2.3662
 9136TIP3   OH248822   4.419   2.339   2.639  0.2688  0.4947 -0.1947
 9136TIP3    H148823   4.467   2.413   2.675  0.7868 -0.1201  0.3918
 9136TIP3    H248824   4.437   2.266   2.699 -1.2241  0.1941 -0.0638
 9137TIP3   OH248825   0.024   4.531  11.132  0.5261 -0.2991  0.3177
 9137TIP3    H148826  -0.062   4.574  11.125  1.6336  2.0554  0.3894
 9137TIP3    H248827   0.067   4.550  11.049  0.7767 -2.0942 -0.0151
 9138TIP3   OH248828   1.825   1.438   5.942 -0.0485 -0.1924  0.5060
 9138TIP3    H148829   1.899   1.424   5.882 -0.1472  3.5147 -0.7177
 9138TIP3    H248830   1.860   1.493   6.012 -1.2612  0.2378  0.7993
 9139TIP3   OH248831   1.912   4.817  12.420 -0.0002 -0.8884  0.2609
 9139TIP3    H148832   1.973   4.811  12.493 -0.6697 -0.2937  0.8803
 9139TIP3    H248833   1.926   4.904  12.383  1.7475 -1.8628 -1.6256
 9140TIP3   OH248834   4.784   2.614   6.169 -0.4310  1.0367 -0.5492
 9140TIP3    H148835   4.850   2.573   6.225 -0.6466  1.6934  0.2141
 9140TIP3    H248836   4.715   2.547   6.162 -0.6400  1.1196  0.4276
 9141TIP3   OH248837   4.567   4.188  15.116 -0.0973 -0.5802  0.0565
 9141TIP3    H148838   4.599   4.107  15.076  2.0747  0.1132  0.3019
 9141TIP3    H248839   4.512   4.159  15.188  1.2593 -1.8660  0.6169
 9142TIP3   OH248840   3.644   1.623  12.007 -0.4079 -0.2826  0.0971
 9142TIP3    H148841   3.643   1.527  12.007  0.8418 -0.3758 -2.0815
 9142TIP3    H248842   3.597   1.647  11.927 -1.5281  1.0003  1.0928
 9143TIP3   OH248843   5.391   4.350   5.869 -0.2010  0.1521  0.0719
 9143TIP3    H148844   5.465   4.294   5.893 -0.5253 -0.9903 -1.4305
 9143TIP3    H248845   5.395   4.423   5.931  0.1304 -1.5879  2.1913
 9144TIP3   OH248846   6.338   1.125  14.540 -0.3835  0.0609  0.4562
 9144TIP3    H148847   6.392   1.168  14.606  0.7812  1.2586 -1.1907
 9144TIP3    H248848   6.269   1.081  14.590  0.9169  0.2013  2.4972
 9145TIP3   OH248849   1.325   6.065   5.395 -0.2862  0.3283 -0.6840
 9145TIP3    H148850   1.303   5.974   5.375  1.8857 -0.9344  2.0718
 9145TIP3    H248851   1.245   6.101   5.434 -1.0485 -0.4654 -1.4636
 9146TIP3   OH248852   4.485   0.997  16.928 -0.0606 -0.1132 -0.0046
 9146TIP3    H148853   4.562   1.039  16.967  0.3335  1.1714 -2.0328
 9146TIP3    H248854   4.413   1.018  16.988  0.3900  2.3322 -0.2368
 9147TIP3   OH248855   1.351   1.376  15.329 -0.0942 -0.0647  0.4443
 9147TIP3    H148856   1.381   1.429  15.404  3.3697 -0.3519 -0.5365
 9147TIP3    H248857   1.323   1.441  15.265  0.4843  0.4046  0.6484
 9148TIP3   OH248858   1.190   5.234   4.540 -0.3767 -0.3778  0.2837
 9148TIP3    H148859   1.222   5.213   4.628  0.2975 -0.6558 -0.0229
 9148TIP3    H248860   1.212   5.326   4.529  0.0325 -0.4826  0.2009
 9149TIP3   OH248861   6.800   4.626  14.100  0.8408  0.5013  0.4262
 9149TIP3    H148862   6.739   4.566  14.144  0.7897  0.8819  0.8706
 9149TIP3    H248863   6.743   4.687  14.052  0.8719  0.8467  0.8279
 9150TIP3   OH248864   0.657   4.840   0.118 -0.2109  0.1008 -0.0067
 9150TIP3    H148865   0.593   4.907   0.144 -0.3971  1.1299 -2.7472
 9150TIP3    H248866   0.668   4.786   0.196 -1.4832  2.2026  1.7653
 9151TIP3   OH248867   1.162   3.027   4.723 -0.1237 -0.0010  0.3417
 9151TIP3    H148868   1.128   2.938   4.722 -0.3740  0.0788  1.4660
 9151TIP3    H248869   1.256   3.017   4.742  0.0348 -0.0609 -0.4014
 9152TIP3   OH248870   4.500   6.529  12.336  0.1245  0.3138 -0.0904
 9152TIP3    H148871   4.587   6.554  12.305 -0.5676  0.8257 -1.7747
 9152TIP3    H248872   4.441   6.587  12.287 -1.1178  0.6364  1.7141
 9153TIP3   OH248873   4.751   1.198  16.459  0.0316 -0.2313  0.4759
 9153TIP3    H148874   4.722   1.235  16.376  2.0839 -0.8044 -0.5616
 9153TIP3    H248875   4.842   1.226  16.468  0.0483 -0.7008  2.2369
 9154TIP3   OH248876   0.446   0.961   5.053 -0.2305 -0.1255  0.1390
 9154TIP3    H148877   0.378   0.987   4.991  0.1723  1.3374  0.2883
 9154TIP3    H248878   0.482   0.880   5.016 -0.8158  0.0686 -0.8891
 9155TIP3   OH248879   4.247   0.018  15.560  0.1337  0.1036 -0.4108
 9155TIP3    H148880   4.313   0.075  15.521 -0.6014  1.2238 -0.0578
 9155TIP3    H248881   4.208   0.070  15.630 -0.2729 -0.9860  0.1975
 9156TIP3   OH248882   4.329   3.399  11.778 -0.1168 -0.1881  0.1686
 9156TIP3    H148883   4.335   3.494  11.771 -0.1581 -0.2741 -1.2561
 9156TIP3    H248884   4.380   3.366  11.704 -1.3740 -1.2361 -0.2779
 9157TIP3   OH248885   2.435   5.829  16.256  0.0240  0.3211  0.1199
 9157TIP3    H148886   2.365   5.808  16.194 -0.6209 -1.0059  1.2351
 9157TIP3    H248887   2.411   5.914  16.292 -0.0953  0.6589 -0.7301
 9158TIP3   OH248888   6.338   1.602  14.252 -0.3683  0.2437 -0.7246
 9158TIP3    H148889   6.300   1.687  14.228  0.0420  0.5528 -0.2954
 9158TIP3    H248890   6.427   1.605  14.217  0.2234  0.6823  0.7692
 9159TIP3   OH248891   6.206   5.732   5.604  0.3188 -0.2163  0.2330
 9159TIP3    H148892   6.145   5.721   5.676  2.1258 -0.6482  1.7711
 9159TIP3    H248893   6.254   5.649   5.599  3.6531  1.3903  1.9529
 9160TIP3   OH248894   6.218   3.002   2.297  0.0547  0.4920  0.3231
 9160TIP3    H148895   6.245   2.912   2.316 -0.0651  0.2549 -0.5803
 9160TIP3    H248896   6.136   2.992   2.250  0.6390  1.0135 -0.8458
 9161TIP3   OH248897   6.533   4.919   2.239  0.7695  0.3392  0.1172
 9161TIP3    H148898   6.582   4.844   2.272  0.1099  0.9278  2.6108
 9161TIP3    H248899   6.559   4.991   2.296  0.2013  1.6605 -1.2353
 9162TIP3   OH248900   3.374   4.562  14.238  0.5810 -0.2039  0.4825
 9162TIP3    H148901   3.322   4.641  14.227 -1.9258 -1.9253 -0.9035
 9162TIP3    H248902   3.312   4.496  14.268  1.7151 -2.5444 -1.9038
 9163TIP3   OH248903   1.637   1.843  12.739 -0.2181 -0.0956  0.0309
 9163TIP3    H148904   1.639   1.921  12.684  1.0248  0.7184  1.1571
 9163TIP3    H248905   1.633   1.770  12.677  0.9214  0.7823 -1.1384
 9164TIP3   OH248906   4.159   6.423  11.059 -0.4527 -0.3181 -0.2909
 9164TIP3    H148907   4.242   6.431  11.011 -1.5656 -0.8054 -2.4026
 9164TIP3    H248908   4.092   6.424  10.991 -2.1249 -1.2850  1.2659
 9165TIP3   OH248909   0.229   2.966  13.350 -0.2707  0.3762 -0.7589
 9165TIP3    H148910   0.165   3.026  13.312 -1.3145 -0.3991 -0.2517
 9165TIP3    H248911   0.221   2.977  13.444 -1.1969 -1.2423 -0.6037
 9166TIP3   OH248912   5.196   4.045   1.475  0.2301  0.3793 -0.1385
 9166TIP3    H148913   5.142   3.975   1.440  0.3286 -1.1998  2.5422
 9166TIP3    H248914   5.286   4.013   1.467  0.1786 -0.7807  2.7561
 9167TIP3   OH248915   6.077   2.052  13.446 -0.2460  0.1380 -0.1574
 9167TIP3    H148916   5.986   2.058  13.416 -1.1797 -0.5367  2.2801
 9167TIP3    H248917   6.070   2.055  13.541  2.3978  1.0776  0.0671
 9168TIP3   OH248918   1.167   0.436  13.061  0.9304  0.5300 -0.2182
 9168TIP3    H148919   1.079   0.427  13.099  1.2330  1.8113  0.8494
 9168TIP3    H248920   1.207   0.350  13.075 -0.2165 -0.1585 -0.9527
 9169TIP3   OH248921   0.453   5.534   0.627 -0.1506 -0.5585  0.9902
 9169TIP3    H148922   0.443   5.451   0.581 -1.3163 -0.5929  1.2789
 9169TIP3    H248923   0.391   5.529   0.700  0.0430  0.4056  1.2384
 9170TIP3   OH248924   4.024   5.577   5.894 -0.1228  0.5516  0.2946
 9170TIP3    H148925   4.100   5.568   5.952  0.1333  1.3001  0.0987
 9170TIP3    H248926   4.060   5.566   5.806 -0.4220 -0.0862  0.2495
 9171TIP3   OH248927   1.607   0.260   3.688  0.7943 -0.0038  0.5812
 9171TIP3    H148928   1.544   0.320   3.646  0.0081 -0.6082  0.8803
 9171TIP3    H248929   1.677   0.318   3.719  0.0660  0.7714  0.8338
 9172TIP3   OH248930   6.644   1.667   4.312  0.0940  0.4064 -0.3930
 9172TIP3    H148931   6.678   1.720   4.240  1.2170 -0.5373 -0.5991
 9172TIP3    H248932   6.550   1.685   4.313  0.4310  2.3998 -0.4237
 9173TIP3   OH248933   1.037   5.290  15.862  0.4615  0.0214 -0.1813
 9173TIP3    H148934   1.002   5.320  15.946  0.4242 -0.3441 -0.0645
 9173TIP3    H248935   0.992   5.208  15.845  0.9328 -0.2284 -0.2509
 9174TIP3   OH248936   0.178   5.444   1.460 -0.3119 -0.5889  0.6927
 9174TIP3    H148937   0.137   5.449   1.374  2.4021 -1.7756 -0.8066
 9174TIP3    H248938   0.110   5.405   1.516 -1.9101 -0.4939 -1.0641
 9175TIP3   OH248939   3.097   4.767  15.788  0.5255  0.2619  0.5279
 9175TIP3    H148940   3.159   4.819  15.737  1.5992 -1.5948 -0.1700
 9175TIP3    H248941   3.109   4.678  15.756 -0.8772 -0.5126  2.0196
 9176TIP3   OH248942   2.895   3.967  14.246  0.4872 -0.3807 -0.0577
 9176TIP3    H148943   2.957   3.947  14.176  0.5602  0.2295 -0.1733
 9176TIP3    H248944   2.817   3.915  14.225 -0.1844  1.1855 -1.6213
 9177TIP3   OH248945   2.420   2.902   0.308 -0.1636 -0.6119  0.2353
 9177TIP3    H148946   2.496   2.858   0.346  1.1341 -0.2205 -1.7258
 9177TIP3    H248947   2.375   2.833   0.258 -1.4423 -0.9608  1.7916
 9178TIP3   OH248948   6.646   6.042   6.550 -0.4409 -0.5584 -0.0352
 9178TIP3    H148949   6.719   6.021   6.491 -0.3856 -0.1824 -0.1069
 9178TIP3    H248950   6.597   5.961   6.558  0.2284 -0.9333  0.3525
 9179TIP3   OH248951   5.826   1.292   3.878  0.2421  0.0770 -0.1019
 9179TIP3    H148952   5.802   1.294   3.786 -0.6915 -0.4073  0.1228
 9179TIP3    H248953   5.922   1.280   3.878  0.6262  2.6723 -1.0127
 9180TIP3   OH248954   6.527   3.253   1.441  0.6229 -0.0317 -0.0492
 9180TIP3    H148955   6.456   3.206   1.484  1.3091 -1.6519 -0.6219
 9180TIP3    H248956   6.599   3.190   1.437  0.4278 -0.2731 -4.0524
 9181TIP3   OH248957   3.933   0.055  12.042 -0.2313  0.5287  0.0140
 9181TIP3    H148958   3.985   0.022  12.116 -0.2594 -0.9113 -0.5886
 9181TIP3    H248959   3.997   0.068  11.972 -0.5003 -0.0453 -0.3391
 9182TIP3   OH248960   0.918   3.156  15.782  0.1264 -0.2066 -0.3212
 9182TIP3    H148961   0.995   3.137  15.835 -0.9644  1.5199  2.0929
 9182TIP3    H248962   0.941   3.235  15.733  0.5884 -0.8907 -1.2225
 9183TIP3   OH248963   0.215   2.585  10.530 -0.1790 -0.0315  0.1713
 9183TIP3    H148964   0.249   2.654  10.474 -1.2610  0.4829  0.1146
 9183TIP3    H248965   0.179   2.631  10.606 -0.4264 -0.5773  0.3950
 9184TIP3   OH248966   3.766   5.835  12.879 -0.2453  0.4554  0.3759
 9184TIP3    H148967   3.779   5.930  12.879  0.1109  0.4265 -0.7114
 9184TIP3    H248968   3.709   5.819  12.954 -0.8083  1.5967  0.2196
 9185TIP3   OH248969   2.378   5.568  13.488  0.5090  0.2154 -0.4453
 9185TIP3    H148970   2.439   5.596  13.421  0.3036  1.5475 -0.0972
 9185TIP3    H248971   2.417   5.597  13.571 -0.4928  0.9697 -0.2087
 9186TIP3   OH248972   4.325   5.675  14.947 -0.0029  0.3795  0.3180
 9186TIP3    H148973   4.231   5.695  14.951  0.1009  1.9755 -2.4600
 9186TIP3    H248974   4.331   5.604  14.883  0.6875  0.1395  0.6402
 9187TIP3   OH248975   0.534   5.670  13.878 -0.2448 -0.3842  0.2699
 9187TIP3    H148976   0.509   5.597  13.821 -1.9816  1.3714 -1.3553
 9187TIP3    H248977   0.523   5.748  13.824  0.2701  1.2279  2.3425
 9188TIP3   OH248978   3.769   1.967   1.960  0.4970  0.0350  0.1563
 9188TIP3    H148979   3.694   1.985   1.904 -0.0242 -0.8394  0.5678
 9188TIP3    H248980   3.732   1.947   2.045  1.2606  0.8610  0.7132
 9189TIP3   OH248981   1.292   5.182   0.809  0.2430 -0.4710  0.8350
 9189TIP3    H148982   1.281   5.128   0.731 -1.6027 -0.5026  1.0757
 9189TIP3    H248983   1.332   5.123   0.873 -0.0781 -1.0285  0.5299
 9190TIP3   OH248984   0.185   0.953  15.805 -0.1609  0.4677 -0.6815
 9190TIP3    H148985   0.236   0.946  15.885  0.3078  1.0861 -0.9183
 9190TIP3    H248986   0.104   0.996  15.831  0.0815  0.8651 -0.5720
 9191TIP3   OH248987   5.816   0.519  15.098 -0.7134  0.0322  0.3166
 9191TIP3    H148988   5.734   0.561  15.122 -0.7132  0.0972  0.2022
 9191TIP3    H248989   5.795   0.467  15.020 -1.0608 -1.3351  1.2896
 9192TIP3   OH248990   0.841   0.509  15.975 -0.0359 -0.7450 -0.0638
 9192TIP3    H148991   0.763   0.564  15.970 -0.0377 -0.5693  1.5557
 9192TIP3    H248992   0.809   0.420  15.964 -0.1128 -0.5158 -2.0459
 9193TIP3   OH248993   4.759   1.754  10.732  0.2371 -0.0807 -0.0067
 9193TIP3    H148994   4.827   1.698  10.771  1.4204  1.7532  0.6957
 9193TIP3    H248995   4.677   1.705  10.746  1.2370 -1.7844  0.2310
 9194TIP3   OH248996   3.785   3.186  13.259 -0.6237  0.3726  0.3114
 9194TIP3    H148997   3.827   3.127  13.322 -0.9908  2.0637  2.2718
 9194TIP3    H248998   3.711   3.137  13.225  0.1327 -0.9270  0.4816
 9195TIP3   OH248999   0.535   6.244  15.375  0.6443 -0.0716  0.5272
 9195TIP3    H149000   0.539   6.159  15.330  0.9407  0.1778  0.0717
 9195TIP3    H249001   0.589   6.232  15.454  1.1572 -0.1413  0.1729
 9196TIP3   OH249002   0.656   3.592   5.597  0.2821  0.0932 -0.1178
 9196TIP3    H149003   0.673   3.500   5.573 -0.8990 -0.4872  1.1257
 9196TIP3    H249004   0.676   3.641   5.518  1.1334 -1.2166 -0.7576
 9197TIP3   OH249005   2.243   5.982   2.861  0.3675  0.6333  0.4456
 9197TIP3    H149006   2.210   5.895   2.842  0.2503  0.8710 -0.5249
 9197TIP3    H249007   2.242   5.989   2.956  0.8884 -0.6185  0.5575
 9198TIP3   OH249008   6.476   1.135   1.932  0.3374 -0.0126 -0.4243
 9198TIP3    H149009   6.428   1.217   1.936  1.5333  0.6885 -0.1204
 9198TIP3    H249010   6.411   1.071   1.901 -1.2196  0.5449  1.4931
 9199TIP3   OH249011   5.548   5.770   4.775 -0.1434 -0.7796  0.4182
 9199TIP3    H149012   5.501   5.747   4.856  0.1540 -0.8475  0.5729
 9199TIP3    H249013   5.640   5.754   4.795 -0.0158 -0.2870  0.2358
 9200TIP3   OH249014   3.599   1.807  14.872  0.0036 -0.1673  0.0071
 9200TIP3    H149015   3.579   1.746  14.800  0.7925 -1.2950  0.7071
 9200TIP3    H249016   3.640   1.882  14.829 -0.2120 -0.4955 -0.7920
 9201TIP3   OH249017   5.350   4.696   2.572 -0.2770 -0.1905  0.0785
 9201TIP3    H149018   5.399   4.776   2.591  0.1650 -0.2509 -0.7784
 9201TIP3    H249019   5.260   4.725   2.560 -0.9830 -0.3163  3.7813
 9202TIP3   OH249020   1.149   6.524   2.574 -0.3853 -0.0462  0.3555
 9202TIP3    H149021   1.156   6.557   2.663 -0.0494 -3.9224  1.9667
 9202TIP3    H249022   1.238   6.524   2.540  0.0343 -1.6212  1.3588
 9203TIP3   OH249023   4.453   2.084  12.816  0.1198  0.0476 -0.5342
 9203TIP3    H149024   4.492   2.062  12.731  1.1597  0.3763 -0.1521
 9203TIP3    H249025   4.474   2.176  12.829  1.1215 -0.3277  0.6760
 9204TIP3   OH249026   3.999   3.772   5.034  0.3470  0.0307  0.2580
 9204TIP3    H149027   3.915   3.772   4.989  0.8137  0.0283 -0.6345
 9204TIP3    H249028   3.978   3.790   5.125 -0.6781 -0.6157  0.1612
 9205TIP3   OH249029   0.693   5.812   5.257 -0.0507 -0.2802  0.0036
 9205TIP3    H149030   0.638   5.886   5.281  1.0654  0.2726  0.9732
 9205TIP3    H249031   0.745   5.843   5.183  1.1878  0.3185  1.0871
 9206TIP3   OH249032   1.388   3.631   0.815 -0.0625  0.0052 -0.9745
 9206TIP3    H149033   1.452   3.605   0.750  2.2050 -0.3153  1.2457
 9206TIP3    H249034   1.385   3.727   0.810  2.8560  0.2976  0.7592
 9207TIP3   OH249035   5.437   4.816  14.769 -0.1012 -0.0205  0.1423
 9207TIP3    H149036   5.397   4.800  14.684  0.9262 -0.0547 -0.3600
 9207TIP3    H249037   5.496   4.890  14.753 -0.6251  0.6106  1.0710
 9208TIP3   OH249038   3.610   6.399  14.402  0.1780 -0.3989 -0.1650
 9208TIP3    H149039   3.622   6.344  14.479  0.3177 -0.8862 -0.5338
 9208TIP3    H249040   3.670   6.363  14.337 -1.4445 -1.3323 -1.2101
 9209TIP3   OH249041   3.525   4.272   1.392 -0.5493 -0.0682  0.3395
 9209TIP3    H149042   3.584   4.346   1.377 -0.1911 -0.5046 -0.4808
 9209TIP3    H249043   3.574   4.214   1.450 -0.2030 -0.3779 -0.2522
 9210TIP3   OH249044   5.182   6.738   1.046 -0.9700  0.1493  0.1313
 9210TIP3    H149045   5.156   6.830   1.044 -0.0786  0.4791 -3.8795
 9210TIP3    H249046   5.122   6.694   0.987 -1.1690 -1.8697  1.7253
 9211TIP3   OH249047   0.498   3.131   2.565 -0.3554 -0.3281 -0.4056
 9211TIP3    H149048   0.538   3.178   2.492  1.0039  0.3325  0.7209
 9211TIP3    H249049   0.463   3.199   2.622  0.0828 -0.7499  0.3868
 9212TIP3   OH249050   2.576   6.807  14.125  0.0668  0.5054 -0.2037
 9212TIP3    H149051   2.482   6.816  14.136  0.3338  3.2103  0.3688
 9212TIP3    H249052   2.587   6.773  14.036 -1.4297 -0.5747 -0.0090
 9213TIP3   OH249053   1.529   6.638   6.665 -0.0283 -0.1627  0.1828
 9213TIP3    H149054   1.623   6.629   6.650  0.2849  2.1633  0.3097
 9213TIP3    H249055   1.522   6.669   6.755 -1.0303 -1.4081  0.5632
 9214TIP3   OH249056   5.633   5.170  12.899 -0.0870 -0.9025  0.3220
 9214TIP3    H149057   5.631   5.075  12.913 -0.3501 -1.1539 -1.2408
 9214TIP3    H249058   5.574   5.184  12.825  1.6724  0.1966 -0.9487
 9215TIP3   OH249059   2.110   0.631  11.609  0.1342 -0.1883  0.3889
 9215TIP3    H149060   2.077   0.545  11.634  2.3003 -1.2642 -0.1563
 9215TIP3    H249061   2.168   0.656  11.680 -2.6052  2.2598  1.9755
 9216TIP3   OH249062   2.319   3.295  10.881  0.1524 -0.1649 -0.0530
 9216TIP3    H149063   2.356   3.373  10.920 -0.4823 -0.2147  0.6743
 9216TIP3    H249064   2.272   3.252  10.952 -0.9285 -0.3201 -0.8307
 9217TIP3   OH249065   4.104   6.748  12.233 -0.4708  0.1834  0.6788
 9217TIP3    H149066   4.181   6.788  12.192 -0.0844 -0.9851  0.2438
 9217TIP3    H249067   4.134   6.721  12.320 -0.3395 -0.4315  0.4432
 9218TIP3   OH249068   6.742   2.645   5.504  0.4151  0.3261  0.0004
 9218TIP3    H149069   6.714   2.725   5.460  0.9062  0.9251  0.7608
 9218TIP3    H249070   6.796   2.675   5.577  1.7250 -0.7272 -0.4836
 9219TIP3   OH249071   2.908   4.459  11.981 -1.0055  0.2471 -0.5434
 9219TIP3    H149072   2.869   4.380  11.943  2.2675 -2.0211  0.3380
 9219TIP3    H249073   2.954   4.501  11.909 -0.0990 -0.4901 -0.4119
 9220TIP3   OH249074   1.369   3.810   3.143 -0.0455  0.5727 -0.4096
 9220TIP3    H149075   1.301   3.826   3.078 -1.2374  1.1528  0.9190
 9220TIP3    H249076   1.326   3.759   3.211  0.7183  1.2894  0.6529
 9221TIP3   OH249077   4.850   1.385  17.115 -0.1955  0.5299 -0.0073
 9221TIP3    H149078   4.882   1.380  17.205 -2.7151 -0.9012  0.9356
 9221TIP3    H249079   4.805   1.470  17.110  1.0432  1.1982 -0.3967
 9222TIP3   OH249080   3.450   2.447   2.375 -0.3526 -0.3387  0.4576
 9222TIP3    H149081   3.526   2.503   2.391 -0.0832 -1.2355  2.6126
 9222TIP3    H249082   3.375   2.501   2.402 -0.6042  0.6643 -1.9645
 9223TIP3   OH249083   0.715   2.469  12.239  0.5106 -0.5539 -0.1730
 9223TIP3    H149084   0.721   2.449  12.146 -0.6388 -2.6248  0.1458
 9223TIP3    H249085   0.789   2.423  12.279  0.5326 -0.3389  0.0384
 9224TIP3   OH249086   4.718   2.546  14.567  0.4425 -0.4651  0.1051
 9224TIP3    H149087   4.767   2.464  14.580  0.5532 -0.1344  2.1061
 9224TIP3    H249088   4.740   2.573  14.478  1.6826 -1.7879 -0.0332
 9225TIP3   OH249089   4.889   0.123  13.035  0.6109  0.0117  0.4256
 9225TIP3    H149090   4.927   0.080  12.959  0.3755  0.4449  0.0602
 9225TIP3    H249091   4.961   0.129  13.098  0.3079 -2.1996  1.0547
 9226TIP3   OH249092   0.928   0.488  13.275 -0.3466  0.3553  0.2439
 9226TIP3    H149093   0.890   0.514  13.359  1.6120  0.4779  1.1564
 9226TIP3    H249094   0.880   0.539  13.210 -1.9877  0.1746  1.2612
 9227TIP3   OH249095   6.745   4.836   1.328  0.5830 -0.5380 -0.4001
 9227TIP3    H149096   6.651   4.830   1.309  0.0516  0.2059  1.8016
 9227TIP3    H249097   6.761   4.929   1.342  1.2311 -0.8604  1.1328
 9228TIP3   OH249098   2.928   1.648  16.346 -0.6768 -0.0494 -0.0107
 9228TIP3    H149099   2.969   1.712  16.404 -0.8785 -0.3104  0.4220
 9228TIP3    H249100   2.835   1.670  16.348 -1.0174 -1.4628  1.5744
 9229TIP3   OH249101   0.116   5.184  11.473 -0.2203 -0.2963 -0.2007
 9229TIP3    H149102   0.157   5.185  11.387 -0.6699 -1.7944 -0.4451
 9229TIP3    H249103   0.182   5.222  11.531  0.6741 -0.6825 -0.9461
 9230TIP3   OH249104   1.819   5.495  12.242 -0.1079 -0.2348 -0.3191
 9230TIP3    H149105   1.893   5.503  12.303 -0.4182  1.0017 -0.0717
 9230TIP3    H249106   1.831   5.410  12.201  1.9411  0.2776 -0.9137
 9231TIP3   OH249107   5.143   2.115  13.046 -0.6831  0.7799  0.1870
 9231TIP3    H149108   5.209   2.096  13.113 -0.4813  1.3864  0.1755
 9231TIP3    H249109   5.185   2.181  12.990 -1.3463  1.2612  0.2476
 9232TIP3   OH249110   0.005   0.760  16.213  0.2360 -0.1735 -0.2012
 9232TIP3    H149111   0.039   0.708  16.285  0.1717 -0.5695 -0.4521
 9232TIP3    H249112  -0.027   0.840  16.254 -2.2166 -1.4464  0.5961
 9233TIP3   OH249113   6.243   0.158  15.829 -0.3238  0.5998  0.0455
 9233TIP3    H149114   6.263   0.074  15.870  1.4389  0.6083 -0.6868
 9233TIP3    H249115   6.169   0.193  15.878 -0.1825 -0.7411  1.2551
 9234TIP3   OH249116   0.212   0.358   0.425 -0.3666 -0.5710  0.0329
 9234TIP3    H149117   0.284   0.382   0.483 -0.5146  0.1213 -0.0640
 9234TIP3    H249118   0.246   0.370   0.337 -0.4838 -0.5883 -0.0160
 9235TIP3   OH249119   4.085   0.751   1.171  0.0718  0.5447  0.1533
 9235TIP3    H149120   4.101   0.794   1.255  1.0271  1.3112 -0.3983
 9235TIP3    H249121   4.158   0.690   1.161  0.3171  0.9277 -0.4139
 9236TIP3   OH249122   5.286   0.662   2.714 -0.3521  0.0186 -0.4853
 9236TIP3    H149123   5.278   0.653   2.619  1.4505 -3.4166 -0.4519
 9236TIP3    H249124   5.286   0.573   2.747  0.1634  1.0631  2.6866
 9237TIP3   OH249125   3.708   3.970   5.417 -0.0618  0.0546 -0.4135
 9237TIP3    H149126   3.682   3.906   5.483  1.4823 -0.7638 -0.5583
 9237TIP3    H249127   3.716   4.053   5.465 -1.0612 -0.0673 -0.0250
 9238TIP3   OH249128   0.427   5.725  10.956  0.1692 -0.1982 -0.4593
 9238TIP3    H149129   0.376   5.805  10.949 -0.5304 -0.5229  0.6640
 9238TIP3    H249130   0.371   5.658  10.916  0.2796 -0.3207 -0.4082
 9239TIP3   OH249131   2.815   5.809   4.529 -0.1617  0.3377  0.3411
 9239TIP3    H149132   2.848   5.730   4.573  0.1887 -0.0249 -0.5627
 9239TIP3    H249133   2.866   5.815   4.449  0.8020  2.2627  1.0239
 9240TIP3   OH249134   3.621   3.839  15.740 -0.1077 -0.1178 -0.0074
 9240TIP3    H149135   3.659   3.778  15.803 -1.3140 -0.7445  0.1520
 9240TIP3    H249136   3.693   3.895  15.714  0.5826 -0.3333  1.3696
 9241TIP3   OH249137   5.370   5.537   2.436  0.2160 -0.3883 -0.1758
 9241TIP3    H149138   5.451   5.538   2.487 -0.6352 -0.3363  1.2110
 9241TIP3    H249139   5.324   5.459   2.467 -1.5998  1.1812  1.2149
 9242TIP3   OH249140   2.538   1.912  16.065 -0.1619 -0.4117 -0.1223
 9242TIP3    H149141   2.449   1.895  16.094  0.4962 -1.7513  1.2269
 9242TIP3    H249142   2.593   1.861  16.124  1.4363 -0.6867 -1.7627
 9243TIP3   OH249143   6.186   1.689   0.759 -0.5126  0.4040 -0.6290
 9243TIP3    H149144   6.260   1.664   0.814 -2.1926  0.2322  1.7144
 9243TIP3    H249145   6.197   1.638   0.679  0.6257 -1.4839  0.6423
 9244TIP3   OH249146   1.933   1.010  12.060 -0.5576 -0.2155 -0.2786
 9244TIP3    H149147   1.925   1.100  12.028  1.8776 -0.0270 -0.5487
 9244TIP3    H249148   1.934   0.956  11.980  3.2330  0.0631 -0.6017
 9245TIP3   OH249149   3.033   2.854  17.062 -0.2524 -0.3195  0.0957
 9245TIP3    H149150   2.947   2.826  17.092 -0.0579  1.0304  2.1711
 9245TIP3    H249151   3.015   2.933  17.010 -0.2481  0.8447  1.7662
 9246TIP3   OH249152   3.072   0.775   1.348  0.3628  0.2479 -0.5899
 9246TIP3    H149153   2.990   0.807   1.386 -0.5985  0.4577 -2.7390
 9246TIP3    H249154   3.136   0.783   1.420 -1.8287 -1.6967  1.7590
 9247TIP3   OH249155   3.138   0.183   5.819 -0.0391 -0.6082  0.1453
 9247TIP3    H149156   3.145   0.204   5.912 -0.6484 -0.1783  0.0981
 9247TIP3    H249157   3.093   0.098   5.817 -0.9347 -0.1561  0.2269
 9248TIP3   OH249158   0.477   6.614   0.322  0.1190  0.5101  0.4505
 9248TIP3    H149159   0.509   6.630   0.233  1.1822 -0.8715  0.5550
 9248TIP3    H249160   0.419   6.688   0.339  0.1516  0.9915 -1.2567
 9249TIP3   OH249161   3.642   1.707   0.092  0.1300 -0.1599  0.2217
 9249TIP3    H149162   3.614   1.664   0.173  0.6412 -1.0872 -0.0749
 9249TIP3    H249163   3.578   1.679   0.026  0.6698 -0.7950 -0.0518
 9250TIP3   OH249164   3.464   1.333  14.961 -0.2937  0.2592 -0.0697
 9250TIP3    H149165   3.524   1.284  15.017 -1.8908 -1.4042  0.3065
 9250TIP3    H249166   3.406   1.378  15.023 -0.8670 -0.0337 -0.3876
 9251TIP3   OH249167   6.514   0.385   5.692  0.1539  0.0299 -0.0212
 9251TIP3    H149168   6.532   0.389   5.786  0.2884 -2.0695  0.0817
 9251TIP3    H249169   6.487   0.295   5.676 -1.8654  0.8500 -1.6829
 9252TIP3   OH249170   1.620   4.308   5.257 -0.6701 -0.3058 -0.4269
 9252TIP3    H149171   1.575   4.327   5.174 -1.8637 -0.2424  0.2065
 9252TIP3    H249172   1.674   4.231   5.237 -1.3828 -0.6471 -1.1266
 9253TIP3   OH249173   5.956   1.832   0.321 -0.1383 -0.0625  0.2239
 9253TIP3    H149174   5.943   1.810   0.413  0.2450 -1.5160 -0.0552
 9253TIP3    H249175   5.934   1.753   0.273 -2.2237  1.2283 -1.1223
 9254TIP3   OH249176   6.357   3.099   0.031 -0.1556  0.0236  0.1512
 9254TIP3    H149177   6.277   3.150   0.024 -0.8446 -1.0818 -0.1679
 9254TIP3    H249178   6.328   3.011   0.055  1.0989  0.0583  2.0533
 9255TIP3   OH249179   0.944   0.191  12.692 -0.1723 -0.0025 -0.4116
 9255TIP3    H149180   0.944   0.152  12.780 -1.8551 -0.1850 -0.4454
 9255TIP3    H249181   0.976   0.280  12.705 -1.3046  0.2900  0.5708
 9256TIP3   OH249182   3.208   2.996  15.770 -0.2076 -0.6670 -0.1706
 9256TIP3    H149183   3.116   3.012  15.749 -0.3329 -1.5557 -0.3502
 9256TIP3    H249184   3.238   2.934  15.704  0.7818  0.2690 -0.6404
 9257TIP3   OH249185   4.106   5.374   4.591 -0.7147 -0.4957 -0.1883
 9257TIP3    H149186   4.014   5.384   4.616 -0.5706  0.1351  0.1165
 9257TIP3    H249187   4.103   5.329   4.507 -1.2617 -1.4692  0.3362
 9258TIP3   OH249188   4.338   6.621   5.471 -0.1598 -0.6160  0.4351
 9258TIP3    H149189   4.280   6.679   5.423 -0.0593 -0.7885  0.0979
 9258TIP3    H249190   4.286   6.590   5.546  0.6663  2.0995  2.2742
 9259TIP3   OH249191   5.949   0.590   0.452  0.5440 -0.4139  0.0007
 9259TIP3    H149192   5.911   0.653   0.391 -0.4705 -2.5576 -1.7800
 9259TIP3    H249193   5.898   0.599   0.532  0.6260  1.1754 -0.1013
 9260TIP3   OH249194   0.246   1.479  16.272 -0.2042 -0.1319  0.2532
 9260TIP3    H149195   0.258   1.526  16.189 -0.2712 -1.1085 -0.3326
 9260TIP3    H249196   0.335   1.459  16.302 -0.1879 -0.5889 -0.0786
 9261TIP3   OH249197   0.033   3.393   0.532 -0.5569  0.2543  0.1364
 9261TIP3    H149198   0.051   3.452   0.458 -0.8600 -0.1484 -0.2649
 9261TIP3    H249199   0.113   3.397   0.585 -1.1189  2.1971  0.9493
 9262TIP3   OH249200   4.870   2.268   3.959 -0.3787 -0.6711  0.2607
 9262TIP3    H149201   4.843   2.349   3.915 -0.1235 -1.3905 -1.3124
 9262TIP3    H249202   4.954   2.289   3.999 -0.0488 -0.3023 -0.6057
 9263TIP3   OH249203   4.077   4.980   5.504  0.1870  0.3784  0.0606
 9263TIP3    H149204   4.170   4.994   5.517 -0.0050  1.6549  0.2087
 9263TIP3    H249205   4.065   4.981   5.409  0.5684 -1.7304 -0.0599
 9264TIP3   OH249206   5.469   1.875  14.607 -0.0552 -0.5952 -0.3328
 9264TIP3    H149207   5.435   1.797  14.562  0.9011 -0.0973 -2.0414
 9264TIP3    H249208   5.396   1.908  14.658 -0.7014 -2.1826 -0.1735
 9265TIP3   OH249209   2.948   3.055  13.023 -0.0730  0.2788  0.3024
 9265TIP3    H149210   3.008   3.125  12.997 -1.3870  1.8487  1.3015
 9265TIP3    H249211   2.893   3.041  12.946 -0.2007  0.7852  0.2981
 9266TIP3   OH249212   2.904   5.414   1.370  0.7796 -0.5053  0.3070
 9266TIP3    H149213   2.903   5.502   1.331  0.8172 -1.2780 -1.5488
 9266TIP3    H249214   2.992   5.382   1.352 -0.0042 -1.8735 -1.4131
 9267TIP3   OH249215   3.336   4.583  10.987  0.5097  0.3660  0.0344
 9267TIP3    H149216   3.431   4.579  10.994  0.4487  1.2814  4.0785
 9267TIP3    H249217   3.304   4.519  11.051 -1.4912  2.0524  0.8597
 9268TIP3   OH249218   3.824   1.454   0.024  0.2775 -0.3147 -0.1051
 9268TIP3    H149219   3.819   1.514  -0.050 -1.0030 -1.4804 -1.0222
 9268TIP3    H249220   3.736   1.454   0.061  0.4352 -1.0883  0.2925
 9269TIP3   OH249221   4.957   1.607   4.246 -0.0316 -0.0654 -0.0277
 9269TIP3    H149222   5.013   1.649   4.311  1.3298 -0.8187 -0.6701
 9269TIP3    H249223   4.957   1.515   4.270  0.5193 -0.3609 -1.0942
 9270TIP3   OH249224   3.168   0.233   0.213  0.7148 -0.1809  0.2752
 9270TIP3    H149225   3.079   0.214   0.183  0.6114  1.9073 -0.9671
 9270TIP3    H249226   3.179   0.180   0.291 -0.7432 -2.3321 -0.8654
 9271TIP3   OH249227   3.430   1.900   3.683  0.6452 -0.3198  0.7511
 9271TIP3    H149228   3.374   1.978   3.684 -1.0110 -1.4093 -0.7968
 9271TIP3    H249229   3.499   1.920   3.620 -2.1390 -1.4758 -3.0296
 9272TIP3   OH249230   5.908   0.162  11.432  0.0406  0.7887  0.3009
 9272TIP3    H149231   5.840   0.172  11.366 -0.2716  1.2961  0.6944
 9272TIP3    H249232   5.902   0.070  11.458  1.0695  0.2231 -1.3298
 9273TIP3   OH249233   2.359   2.326   4.000 -0.6182 -0.6863  0.1594
 9273TIP3    H149234   2.375   2.250   3.945 -2.0865 -0.9615  0.0657
 9273TIP3    H249235   2.350   2.399   3.939  2.8844  0.0706  0.3269
 9274TIP3   OH249236   4.856   5.135  15.633 -0.6875 -0.8166  0.1719
 9274TIP3    H149237   4.890   5.046  15.623 -1.4631 -1.1296  0.2146
 9274TIP3    H249238   4.933   5.191  15.634 -0.2364 -1.1016 -3.6072
 9275TIP3   OH249239   4.051   3.813   0.728  0.7364 -0.2222 -0.6714
 9275TIP3    H149240   4.086   3.837   0.642  1.7691  1.0873  0.0706
 9275TIP3    H249241   4.091   3.876   0.788 -0.3919 -0.7673  0.6976
 9276TIP3   OH249242   5.764   2.067  11.978  0.4640 -0.6631 -0.3050
 9276TIP3    H149243   5.714   2.094  11.901 -0.3359 -1.8474 -0.2324
 9276TIP3    H249244   5.718   1.989  12.010 -0.3785  0.8473  2.5126
 9277TIP3   OH249245   1.934   6.087   4.156  0.8072 -0.0292  0.1376
 9277TIP3    H149246   1.964   6.086   4.065 -1.9879  0.9225 -0.9162
 9277TIP3    H249247   1.905   5.997   4.172 -2.6469  0.6033 -1.5392
 9278TIP3   OH249248   5.155   3.977   2.324  0.1120  0.1024  0.0136
 9278TIP3    H149249   5.189   4.044   2.265  3.0513 -1.1503  0.1042
 9278TIP3    H249250   5.176   3.894   2.280 -2.2589 -0.8251  0.4972
 9279TIP3   OH249251   5.471   1.520   5.617  0.3306 -0.4148 -0.1933
 9279TIP3    H149252   5.518   1.590   5.574 -1.4504  1.5133  0.8106
 9279TIP3    H249253   5.540   1.462   5.651  1.8689  1.0909 -0.6109
 9280TIP3   OH249254   4.968   0.565   1.032  0.5230 -0.4904 -0.1232
 9280TIP3    H149255   4.950   0.476   1.001  0.8735 -1.0428  1.2015
 9280TIP3    H249256   4.896   0.618   0.997 -1.3979 -1.8580  1.5032
 9281TIP3   OH249257   4.032   3.093   4.737 -0.3531 -0.0133 -0.0386
 9281TIP3    H149258   4.039   3.179   4.695  0.0190 -0.7247 -1.4943
 9281TIP3    H249259   3.943   3.064   4.717 -0.7195  0.3133  1.0523
 9282TIP3   OH249260   2.691   3.803   3.904  0.5286 -0.6179 -0.1843
 9282TIP3    H149261   2.786   3.797   3.889  0.6378  0.6245 -0.1374
 9282TIP3    H249262   2.659   3.714   3.891  1.9919 -1.5416  1.9038
 9283TIP3   OH249263   2.766   0.738   3.034  0.1170 -0.2717  0.1826
 9283TIP3    H149264   2.775   0.643   3.045  1.3546 -0.3894 -1.4761
 9283TIP3    H249265   2.833   0.775   3.092 -1.0334 -0.3386  1.5932
 9284TIP3   OH249266   3.896   4.579  16.161  0.4015  0.3902 -0.3049
 9284TIP3    H149267   3.872   4.670  16.174 -0.9147  0.0361 -0.1043
 9284TIP3    H249268   3.989   4.582  16.135  0.1530  1.8318 -1.1383
 9285TIP3   OH249269   1.111   5.270   2.458  0.4952  0.2595  0.6267
 9285TIP3    H149270   1.112   5.364   2.475  1.8519  0.2847  0.5490
 9285TIP3    H249271   1.027   5.240   2.493 -1.4124  1.9701 -2.0761
 9286TIP3   OH249272   2.127   1.059  13.108  0.3998 -0.9229  0.2840
 9286TIP3    H149273   2.117   1.141  13.059 -0.3841 -0.6661  0.8533
 9286TIP3    H249274   2.054   1.004  13.078 -0.0846 -0.7655  1.1345
 9287TIP3   OH249275   0.975   3.539  14.427 -0.8836 -0.1205 -0.4512
 9287TIP3    H149276   0.882   3.523  14.415 -0.8177  0.0784 -1.2678
 9287TIP3    H249277   0.980   3.625  14.468 -0.9951  0.8356 -2.3688
 9288TIP3   OH249278   1.192   2.170  13.560 -0.7733  0.2108 -0.2675
 9288TIP3    H149279   1.189   2.177  13.655  0.8523  1.0310 -0.2454
 9288TIP3    H249280   1.133   2.239  13.529  1.0951  2.0826  0.1586
 9289TIP3   OH249281   6.672   1.583   1.481 -0.0503 -0.5417 -0.4988
 9289TIP3    H149282   6.745   1.572   1.542  0.7631 -0.1270 -1.3753
 9289TIP3    H249283   6.651   1.676   1.485  0.5564 -0.3528 -1.4487
 9290TIP3   OH249284   6.307   2.739   3.620 -0.4791  0.0975  0.4157
 9290TIP3    H149285   6.258   2.658   3.634 -1.9957  0.4918 -2.0221
 9290TIP3    H249286   6.288   2.792   3.697 -2.1763 -0.6042  0.5174
 9291TIP3   OH249287   1.499   6.627  17.217 -0.6497  0.0144  0.2114
 9291TIP3    H149288   1.516   6.539  17.251 -1.3970  0.0625  0.7364
 9291TIP3    H249289   1.480   6.679  17.295 -1.2145  0.4098 -0.1840
 9292TIP3   OH249290   2.632   5.066  16.180  0.5241  0.4369  0.0707
 9292TIP3    H149291   2.706   5.021  16.220  0.3802  0.0733 -0.0688
 9292TIP3    H249292   2.672   5.136  16.128  0.8330 -0.3023 -0.7082
 9293TIP3   OH249293   1.786   4.101  15.394  0.1019 -0.0427 -0.5491
 9293TIP3    H149294   1.808   4.012  15.367 -2.1970 -0.2034 -2.1690
 9293TIP3    H249295   1.833   4.158  15.333  1.1813 -0.1177  0.1812
 9294TIP3   OH249296   5.802   0.198   3.012 -0.2033  0.7399  0.2286
 9294TIP3    H149297   5.784   0.237   3.098 -2.8927  0.2217 -0.0189
 9294TIP3    H249298   5.716   0.182   2.974  0.8850 -1.0324 -1.6977
 9295TIP3   OH249299   4.600   4.484  13.765  0.1660 -0.0307  0.2183
 9295TIP3    H149300   4.643   4.407  13.803  0.3462  0.0692  0.2180
 9295TIP3    H249301   4.646   4.559  13.803  2.0107  0.0948 -2.0352
 9296TIP3   OH249302   6.419   2.196  16.880  0.3428  0.5327  0.3288
 9296TIP3    H149303   6.398   2.289  16.893  0.8965  0.7514 -0.3282
 9296TIP3    H249304   6.333   2.154  16.873  0.0969  1.1538 -0.4787
 9297TIP3   OH249305   5.666   6.643   1.068 -0.5631  0.0206 -0.2954
 9297TIP3    H149306   5.616   6.624   1.148  1.5926  0.3272  1.2188
 9297TIP3    H249307   5.600   6.650   0.999 -2.5852  0.5804  1.6005
 9298TIP3   OH249308   5.533   5.676   5.929 -0.5532  0.2089  0.4251
 9298TIP3    H149309   5.465   5.611   5.917 -0.1734  0.0556 -1.0932
 9298TIP3    H249310   5.546   5.714   5.842  0.1981  1.3388  0.9989
 9299TIP3   OH249311   5.117   1.774   1.956  0.1034 -0.3956 -0.4956
 9299TIP3    H149312   5.199   1.817   1.931  0.7432 -0.5482  1.2229
 9299TIP3    H249313   5.049   1.832   1.922  0.9384  1.4192  0.7301
 9300TIP3   OH249314   2.763   0.019   6.505 -0.0486  0.4703 -0.6890
 9300TIP3    H149315   2.752   0.103   6.460 -0.7038  0.7695  0.0085
 9300TIP3    H249316   2.708   0.026   6.583 -0.4764 -0.7775 -0.8493
 9301TIP3   OH249317   5.138   1.551   0.815 -0.2015 -0.2468  0.1568
 9301TIP3    H149318   5.140   1.458   0.838 -1.6534 -0.3217  0.0705
 9301TIP3    H249319   5.228   1.580   0.828 -0.1145 -1.2037  2.1156
 9302TIP3   OH249320   6.238   5.609   0.868 -0.6954  0.8844  0.2511
 9302TIP3    H149321   6.251   5.677   0.802  1.3327 -0.1840 -0.5309
 9302TIP3    H249322   6.163   5.558   0.836  0.4909  0.1556 -1.4714
 9303TIP3   OH249323   4.691   3.853  14.362 -0.0020  0.1609  0.4068
 9303TIP3    H149324   4.776   3.812  14.378 -0.5765 -1.2233  0.0599
 9303TIP3    H249325   4.636   3.782  14.331 -0.9722  1.2848 -0.5132
 9304TIP3   OH249326   1.514   3.871  13.120  0.2315  0.1499  0.5128
 9304TIP3    H149327   1.483   3.916  13.042  1.9937  0.5336 -0.0062
 9304TIP3    H249328   1.523   3.779  13.093 -1.1895 -0.1360  0.9170
 9305TIP3   OH249329   1.226   0.117   3.835  0.3032 -0.4012 -0.1094
 9305TIP3    H149330   1.272   0.162   3.906  0.3857  1.8299 -1.4824
 9305TIP3    H249331   1.293   0.065   3.791  0.9525  0.7163 -0.4671
 9306TIP3   OH249332   5.091   1.561   5.622  0.5488  0.2630 -0.0874
 9306TIP3    H149333   5.066   1.529   5.535 -1.9789  1.3684  0.1302
 9306TIP3    H249334   5.045   1.502   5.683  0.2970  0.9730  0.4203
 9307TIP3   OH249335   1.639   5.869  13.550 -0.2293 -0.0528  0.4959
 9307TIP3    H149336   1.575   5.813  13.594  0.6227 -0.7464  0.8850
 9307TIP3    H249337   1.587   5.933  13.502 -1.2517 -1.6723 -0.6363
 9308TIP3   OH249338   1.252   4.468  16.131  0.0210 -0.1181 -0.1849
 9308TIP3    H149339   1.212   4.422  16.205  1.4412 -0.8395  0.1640
 9308TIP3    H249340   1.259   4.559  16.160  0.2655 -0.3309  0.4550
 9309TIP3   OH249341   3.017   5.347   4.210  0.3433 -0.2454 -0.3913
 9309TIP3    H149342   2.964   5.347   4.130 -0.3360 -0.4371  0.0468
 9309TIP3    H249343   3.106   5.329   4.181  0.2739  0.7079 -1.2126
 9310TIP3   OH249344   5.010   0.171   1.358 -0.6605 -0.4549 -0.2357
 9310TIP3    H149345   4.951   0.226   1.410 -0.5608  0.1326 -0.7322
 9310TIP3    H249346   5.091   0.169   1.408  0.3203  2.2347 -1.5305
 9311TIP3   OH249347   1.814   4.267  10.624  0.6013 -0.3013 -0.5798
 9311TIP3    H149348   1.902   4.292  10.653  0.2828  0.8959 -0.6054
 9311TIP3    H249349   1.756   4.333  10.662 -0.3600 -1.3649 -0.1414
 9312TIP3   OH249350   5.273   6.219   0.739 -0.0419 -0.2257 -0.2241
 9312TIP3    H149351   5.313   6.301   0.767 -0.5496  0.0937 -0.4152
 9312TIP3    H249352   5.244   6.177   0.820  0.6274 -0.4390 -0.0891
 9313TIP3   OH249353   1.799   1.357   4.920  0.4752 -0.0884 -1.1334
 9313TIP3    H149354   1.857   1.342   4.846 -1.4589  0.0644 -2.7667
 9313TIP3    H249355   1.711   1.354   4.882 -0.5240  1.5318  0.8905
 9314TIP3   OH249356   5.264   0.487   1.047  0.6220  0.0474  0.0594
 9314TIP3    H149357   5.261   0.455   1.137  2.4310  1.2464  0.5925
 9314TIP3    H249358   5.172   0.490   1.020 -0.1660  1.6980  2.6000
 9315TIP3   OH249359   3.223   1.632  14.466 -0.7681  0.1249 -0.0604
 9315TIP3    H149360   3.261   1.637  14.554 -2.4156  1.5216  0.6280
 9315TIP3    H249361   3.138   1.590  14.479 -0.2905 -1.3051 -1.2941
 9316TIP3   OH249362   4.380   2.992  16.892  0.1087  0.2190  0.1587
 9316TIP3    H149363   4.426   3.019  16.972  1.0287 -0.0449 -0.2702
 9316TIP3    H249364   4.337   3.071  16.861 -0.3505  0.2957  0.9756
 9317TIP3   OH249365   5.112   0.233  12.859  0.0939  0.3364 -0.4774
 9317TIP3    H149366   5.205   0.220  12.876  0.2162  0.6379 -0.8898
 9317TIP3    H249367   5.079   0.146  12.838  0.1076  0.0947  0.4538
 9318TIP3   OH249368   1.185   4.110  13.025 -0.7253  0.2418  0.3530
 9318TIP3    H149369   1.099   4.129  12.988  0.1924  0.0573 -2.0296
 9318TIP3    H249370   1.208   4.189  13.073 -0.8508  1.6191 -1.7588
 9319TIP3   OH249371   5.540   5.460  12.227  0.3497 -0.1642 -0.0027
 9319TIP3    H149372   5.577   5.535  12.275 -2.0723  1.0693  0.1175
 9319TIP3    H249373   5.555   5.480  12.135 -0.2265  0.5015  0.0316
 9320TIP3   OH249374   4.007   4.737  12.751  0.2207 -0.4006  0.3452
 9320TIP3    H149375   3.974   4.825  12.735  0.9185  0.2385  2.1310
 9320TIP3    H249376   4.040   4.707  12.666 -1.2767  0.4791 -0.5937
 9321TIP3   OH249377   1.439   4.646  14.786 -0.0247  0.1097  0.2130
 9321TIP3    H149378   1.410   4.683  14.869  0.8208  0.6022  0.2976
 9321TIP3    H249379   1.380   4.572  14.771  0.0824 -0.2553  1.4669
 9322TIP3   OH249380   2.482   2.597   4.144  0.9073  0.2420 -0.1073
 9322TIP3    H149381   2.395   2.571   4.175  1.8774 -2.6119  0.5764
 9322TIP3    H249382   2.513   2.659   4.210 -0.6222  1.4629 -0.4660
 9323TIP3   OH249383   0.361   6.339   3.957 -0.2365 -0.1485  0.1567
 9323TIP3    H149384   0.361   6.433   3.939 -0.6841 -0.3262 -0.8743
 9323TIP3    H249385   0.434   6.305   3.907  0.5012 -0.2392  1.2642
 9324TIP3   OH249386   1.888   3.732   2.510 -0.5642 -0.3289 -0.4775
 9324TIP3    H149387   1.841   3.795   2.455 -2.3010  0.0175  1.2706
 9324TIP3    H249388   1.973   3.722   2.468 -1.6354  0.1899 -2.9775
 9325TIP3   OH249389   2.296   0.444  11.438 -0.8241 -0.2576 -0.2791
 9325TIP3    H149390   2.268   0.527  11.477  0.1266 -0.1368  0.1743
 9325TIP3    H249391   2.340   0.470  11.356 -1.7256 -0.4247 -0.8348
 9326TIP3   OH249392   5.704   3.218  12.446 -0.1021 -0.3809 -0.5807
 9326TIP3    H149393   5.701   3.292  12.385  0.0117  0.3698  0.2972
 9326TIP3    H249394   5.631   3.162  12.419 -0.2827  0.1287 -1.1746
 9327TIP3   OH249395   5.076   1.292   5.894 -0.6401  0.2935 -0.4227
 9327TIP3    H149396   5.120   1.224   5.844 -0.4180 -0.3252  0.5781
 9327TIP3    H249397   5.144   1.356   5.915 -0.1887 -0.6002  1.0176
 9328TIP3   OH249398   2.518   0.808   1.413  0.1391 -0.0857  0.8273
 9328TIP3    H149399   2.521   0.891   1.364 -0.6675 -0.1550  0.6417
 9328TIP3    H249400   2.506   0.835   1.504 -3.4159  0.0142  0.4573
 9329TIP3   OH249401   1.339   0.117   2.666  0.0986 -0.3603 -0.1474
 9329TIP3    H149402   1.296   0.164   2.595 -0.1145 -1.2400 -0.6051
 9329TIP3    H249403   1.415   0.076   2.625  0.0747 -0.7238  0.1720
 9330TIP3   OH249404   2.620   3.372  12.726  0.3087  0.5675  0.6777
 9330TIP3    H149405   2.539   3.420  12.712  1.0727  1.8164  0.3270
 9330TIP3    H249406   2.677   3.400  12.655  0.9510 -0.5144  0.7424
 9331TIP3   OH249407   6.666   1.427  16.969  0.3746  0.1201  0.2223
 9331TIP3    H149408   6.691   1.494  17.033  1.1224 -0.0899  0.1573
 9331TIP3    H249409   6.668   1.473  16.885 -1.3337  0.5908  0.3975
 9332TIP3   OH249410   1.857   1.317  17.093 -0.2919  0.8935 -0.3556
 9332TIP3    H149411   1.880   1.322  17.186 -0.4489  1.5580 -0.3473
 9332TIP3    H249412   1.932   1.273  17.052 -0.8796 -0.8093  0.3005
 9333TIP3   OH249413   6.231   6.474   5.240 -0.0489 -0.4896 -0.2861
 9333TIP3    H149414   6.153   6.507   5.195  0.3319 -0.7629 -1.1737
 9333TIP3    H249415   6.274   6.417   5.176  1.1763  0.0962 -0.0305
 9334TIP3   OH249416   1.296   2.397  13.873 -0.6330  0.3002 -0.0088
 9334TIP3    H149417   1.310   2.453  13.798  0.5951  0.8237  0.5878
 9334TIP3    H249418   1.376   2.406  13.926 -0.6946 -1.4553  0.4521
 9335TIP3   OH249419   2.808   5.238  11.065  0.1874 -0.7960  0.4493
 9335TIP3    H149420   2.746   5.278  11.003  0.7060  1.9794  1.5801
 9335TIP3    H249421   2.787   5.279  11.149  2.3724 -1.1466  1.2101
 9336TIP3   OH249422   0.652   3.418   4.811  0.1277 -0.8168 -0.1752
 9336TIP3    H149423   0.562   3.438   4.833 -1.0025 -3.1463 -2.1871
 9336TIP3    H249424   0.675   3.344   4.868  0.4961 -0.7525 -0.2324
 9337TIP3   OH249425   2.806   2.249   6.644 -0.7326  0.0252 -0.3872
 9337TIP3    H149426   2.860   2.306   6.588 -1.4750  0.3369 -0.7918
 9337TIP3    H249427   2.856   2.167   6.649 -0.3553  0.2101 -0.9885
 9338TIP3   OH249428   2.272   3.216   1.526  0.8251 -0.5105 -0.2916
 9338TIP3    H149429   2.343   3.280   1.520  1.0907 -0.8279 -0.5460
 9338TIP3    H249430   2.277   3.167   1.444  0.7313 -0.9696 -0.0223
 9339TIP3   OH249431   5.567   0.123  15.969  0.1301 -0.2039  0.2817
 9339TIP3    H149432   5.634   0.101  15.904 -0.1465 -0.6572  0.1495
 9339TIP3    H249433   5.556   0.043  16.020  0.5589  0.2415  1.0830
 9340TIP3   OH249434   2.319   5.030   5.635 -0.4277  0.5262 -0.2370
 9340TIP3    H149435   2.292   4.938   5.624  0.0441  0.3004  0.4396
 9340TIP3    H249436   2.253   5.080   5.586 -0.1297 -0.2256 -1.4576
 9341TIP3   OH249437   2.065   4.885   0.846  0.9684  0.3235 -0.3607
 9341TIP3    H149438   2.055   4.805   0.899  0.4535 -0.6057 -1.7850
 9341TIP3    H249439   2.042   4.857   0.758 -0.1512  2.3029 -0.7396
 9342TIP3   OH249440   5.395   1.351   4.519 -0.1602  0.0027  0.0910
 9342TIP3    H149441   5.312   1.390   4.547  0.3583  0.9762  0.3417
 9342TIP3    H249442   5.371   1.267   4.481 -1.2097  0.0548  0.6015
 9343TIP3   OH249443   0.077   5.905   2.842  0.7578 -0.3294  0.0765
 9343TIP3    H149444   0.140   5.872   2.778 -1.1825 -1.0410 -1.5459
 9343TIP3    H249445   0.046   5.988   2.806  0.6706 -0.0303  0.8093
 9344TIP3   OH249446   1.336   3.276   4.643 -0.7086 -0.2825  0.3454
 9344TIP3    H149447   1.269   3.213   4.668 -1.3321 -0.1598 -0.9369
 9344TIP3    H249448   1.292   3.335   4.582  0.4542  0.0668 -0.1904
 9345TIP3   OH249449   1.725   4.809  13.548  0.4512 -0.0835  0.9002
 9345TIP3    H149450   1.749   4.782  13.459  1.1636 -0.9682  1.3439
 9345TIP3    H249451   1.722   4.905  13.543  0.7247 -0.1069 -0.0225
 9346TIP3   OH249452   3.126   2.694  13.984 -0.2453 -0.0600 -1.3399
 9346TIP3    H149453   3.107   2.622  14.044  0.4737  1.7703  1.2641
 9346TIP3    H249454   3.045   2.746  13.983  0.1593  0.6049 -0.8609
 9347TIP3   OH249455   4.532   2.869  12.886  0.0969 -0.2694 -0.1224
 9347TIP3    H149456   4.457   2.813  12.867 -0.2490 -0.0420  0.5524
 9347TIP3    H249457   4.608   2.819  12.855 -0.4648  0.4522 -2.9723
 9348TIP3   OH249458   2.096   5.368  11.196 -0.2902 -0.5092  0.1372
 9348TIP3    H149459   2.055   5.436  11.250 -2.8047 -1.4911 -0.3864
 9348TIP3    H249460   2.038   5.293  11.205  0.7601 -1.6175 -1.7083
 9349TIP3   OH249461   2.540   3.810  16.254  0.0851  0.0882 -0.5405
 9349TIP3    H149462   2.571   3.729  16.295  1.5681  0.8223 -0.1269
 9349TIP3    H249463   2.617   3.868  16.254 -0.9829  1.5709 -0.6254
 9350TIP3   OH249464   2.864   6.555  15.533 -0.2981 -0.1701 -0.2206
 9350TIP3    H149465   2.840   6.516  15.617  1.0504  0.8620  0.6873
 9350TIP3    H249466   2.835   6.646  15.540  3.5638  1.1614  0.9480
 9351TIP3   OH249467   4.652   4.804   2.859 -0.5153  0.2449  0.4869
 9351TIP3    H149468   4.704   4.742   2.808  0.4710  1.3024  0.1469
 9351TIP3    H249469   4.664   4.778   2.950  2.1474  1.5148  0.5864
 9352TIP3   OH249470   4.773   1.124   5.985 -1.0204  0.4295 -0.2093
 9352TIP3    H149471   4.692   1.077   6.005  0.1921 -1.3130  0.8572
 9352TIP3    H249472   4.800   1.089   5.900 -0.8047  0.1437 -0.0268
 9353TIP3   OH249473   5.443   6.030   5.354 -0.3014  0.0918  0.5576
 9353TIP3    H149474   5.406   6.076   5.430 -2.3336  1.6703 -1.2645
 9353TIP3    H249475   5.533   6.063   5.349 -0.2424  0.2263  2.0712
 9354TIP3   OH249476   0.704   3.062  15.901 -1.0770  0.2309  0.3059
 9354TIP3    H149477   0.689   3.125  15.971  0.6517  1.3420 -0.2601
 9354TIP3    H249478   0.790   3.086  15.865 -1.1294 -1.4108 -1.0291
 9355TIP3   OH249479   4.322   1.911  16.130 -0.2456 -0.5041  0.2563
 9355TIP3    H149480   4.312   1.921  16.035 -1.7578 -0.3556  0.4025
 9355TIP3    H249481   4.409   1.874  16.141  0.3604  0.4116 -1.1259
 9356TIP3   OH249482   6.678   1.517  14.674 -0.4349 -0.6015 -0.0581
 9356TIP3    H149483   6.688   1.484  14.763 -0.5738 -1.0508 -0.2065
 9356TIP3    H249484   6.753   1.482  14.627  0.7548  1.2424  0.3273
 9357TIP3   OH249485   0.060   0.439   4.056 -0.0452 -0.1764 -0.1250
 9357TIP3    H149486   0.123   0.378   4.017 -0.6137 -0.0924 -1.2066
 9357TIP3    H249487  -0.025   0.413   4.019 -0.7377 -0.5588  1.6222
 9358TIP3   OH249488   2.954   1.050   0.961 -0.1853 -0.5377 -0.0947
 9358TIP3    H149489   2.919   1.031   1.048  2.9369 -0.4598  1.3032
 9358TIP3    H249490   2.948   0.967   0.914  1.5284 -1.6955  1.5593
 9359TIP3   OH249491   3.178   5.740  14.165 -0.1303  0.0631 -0.0255
 9359TIP3    H149492   3.084   5.740  14.183 -0.3519  0.7944 -1.1200
 9359TIP3    H249493   3.212   5.670  14.221 -1.6663 -1.7872 -1.2562
 9360TIP3   OH249494   1.361   2.275   0.177 -0.6472  0.4279 -0.0550
 9360TIP3    H149495   1.424   2.205   0.193 -2.3106 -0.8562  1.0240
 9360TIP3    H249496   1.366   2.289   0.082  1.5100  0.6536  0.0287
 9361TIP3   OH249497   6.436   5.403   4.438  0.4982 -0.5981 -0.6403
 9361TIP3    H149498   6.483   5.373   4.516  0.3796  0.8312  0.0203
 9361TIP3    H249499   6.469   5.492   4.423 -0.8393 -0.1594 -1.1155
 9362TIP3   OH249500   0.640   5.876  12.136  0.0672  0.2455  0.2975
 9362TIP3    H149501   0.548   5.853  12.122  0.1706  0.8372 -1.6757
 9362TIP3    H249502   0.652   5.871  12.231 -1.3905 -2.0812  0.4317
 9363TIP3   OH249503   3.523   6.205  16.805  0.9991  0.0835 -0.1595
 9363TIP3    H149504   3.464   6.182  16.734  0.1421  2.4172 -0.2664
 9363TIP3    H249505   3.495   6.148  16.878 -1.2698  0.9473 -0.2727
 9364TIP3   OH249506   6.424   5.124  14.361 -0.0077 -0.1867 -0.6358
 9364TIP3    H149507   6.457   5.127  14.451 -0.4790  0.6425 -0.4812
 9364TIP3    H249508   6.331   5.102  14.370 -0.4290  1.3554 -0.7960
 9365TIP3   OH249509   6.074   5.548  12.273  0.0611  0.0500  0.3048
 9365TIP3    H149510   6.107   5.631  12.308 -1.0610 -0.1889  2.0708
 9365TIP3    H249511   6.133   5.482  12.309  0.2803 -0.0063 -0.1618
 9366TIP3   OH249512   0.941   5.934   0.465 -0.1486 -0.3317  0.5734
 9366TIP3    H149513   0.859   5.984   0.465  0.3730  0.5508  0.9774
 9366TIP3    H249514   1.003   5.991   0.419 -0.2602 -1.8808 -1.6065
 9367TIP3   OH249515   2.940   3.420  12.228  0.6222 -0.2026 -0.4201
 9367TIP3    H149516   2.845   3.408  12.238  0.6581 -1.5487 -1.3660
 9367TIP3    H249517   2.954   3.421  12.133  1.7025 -1.5291 -0.3088
 9368TIP3   OH249518   5.818   5.022   2.411  0.1262  0.5637 -0.6585
 9368TIP3    H149519   5.845   4.952   2.352  1.0256 -0.1740  0.5956
 9368TIP3    H249520   5.743   5.063   2.366  0.5443 -0.1966 -2.1215
 9369TIP3   OH249521   0.088   4.996  14.329 -0.0029 -0.0071 -0.0376
 9369TIP3    H149522   0.100   4.999  14.234  1.1330  0.6895  0.1087
 9369TIP3    H249523   0.078   5.087  14.355  1.2862 -0.0407  0.6756
 9370TIP3   OH249524   0.550   2.857   3.563  0.0139  0.4617 -0.9124
 9370TIP3    H149525   0.609   2.836   3.635 -2.0286 -0.2851  0.6580
 9370TIP3    H249526   0.584   2.938   3.527  2.1019 -0.0576 -0.2693
 9371TIP3   OH249527   3.601   4.402   0.816 -0.0734 -0.2021  0.0166
 9371TIP3    H149528   3.533   4.376   0.879  0.1263 -0.7644  0.0031
 9371TIP3    H249529   3.612   4.496   0.831  2.1984 -0.8034  3.0700
 9372TIP3   OH249530   5.058   3.511   4.573 -0.1497  0.4289 -0.4659
 9372TIP3    H149531   4.987   3.468   4.525  0.2026 -1.0674  0.3004
 9372TIP3    H249532   5.112   3.439   4.606  0.9683  1.4975  0.1196
 9373TIP3   OH249533   6.387   6.110   0.996  0.4844  0.0106  0.2691
 9373TIP3    H149534   6.415   6.121   1.087  0.3942  0.8189  0.2057
 9373TIP3    H249535   6.469   6.112   0.946  0.5545 -0.6566  0.3403
 9374TIP3   OH249536   6.691   0.041  11.180 -0.1923 -0.0860 -0.4769
 9374TIP3    H149537   6.616   0.085  11.140 -1.3748 -1.2316  0.3791
 9374TIP3    H249538   6.663  -0.051  11.189 -0.0670  0.0625  2.8996
 9375TIP3   OH249539   0.708   2.627   4.863 -0.0084 -0.0472  0.0242
 9375TIP3    H149540   0.723   2.561   4.930 -0.3836  0.7940  0.9675
 9375TIP3    H249541   0.637   2.591   4.809  0.6942 -0.9891 -0.3073
 9376TIP3   OH249542   0.901   5.290   4.926  0.1896  0.5627 -0.6275
 9376TIP3    H149543   0.949   5.301   5.008  1.2658 -0.1090 -1.1492
 9376TIP3    H249544   0.927   5.366   4.873 -1.5448  1.7343  0.1098
 9377TIP3   OH249545   1.774   2.816   2.136  0.2658  0.5648 -0.3139
 9377TIP3    H149546   1.756   2.748   2.071  1.5274  0.8504 -1.0031
 9377TIP3    H249547   1.760   2.773   2.220 -1.0532  0.0858 -0.7595
 9378TIP3   OH249548   6.434   5.728   2.833  0.2891 -0.2154 -0.0770
 9378TIP3    H149549   6.416   5.684   2.916  1.0062 -1.9966 -0.8278
 9378TIP3    H249550   6.497   5.797   2.856 -1.5123  1.1118  1.2578
 9379TIP3   OH249551   2.800   2.673   2.560  0.5897  0.1904 -0.1428
 9379TIP3    H149552   2.812   2.708   2.471  0.8096 -0.3747 -0.3404
 9379TIP3    H249553   2.714   2.706   2.587  1.1218  1.5372 -0.0036
 9380TIP3   OH249554   6.668   2.803   4.495 -0.0121  0.5381  0.3230
 9380TIP3    H149555   6.672   2.847   4.580 -1.5514 -1.2031  1.3819
 9380TIP3    H249556   6.667   2.874   4.432 -0.6383  1.9706  1.8556
 9381TIP3   OH249557   4.635   0.861  11.355 -0.0054 -0.6115 -0.0885
 9381TIP3    H149558   4.593   0.909  11.284 -0.4171 -1.8530 -0.7277
 9381TIP3    H249559   4.706   0.917  11.384 -2.6243  2.0860  1.7297
 9382TIP3   OH249560   2.204   1.891   1.055  0.1647  0.0098  0.3824
 9382TIP3    H149561   2.248   1.850   0.981 -0.5181  0.3496 -0.2239
 9382TIP3    H249562   2.253   1.861   1.132  1.8011  0.8037 -0.2946
 9383TIP3   OH249563   4.716   1.189   5.483 -0.4745  0.4325 -0.2385
 9383TIP3    H149564   4.658   1.190   5.406  0.9396  0.7332 -1.3371
 9383TIP3    H249565   4.804   1.182   5.447  0.1796 -0.5099  1.4177
 9384TIP3   OH249566   3.514   3.781  13.805 -0.1363 -0.5463  0.6609
 9384TIP3    H149567   3.566   3.825  13.872  0.9346 -1.1478  0.2555
 9384TIP3    H249568   3.423   3.807  13.823  0.3724  1.2324  0.8641
 9385TIP3   OH249569   0.289   4.457  15.508  0.4799 -0.3312 -0.6499
 9385TIP3    H149570   0.300   4.410  15.425  0.9941 -0.3341 -0.5875
 9385TIP3    H249571   0.217   4.412  15.552 -0.6811  0.4942 -1.6557
 9386TIP3   OH249572   3.756   6.164  12.081 -0.2204  0.2550 -0.2439
 9386TIP3    H149573   3.813   6.113  12.139  1.1256  0.9226 -0.9366
 9386TIP3    H249574   3.725   6.100  12.016  1.0763  0.1903 -0.8260
 9387TIP3   OH249575   1.996   0.220  14.487 -0.4659 -0.2632 -0.3637
 9387TIP3    H149576   1.914   0.257  14.452 -1.6698  0.2112  2.6281
 9387TIP3    H249577   1.967   0.160  14.556  1.7042 -0.3605  0.5239
 9388TIP3   OH249578   2.842   4.584   0.891  0.1683  0.4950  0.1629
 9388TIP3    H149579   2.928   4.543   0.884 -1.7342 -3.8619 -2.1516
 9388TIP3    H249580   2.808   4.584   0.802 -3.3873 -1.1801  1.3251
 9389TIP3   OH249581   6.613   5.716  11.454 -0.7469 -0.2303 -0.3240
 9389TIP3    H149582   6.687   5.671  11.497 -0.8382 -0.4631 -0.4082
 9389TIP3    H249583   6.536   5.687  11.504 -0.7925 -0.0677 -0.3013
 9390TIP3   OH249584   3.669   6.141   3.243 -0.5394 -0.6491  0.2967
 9390TIP3    H149585   3.658   6.098   3.328  0.8842 -0.8085  0.4172
 9390TIP3    H249586   3.645   6.075   3.179  1.4529 -1.6332  0.4870
 9391TIP3   OH249587   1.125   3.110  15.458  0.0423  0.1201 -0.0363
 9391TIP3    H149588   1.060   3.152  15.402 -0.6177 -0.3397  0.3672
 9391TIP3    H249589   1.076   3.044  15.507  0.8917 -0.5221 -0.0196
 9392TIP3   OH249590   2.667   1.050   5.089 -0.1974 -0.1679 -0.6773
 9392TIP3    H149591   2.749   1.030   5.134 -0.0454 -1.2063 -1.3976
 9392TIP3    H249592   2.685   1.131   5.041 -0.9179  2.0937  2.4892
 9393TIP3   OH249593   4.005   2.461   4.945  0.3452 -0.1056 -0.0637
 9393TIP3    H149594   4.063   2.472   4.870  0.5150  1.6990  0.2872
 9393TIP3    H249595   3.932   2.409   4.912  0.4674  0.5690 -1.4641
 9394TIP3   OH249596   3.470   4.028   4.587  0.1793 -0.4326 -0.4062
 9394TIP3    H149597   3.420   3.977   4.524 -1.2691  2.7920 -2.1309
 9394TIP3    H249598   3.404   4.061   4.649  0.6459  1.1732 -0.7228
 9395TIP3   OH249599   5.562   4.461   4.646  0.4606  0.0205  0.0101
 9395TIP3    H149600   5.567   4.539   4.591  0.7118 -0.4375 -0.6334
 9395TIP3    H249601   5.628   4.475   4.714  3.0931 -1.1298 -2.0949
 9396TIP3   OH249602   5.561   1.602  16.795 -0.6260 -0.5001 -0.1740
 9396TIP3    H149603   5.639   1.634  16.839 -1.6883  0.6874  0.9063
 9396TIP3    H249604   5.510   1.559  16.864 -0.4492 -2.2993 -1.0856
 9397TIP3   OH249605   5.177   5.688   4.836  0.1499  0.4251 -0.2808
 9397TIP3    H149606   5.247   5.627   4.858 -0.2997 -0.0822 -0.2487
 9397TIP3    H249607   5.200   5.769   4.883  0.7091  0.2605 -0.2715
 9398TIP3   OH249608   2.777   5.856   0.712  0.5809 -0.1870  0.2894
 9398TIP3    H149609   2.767   5.942   0.671  0.4887  0.5278  1.7483
 9398TIP3    H249610   2.690   5.835   0.744  0.1319 -1.7901 -1.8046
 9399TIP3   OH249611   6.586   3.556   3.767 -0.3817 -0.4690  0.0681
 9399TIP3    H149612   6.635   3.555   3.685 -1.5482 -2.1264 -0.6601
 9399TIP3    H249613   6.494   3.548   3.741 -0.8232 -0.4653  1.5198
 9400TIP3   OH249614   2.796   0.746  11.444  0.2532  0.0026 -0.3780
 9400TIP3    H149615   2.780   0.840  11.454  0.0629 -0.0760  0.0604
 9400TIP3    H249616   2.807   0.714  11.533  0.9734 -0.2784 -0.5669
 9401TIP3   OH249617   0.766   2.523  12.553 -0.4225 -0.1541  0.0240
 9401TIP3    H149618   0.682   2.519  12.600 -0.8358  0.4073 -0.6318
 9401TIP3    H249619   0.773   2.439  12.508 -1.1626  0.1814 -0.7578
 9402TIP3   OH249620   6.537   5.526  17.137  0.3711  0.3793  0.3345
 9402TIP3    H149621   6.491   5.600  17.097  1.2053  0.4536 -0.5123
 9402TIP3    H249622   6.471   5.456  17.137 -0.2700  0.9649  0.6973
 9403TIP3   OH249623   5.001   4.525   5.782 -0.2159  0.0331 -0.5888
 9403TIP3    H149624   5.072   4.589   5.781 -1.0729  1.1339  1.6039
 9403TIP3    H249625   4.940   4.555   5.715 -0.7900  1.8382  0.6573
 9404TIP3   OH249626   5.546   6.655  13.589 -0.5630  0.2931  0.6444
 9404TIP3    H149627   5.500   6.738  13.572  0.1886  0.3423 -1.4389
 9404TIP3    H249628   5.498   6.590  13.538  0.7623  0.0669 -0.3453
 9405TIP3   OH249629   2.412   3.760  11.203 -0.2990  0.0286 -0.3266
 9405TIP3    H149630   2.318   3.779  11.195 -0.5232 -1.4234 -1.7635
 9405TIP3    H249631   2.446   3.772  11.114  0.6918 -0.3776 -0.0081
 9406TIP3   OH249632   4.159   2.547   3.899  0.2415 -0.0676 -0.8198
 9406TIP3    H149633   4.083   2.605   3.903 -0.2661 -0.7204 -0.7872
 9406TIP3    H249634   4.228   2.600   3.858  0.1082  0.8970  0.1385
 9407TIP3   OH249635   1.176   0.940   3.267 -0.0623 -0.0529  0.3348
 9407TIP3    H149636   1.151   0.984   3.348 -0.6640 -0.8618  0.6014
 9407TIP3    H249637   1.151   1.001   3.197  0.6793  0.7523  0.7597
 9408TIP3   OH249638   5.194   1.977  14.443  0.0892 -0.1046 -0.5665
 9408TIP3    H149639   5.130   2.015  14.383  0.8331  0.6002 -0.9384
 9408TIP3    H249640   5.167   2.008  14.529  0.0699  0.4070 -0.7505
 9409TIP3   OH249641   0.780   2.994   3.882  0.4961  0.2826  0.0303
 9409TIP3    H149642   0.837   3.060   3.843 -0.2324 -0.2195 -1.9671
 9409TIP3    H249643   0.755   3.032   3.967 -0.1978  2.7570 -1.1883
 9410TIP3   OH249644   4.854   2.548   3.846 -0.1842  0.6914  0.6416
 9410TIP3    H149645   4.799   2.590   3.780 -1.3308  0.4527  1.4203
 9410TIP3    H249646   4.853   2.609   3.920  1.8758  1.4220  0.1390
 9411TIP3   OH249647   0.504   5.704  15.328 -0.3165 -0.2068  0.3729
 9411TIP3    H149648   0.546   5.652  15.396  2.7154  1.1886 -0.2394
 9411TIP3    H249649   0.505   5.647  15.251 -2.2459 -1.1829  1.0004
 9412TIP3   OH249650   3.393   4.681   0.565 -0.0574  0.1481  0.0860
 9412TIP3    H149651   3.466   4.714   0.513 -0.3681  0.2293 -0.3036
 9412TIP3    H249652   3.418   4.591   0.586  0.2732  0.2612  0.1791
 9413TIP3   OH249653   2.253   6.029   5.812  0.1763 -0.0130 -0.6904
 9413TIP3    H149654   2.170   6.044   5.766 -1.6927 -1.5551  1.8886
 9413TIP3    H249655   2.303   5.973   5.752 -1.3989 -0.4956 -1.6269
 9414TIP3   OH249656   1.063   1.356  14.865  0.4718 -0.2123 -0.1146
 9414TIP3    H149657   1.003   1.406  14.920 -0.3040 -0.9521 -0.2650
 9414TIP3    H249658   1.109   1.422  14.813  0.5483  0.4315  0.7445
 9415TIP3   OH249659   5.930   1.068  15.191 -0.0983  0.2746 -0.4037
 9415TIP3    H149660   5.955   1.098  15.104 -1.0122  1.0805 -0.4031
 9415TIP3    H249661   6.006   1.087  15.246  0.9205 -1.2611 -1.2116
 9416TIP3   OH249662   1.635   1.108  15.558  0.5076  0.3334  0.3503
 9416TIP3    H149663   1.641   1.188  15.505  1.9497 -0.4736 -0.7548
 9416TIP3    H249664   1.677   1.132  15.641  1.5644  0.5451 -0.2244
 9417TIP3   OH249665   3.878   2.577   0.179  0.1006  0.7586  0.1164
 9417TIP3    H149666   3.969   2.569   0.150  0.3591 -0.1395  1.1027
 9417TIP3    H249667   3.872   2.518   0.254 -1.3887  0.5431 -0.1421
 9418TIP3   OH249668   0.974   0.994   1.015  0.1648  0.3238  0.2412
 9418TIP3    H149669   1.014   0.983   1.102 -0.2321 -0.1764  0.3664
 9418TIP3    H249670   0.954   0.904   0.987 -0.3097  0.5297 -0.0848
 9419TIP3   OH249671   3.401   4.242  11.141  0.3938  0.2612 -0.5996
 9419TIP3    H149672   3.342   4.313  11.166  0.8925 -0.0502  1.6301
 9419TIP3    H249673   3.480   4.257  11.192  0.9639 -1.2269 -0.9820
 9420TIP3   OH249674   6.357   6.054  13.392 -0.1090  0.4142  0.1785
 9420TIP3    H149675   6.397   5.980  13.437 -2.1991 -1.0837 -0.2529
 9420TIP3    H249676   6.310   6.101  13.461  1.3202  1.4772  0.4751
 9421TIP3   OH249677   5.026   2.548  11.588  0.2397 -0.0434  0.1693
 9421TIP3    H149678   5.028   2.617  11.521 -1.0240  1.9660  2.0613
 9421TIP3    H249679   4.996   2.593  11.667  1.3425 -2.3827  2.0294
 9422TIP3   OH249680   5.521   2.448   1.012 -0.1972  0.3108  0.1578
 9422TIP3    H149681   5.514   2.367   1.062  1.1875 -0.2058 -0.4669
 9422TIP3    H249682   5.561   2.510   1.073 -0.1262  0.1846  0.2392
 9423TIP3   OH249683   2.106   3.249  14.047  0.4176 -0.2953  0.2307
 9423TIP3    H149684   2.019   3.286  14.036 -0.6895 -2.5205  0.8736
 9423TIP3    H249685   2.145   3.252  13.960 -1.3753 -1.7303 -0.6758
 9424TIP3   OH249686   1.834   6.175  14.206 -0.1238  0.1036  0.0048
 9424TIP3    H149687   1.859   6.267  14.198  0.6101 -0.0792  0.1173
 9424TIP3    H249688   1.773   6.174  14.280 -0.2404  0.5219 -0.0833
 9425TIP3   OH249689   1.959   4.979  16.919  0.6536 -0.3509 -0.0158
 9425TIP3    H149690   1.905   5.024  16.854  0.4450 -0.7362 -0.1114
 9425TIP3    H249691   1.989   5.048  16.978 -0.1675 -0.1771  0.2038
 9426TIP3   OH249692   5.381   6.508   5.208 -0.5109  0.0675 -0.1234
 9426TIP3    H149693   5.441   6.437   5.231 -2.3808 -1.2619  0.9778
 9426TIP3    H249694   5.436   6.586   5.203  1.4753 -1.2881 -0.4688
 9427TIP3   OH249695   2.028   6.013  12.539  0.0184 -0.5142  0.2374
 9427TIP3    H149696   2.117   6.007  12.504 -0.3429 -0.9432 -0.6278
 9427TIP3    H249697   2.007   6.106  12.537  0.5232 -0.3831  0.6576
 9428TIP3   OH249698   3.131   1.986   0.130  0.4287 -0.0329 -0.3900
 9428TIP3    H149699   3.038   1.963   0.122  0.6348 -1.2393  0.5015
 9428TIP3    H249700   3.154   2.019   0.043 -0.7602  0.0411 -0.7062
 9429TIP3   OH249701   4.375   2.771  11.412 -0.4048  0.0930 -0.2026
 9429TIP3    H149702   4.319   2.833  11.458 -1.1944  0.5041 -1.6619
 9429TIP3    H249703   4.328   2.688  11.416  0.2375 -0.2381  0.9865
 9430TIP3   OH249704   5.528   2.544   5.254  0.1304  0.2740  0.0346
 9430TIP3    H149705   5.514   2.454   5.225  1.7215  0.0652 -0.1687
 9430TIP3    H249706   5.471   2.553   5.331 -1.4428 -0.2885 -1.0235
 9431TIP3   OH249707   5.924   0.237  13.129  0.4687  0.6814  0.5546
 9431TIP3    H149708   5.981   0.226  13.053 -0.4839 -0.6983 -0.0098
 9431TIP3    H249709   5.980   0.220  13.204  0.6480 -1.6591 -0.0322
 9432TIP3   OH249710   3.515   6.352   3.371 -0.4603 -0.4140 -0.2726
 9432TIP3    H149711   3.581   6.310   3.316  0.4170 -0.4021  0.7416
 9432TIP3    H249712   3.437   6.298   3.358  0.4932 -2.1243  0.5933
 9433TIP3   OH249713   4.419   6.283  14.091 -0.0406 -0.7120 -0.1112
 9433TIP3    H149714   4.435   6.266  13.998  0.2270  0.2188 -0.2499
 9433TIP3    H249715   4.389   6.374  14.094  0.7666 -0.4595  0.7877
 9434TIP3   OH249716   5.920   1.637  11.131 -0.3707  0.1175  0.2979
 9434TIP3    H149717   5.901   1.730  11.133 -0.1990  0.1796 -0.5869
 9434TIP3    H249718   6.014   1.631  11.148 -0.5998  0.0094  1.6310
 9435TIP3   OH249719   5.046   5.648  11.452  0.8410 -0.4396  0.5015
 9435TIP3    H149720   5.060   5.559  11.420  0.2517 -1.0501  1.8466
 9435TIP3    H249721   4.989   5.689  11.387 -0.2039 -1.5831  0.6550
 9436TIP3   OH249722   4.307   5.024  15.172 -0.1678  0.1290 -0.0444
 9436TIP3    H149723   4.351   5.053  15.252  2.8727  1.0436 -1.8885
 9436TIP3    H249724   4.299   5.103  15.119 -0.7802 -0.7217 -1.2679
 9437TIP3   OH249725   2.692   6.693   4.522 -0.5541  0.1089 -0.0043
 9437TIP3    H149726   2.776   6.696   4.478 -1.1047 -1.3577 -1.2539
 9437TIP3    H249727   2.710   6.650   4.606 -0.1023 -0.5122 -0.4154
 9438TIP3   OH249728   0.975   6.079  13.315 -0.2265  0.1553 -0.2057
 9438TIP3    H149729   1.010   6.157  13.272 -3.6117  2.0008 -0.0257
 9438TIP3    H249730   0.926   6.033  13.246 -0.9015 -0.0111  0.3665
 9439TIP3   OH249731   5.869   1.237   1.063  0.6780  0.5384 -0.0627
 9439TIP3    H149732   5.920   1.282   0.996  0.2367 -0.8793 -1.4071
 9439TIP3    H249733   5.934   1.208   1.127  1.0842  2.0574  0.2573
 9440TIP3   OH249734   2.633   3.243   5.093  0.2895  0.5836  0.2591
 9440TIP3    H149735   2.634   3.338   5.080 -0.0825  0.3543 -1.8175
 9440TIP3    H249736   2.549   3.226   5.134  1.4272  1.3506  3.1980
 9441TIP3   OH249737   5.408   0.586  16.312 -0.5692 -0.7170 -0.0607
 9441TIP3    H149738   5.397   0.547  16.399 -1.6749 -0.9611 -0.2996
 9441TIP3    H249739   5.319   0.589  16.276 -0.0949 -0.8113 -1.2672
 9442TIP3   OH249740   2.772   5.912   0.308 -0.0195  0.2812  0.0125
 9442TIP3    H149741   2.712   5.881   0.376  0.2072 -0.1701  0.0116
 9442TIP3    H249742   2.790   5.835   0.255  1.1294  0.2287  0.4384
 9443TIP3   OH249743   1.066   3.005  11.321  0.3357 -0.5023  0.1602
 9443TIP3    H149744   1.148   3.027  11.277  1.2937 -0.3395  1.9240
 9443TIP3    H249745   1.001   3.062  11.280  0.9346 -1.0905 -1.7265
 9444TIP3   OH249746   4.241   1.346   1.790 -0.0125 -0.2005  0.3030
 9444TIP3    H149747   4.176   1.329   1.722  0.9584 -0.6227 -0.5472
 9444TIP3    H249748   4.213   1.429   1.830 -0.7366 -0.0798 -0.4329
 9445TIP3   OH249749   2.074   1.959   2.548  0.2278 -0.1784  0.0439
 9445TIP3    H149750   2.131   1.946   2.623  0.4344  0.7585  0.0607
 9445TIP3    H249751   2.129   2.003   2.483 -0.5436  1.0510  0.1894
 9446TIP3   OH249752   1.914   0.732   4.342 -0.4808  0.2243 -0.1404
 9446TIP3    H149753   2.003   0.729   4.376 -0.7066  1.5036  0.6331
 9446TIP3    H249754   1.922   0.702   4.252  0.5579 -0.6900  0.2391
 9447TIP3   OH249755   5.691   1.839  14.745  0.1421 -0.6162  0.5664
 9447TIP3    H149756   5.605   1.857  14.708  0.7147  0.7755 -0.1681
 9447TIP3    H249757   5.673   1.798  14.830 -1.2256 -0.7225  0.2472
 9448TIP3   OH249758   6.776   6.123   2.725  0.0065 -0.3017 -0.2019
 9448TIP3    H149759   6.802   6.204   2.769 -0.5482  0.9584 -2.0587
 9448TIP3    H249760   6.708   6.150   2.663  0.7051 -1.9603 -1.7857
 9449TIP3   OH249761   4.526   1.398   0.007 -0.5285 -0.1475  0.0687
 9449TIP3    H149762   4.497   1.472  -0.046  0.9774  1.6132  1.5491
 9449TIP3    H249763   4.469   1.400   0.084 -0.6041 -0.6743  0.0323
 9450TIP3   OH249764   2.700   3.765  11.270  0.3840  0.1200  0.1931
 9450TIP3    H149765   2.752   3.737  11.346  0.1415  0.9172  0.6679
 9450TIP3    H249766   2.611   3.737  11.290  0.3182  0.3396  0.2092
 9451TIP3   OH249767   1.763   1.825   3.705  0.2909 -0.0362  0.4948
 9451TIP3    H149768   1.808   1.849   3.786 -0.1928 -0.2217  0.8292
 9451TIP3    H249769   1.818   1.860   3.635  1.3603 -0.9240  0.8574
 9452TIP3   OH249770   5.348   3.920   1.243  0.4613  0.1068 -0.1799
 9452TIP3    H149771   5.390   3.942   1.160  0.4574  1.7206  0.2111
 9452TIP3    H249772   5.418   3.880   1.295  1.0937  1.2421 -0.1284
 9453TIP3   OH249773   0.833   5.043  13.435 -0.4706 -0.3452  0.1632
 9453TIP3    H149774   0.882   5.002  13.506  0.1973  1.4320  0.7854
 9453TIP3    H249775   0.742   5.043  13.465 -0.4209 -0.9625  0.3278
 9454TIP3   OH249776   6.297   4.218  13.835  0.0208 -0.0734 -0.2426
 9454TIP3    H149777   6.209   4.184  13.850 -0.2372  0.9017  0.5847
 9454TIP3    H249778   6.354   4.159  13.884 -0.1429 -0.7969 -0.9056
 9455TIP3   OH249779   3.404   1.290  16.064 -0.1065 -0.0807  0.8242
 9455TIP3    H149780   3.454   1.367  16.037 -0.7590  0.4849  1.1967
 9455TIP3    H249781   3.470   1.222  16.077  0.4889  0.4380  0.5758
 9456TIP3   OH249782   0.481   1.111  12.722  0.1609  0.3898  0.4222
 9456TIP3    H149783   0.548   1.076  12.663 -0.9404 -0.7201 -0.2223
 9456TIP3    H249784   0.512   1.086  12.810  0.6040 -0.0717  0.1397
 9457TIP3   OH249785   4.332   5.733  12.606  0.0251  0.5017 -0.0203
 9457TIP3    H149786   4.338   5.665  12.673 -0.3553  2.4783  2.1403
 9457TIP3    H249787   4.245   5.772  12.619  0.2598  1.4673 -1.1533
 9458TIP3   OH249788   2.831   4.166  12.754  0.1564 -0.4543  0.0222
 9458TIP3    H149789   2.879   4.167  12.671  0.1414  0.3078  0.0083
 9458TIP3    H249790   2.879   4.106  12.810 -0.9644 -2.6075 -1.1727
 9459TIP3   OH249791   6.568   2.681  15.296 -0.3814  0.4071  1.1861
 9459TIP3    H149792   6.606   2.627  15.227  4.9481  3.1088  1.5486
 9459TIP3    H249793   6.574   2.627  15.375 -0.8479 -0.5198  0.6058
 9460TIP3   OH249794   6.244   2.588   3.274 -0.2131 -0.0516  0.4071
 9460TIP3    H149795   6.333   2.592   3.309  0.1545  0.2071 -0.5343
 9460TIP3    H249796   6.255   2.596   3.179 -1.2053 -0.4902  0.2443
 9461TIP3   OH249797   4.057   2.791  15.107  0.4799  0.0917 -0.0484
 9461TIP3    H149798   4.069   2.800  15.012 -1.5778  0.6145 -0.2864
 9461TIP3    H249799   4.041   2.698  15.120  0.1764  0.1130 -0.2779
 9462TIP3   OH249800   3.698   2.937   2.654  0.6189 -0.0603  0.3054
 9462TIP3    H149801   3.666   2.849   2.636  1.2123 -0.4525  1.0980
 9462TIP3    H249802   3.771   2.950   2.593  0.4234 -0.0511  0.0735
 9463TIP3   OH249803   2.460   4.625   5.757  0.3882 -0.0085  0.1486
 9463TIP3    H149804   2.527   4.559   5.742  0.3078 -0.6392  2.1569
 9463TIP3    H249805   2.458   4.636   5.853 -3.1353 -0.9237  0.3314
 9464TIP3   OH249806   3.805   1.651   6.111 -0.2312  0.0666  0.2483
 9464TIP3    H149807   3.873   1.664   6.177  1.0209 -0.9657 -0.7731
 9464TIP3    H249808   3.733   1.707   6.139  0.6064  0.3446  1.9791
 9465TIP3   OH249809   3.007   1.858  14.160 -0.0588  0.0742  0.4126
 9465TIP3    H149810   2.926   1.851  14.211 -0.0588 -1.9126  0.2196
 9465TIP3    H249811   3.057   1.927  14.204 -0.2737 -1.1950  2.8346
 9466TIP3   OH249812   3.111   4.243  16.361 -0.1935 -0.4011  0.6683
 9466TIP3    H149813   3.173   4.171  16.351  1.1482  0.7877  0.1522
 9466TIP3    H249814   3.038   4.205  16.411 -1.0406 -3.0174 -2.2060
 9467TIP3   OH249815   5.653   2.189   4.089 -0.4522  0.1889  0.7533
 9467TIP3    H149816   5.565   2.219   4.066  0.1733  0.8946 -0.9068
 9467TIP3    H249817   5.706   2.208   4.011  1.0445 -0.7826  1.4775
 9468TIP3   OH249818   5.929   3.757  14.841  0.4749 -0.4598  0.4375
 9468TIP3    H149819   5.910   3.772  14.748  1.3600 -1.6501  0.0428
 9468TIP3    H249820   5.857   3.799  14.887 -0.1424 -0.1105 -0.8041
 9469TIP3   OH249821   1.928   6.129  13.058 -0.0409 -0.0099 -0.2393
 9469TIP3    H149822   2.005   6.080  13.086  0.0623 -0.0539 -0.5905
 9469TIP3    H249823   1.947   6.154  12.967 -0.1266  0.6153 -0.0932
 9470TIP3   OH249824   6.790   4.276  11.392  0.1467 -0.2843 -0.3618
 9470TIP3    H149825   6.811   4.302  11.482 -3.4226  2.3024 -0.0955
 9470TIP3    H249826   6.754   4.188  11.401 -0.9939  0.2779  0.9243
 9471TIP3   OH249827   6.454   3.007   0.443  0.5187 -0.5486 -0.3087
 9471TIP3    H149828   6.409   2.938   0.491 -1.7299  1.8642  1.3190
 9471TIP3    H249829   6.390   3.036   0.378  0.3229  1.6936  0.8009
 9472TIP3   OH249830   6.481   2.147  16.277  0.4197  0.0281 -0.5379
 9472TIP3    H149831   6.518   2.235  16.275 -0.9348  0.6658  0.8264
 9472TIP3    H249832   6.462   2.131  16.369  1.2969 -1.9966 -0.6693
 9473TIP3   OH249833   5.766   1.369   4.527  0.1333  0.0085 -0.0447
 9473TIP3    H149834   5.859   1.392   4.536  0.2187 -0.7051  1.1869
 9473TIP3    H249835   5.764   1.274   4.535 -0.7770  0.0803  0.8870
 9474TIP3   OH249836   5.975   0.936   0.658  0.0754 -0.1199 -0.5616
 9474TIP3    H149837   6.056   0.954   0.707  0.5804  0.4476 -1.5770
 9474TIP3    H249838   5.906   0.978   0.709  0.3522 -0.9266  0.5188
 9475TIP3   OH249839   2.720   6.015  12.883 -0.1820  0.4339  0.0447
 9475TIP3    H149840   2.758   6.099  12.910 -0.0324  0.5013 -0.3642
 9475TIP3    H249841   2.674   5.983  12.961 -1.0036  1.3312 -0.0432
 9476TIP3   OH249842   4.431   2.620  14.483 -0.2319  0.1775 -0.5059
 9476TIP3    H149843   4.525   2.627  14.467 -0.2597  0.1127 -0.7036
 9476TIP3    H249844   4.414   2.526  14.484 -0.3363  0.1906 -0.7323
 9477TIP3   OH249845   3.893   5.856   3.183  0.3466 -0.2218 -0.2111
 9477TIP3    H149846   3.858   5.902   3.107 -3.0735  1.5461  2.2142
 9477TIP3    H249847   3.950   5.919   3.226 -1.0768  0.3373  0.9032
 9478TIP3   OH249848   4.508   4.280  17.228 -0.0616  0.1354  0.0974
 9478TIP3    H149849   4.445   4.328  17.282 -0.8089  0.3343 -0.9370
 9478TIP3    H249850   4.516   4.196  17.272  0.5438  0.8371  1.3989
 9479TIP3   OH249851   1.735   5.193   1.482  0.2185  0.0958  0.9409
 9479TIP3    H149852   1.667   5.135   1.448  0.2268  0.2152  0.7182
 9479TIP3    H249853   1.817   5.150   1.459  0.2717  0.9600 -0.6547
 9480TIP3   OH249854   2.143   2.210   3.668 -0.1506 -0.2292 -0.0229
 9480TIP3    H149855   2.150   2.140   3.602  0.3005  0.6036 -0.8759
 9480TIP3    H249856   2.051   2.235   3.666 -0.3487 -0.8783  0.3916
 9481TIP3   OH249857   4.883   5.155   2.919 -0.2794  0.5087 -0.1363
 9481TIP3    H149858   4.833   5.122   2.993 -0.9362 -0.2260 -0.8844
 9481TIP3    H249859   4.865   5.093   2.848  2.0913 -0.0757 -0.3189
 9482TIP3   OH249860   0.635   6.057   4.153  0.0307 -0.1273  0.2094
 9482TIP3    H149861   0.665   5.967   4.145  0.5333 -0.1054  1.5923
 9482TIP3    H249862   0.704   6.101   4.203 -0.7381  0.7555  0.5265
 9483TIP3   OH249863   3.542   2.641   3.490  0.0888 -0.0439  0.0031
 9483TIP3    H149864   3.555   2.562   3.542 -0.7054 -0.5029 -0.4753
 9483TIP3    H249865   3.628   2.661   3.455  0.7002  0.4177  1.6621
 9484TIP3   OH249866   2.781   6.414   1.009  0.2649 -0.4702 -0.0557
 9484TIP3    H149867   2.796   6.440   1.100 -0.7640 -0.9972  0.2779
 9484TIP3    H249868   2.713   6.474   0.979  1.1799  0.2522 -0.7625
 9485TIP3   OH249869   5.973   5.248   3.643 -0.3530 -0.2081  0.6071
 9485TIP3    H149870   5.878   5.238   3.655 -0.2741 -1.0906  0.5524
 9485TIP3    H249871   5.988   5.224   3.552 -0.1829  0.8148  0.3530
 9486TIP3   OH249872   3.552   0.048   4.512 -0.1169  0.0014 -0.1682
 9486TIP3    H149873   3.619  -0.017   4.533 -0.3985 -0.5160 -0.8222
 9486TIP3    H249874   3.602   0.125   4.483  0.2013 -0.1546 -0.0427
 9487TIP3   OH249875   3.207   6.714   4.334  0.3301 -0.5078 -0.5626
 9487TIP3    H149876   3.258   6.794   4.342 -1.3319  0.5808 -0.4761
 9487TIP3    H249877   3.223   6.683   4.245  1.7739 -0.6721 -0.2734
 9488TIP3   OH249878   0.352   0.708   1.695 -0.1106  0.0017  0.2632
 9488TIP3    H149879   0.367   0.644   1.626 -1.2320  0.1469 -0.1422
 9488TIP3    H249880   0.357   0.793   1.651  0.1597  0.1346  0.5526
 9489TIP3   OH249881   4.153   2.495  15.656 -0.5598  0.4030 -0.0641
 9489TIP3    H149882   4.161   2.586  15.686  0.7658  0.1713  0.3604
 9489TIP3    H249883   4.090   2.498  15.584 -0.7611  1.6023  0.1454
 9490TIP3   OH249884   0.621   5.431  12.128 -0.0760 -0.9824 -0.3144
 9490TIP3    H149885   0.668   5.386  12.058  0.6756 -3.7117  1.7428
 9490TIP3    H249886   0.684   5.493  12.164  0.3237 -1.2131 -0.6143
 9491TIP3   OH249887   2.409   5.866   3.797 -0.2105  0.2453  0.1607
 9491TIP3    H149888   2.352   5.931   3.757  2.0605  1.2302 -1.7225
 9491TIP3    H249889   2.370   5.849   3.882 -4.4987 -0.7740 -1.7106
 9492TIP3   OH249890   2.974   4.371  12.371 -0.9026 -0.3165 -0.3001
 9492TIP3    H149891   2.929   4.298  12.414  2.3505 -1.9940  0.5782
 9492TIP3    H249892   2.995   4.338  12.284  2.7735 -1.6776  0.8863
 9493TIP3   OH249893   5.190   2.651   0.932 -0.1071  0.2050  0.0695
 9493TIP3    H149894   5.189   2.580   0.996  1.3396  0.9141  0.9406
 9493TIP3    H249895   5.174   2.608   0.848 -0.3674 -0.9800  0.7039
 9494TIP3   OH249896   1.864   2.016   3.275 -0.1047  0.3334 -0.3489
 9494TIP3    H149897   1.927   2.021   3.203 -0.0067  0.7147 -0.2392
 9494TIP3    H249898   1.783   2.053   3.239  1.1034  4.9593  1.0027
 9495TIP3   OH249899   5.947   3.713   1.313  0.2801  0.0226 -0.0013
 9495TIP3    H149900   5.980   3.791   1.358  0.6183  0.2524 -0.6411
 9495TIP3    H249901   6.018   3.687   1.255  0.3836 -1.0797  0.5929
 9496TIP3   OH249902   4.487   3.801   2.897  0.2139 -0.3750 -0.2869
 9496TIP3    H149903   4.420   3.868   2.887 -1.0859 -1.4174  0.9955
 9496TIP3    H249904   4.466   3.736   2.829  0.0855 -0.5771 -0.0541
 9497TIP3   OH249905   5.216   0.368   4.314  0.5677  0.2966  0.1423
 9497TIP3    H149906   5.208   0.295   4.376  0.4769  0.0269 -0.1820
 9497TIP3    H249907   5.292   0.417   4.343  1.6295 -0.8575 -0.5939
 9498TIP3   OH249908   5.386   4.409  14.278  0.1110  0.0038 -0.1243
 9498TIP3    H149909   5.448   4.337  14.278  0.3797  0.2357 -0.2219
 9498TIP3    H249910   5.306   4.371  14.316  0.6493 -0.0049  1.0498
 9499TIP3   OH249911   6.584   5.449  15.563 -0.4432 -0.1991 -0.0484
 9499TIP3    H149912   6.544   5.434  15.477 -0.3015 -1.5205  0.0958
 9499TIP3    H249913   6.678   5.438  15.547 -0.2826  1.0734 -0.0197
 9500TIP3   OH249914   6.005   4.816   0.989  0.4804 -0.0814 -0.5177
 9500TIP3    H149915   5.925   4.791   1.034 -0.0410  2.3990  0.0369
 9500TIP3    H249916   6.021   4.743   0.928 -1.6602 -1.0606 -0.0110
 9501TIP3   OH249917   1.875   6.189   1.100  0.3573 -0.6656  0.6072
 9501TIP3    H149918   1.840   6.277   1.085 -0.2250 -1.0684 -0.4881
 9501TIP3    H249919   1.864   6.174   1.194  1.2489  0.7512  0.9777
 9502TIP3   OH249920   4.301   1.550  15.758 -0.2285  0.1686 -0.1678
 9502TIP3    H149921   4.317   1.456  15.773  1.8438  0.6154  0.8589
 9502TIP3    H249922   4.387   1.585  15.735 -1.1174  1.7045 -1.3164
 9503TIP3   OH249923   0.087   6.281   4.827 -0.6144 -0.5627 -0.0878
 9503TIP3    H149924   0.179   6.309   4.822 -1.1556  1.5581  0.7194
 9503TIP3    H249925   0.091   6.185   4.833  1.4501 -0.6589 -1.7436
 9504TIP3   OH249926   0.110   5.157   1.843  0.1500  0.6982  0.4671
 9504TIP3    H149927   0.197   5.190   1.821  0.3573 -0.2972 -0.2565
 9504TIP3    H249928   0.084   5.105   1.767 -1.6004  1.9761  0.1394
 9505TIP3   OH249929   6.216   2.578  11.473 -0.3359 -0.7904  0.2012
 9505TIP3    H149930   6.154   2.634  11.427 -1.0437  0.2291  2.2596
 9505TIP3    H249931   6.238   2.510  11.410 -0.9649  0.6893 -1.7163
 9506TIP3   OH249932   5.594   6.026   3.255 -0.1539  0.1733  0.4083
 9506TIP3    H149933   5.671   6.019   3.311  1.1333 -1.6347 -1.4032
 9506TIP3    H249934   5.608   6.106   3.204  0.4324 -0.0261  0.2488
 9507TIP3   OH249935   1.356   0.532  15.151  0.7698  0.2980  0.1872
 9507TIP3    H149936   1.297   0.601  15.180  2.2824  1.7816 -0.1300
 9507TIP3    H249937   1.443   0.562  15.177  1.6671 -0.6042 -1.5766
 9508TIP3   OH249938   4.672   5.117   0.925 -0.1316  0.3409 -0.5585
 9508TIP3    H149939   4.673   5.051   0.994 -0.0564  1.2643  0.3529
 9508TIP3    H249940   4.755   5.163   0.936 -0.7203  1.3905 -0.3553
 9509TIP3   OH249941   1.649   0.784  14.024  0.5444  0.0202  0.0953
 9509TIP3    H149942   1.568   0.739  14.002  0.0023  0.2489  1.5183
 9509TIP3    H249943   1.666   0.841  13.949 -1.8621  1.6815  0.6753
 9510TIP3   OH249944   2.849   0.168   5.379  0.1163 -0.2846  0.6195
 9510TIP3    H149945   2.870   0.156   5.472 -0.3753 -0.5063  0.7055
 9510TIP3    H249946   2.757   0.195   5.379  0.5086  1.1088  0.2712
 9511TIP3   OH249947   4.996   1.741  16.070  0.3239  0.4719 -0.0284
 9511TIP3    H149948   4.993   1.693  15.988 -2.1158  0.6038 -0.0837
 9511TIP3    H249949   5.057   1.691  16.125 -0.7715 -1.7103 -0.6945
 9512TIP3   OH249950   4.936   2.943  16.995  0.8393 -0.3666 -0.2391
 9512TIP3    H149951   5.016   2.910  17.036  1.0672  0.9141  0.3949
 9512TIP3    H249952   4.910   3.016  17.050  0.1302  0.2435 -1.3672
 9513TIP3   OH249953   2.437   2.143   0.345 -0.0740  0.0196 -0.4030
 9513TIP3    H149954   2.517   2.155   0.294  1.3112 -2.8674  0.8350
 9513TIP3    H249955   2.448   2.057   0.387 -3.0239  0.3321  1.3038
 9514TIP3   OH249956   3.955   2.821   4.183  0.2585 -0.0851  0.0509
 9514TIP3    H149957   4.005   2.882   4.238 -0.7206  0.7694  0.0292
 9514TIP3    H249958   4.006   2.815   4.102  2.8463 -2.9686  1.6634
 9515TIP3   OH249959   3.336   6.216   1.337 -0.2500  0.2952 -0.0282
 9515TIP3    H149960   3.405   6.271   1.301 -0.6729  1.4816  0.9198
 9515TIP3    H249961   3.292   6.180   1.260  0.0055  1.3065 -0.6681
 9516TIP3   OH249962   4.460   6.752  16.051  0.5971  0.1659  0.5213
 9516TIP3    H149963   4.472   6.699  16.130  1.4123 -1.2492 -0.5007
 9516TIP3    H249964   4.542   6.801  16.041  0.3908  0.5513  0.6958
 9517TIP3   OH249965   3.269   1.138   4.634  0.1126  0.5907 -0.0067
 9517TIP3    H149966   3.260   1.046   4.610  0.3707  0.8856 -1.3260
 9517TIP3    H249967   3.339   1.139   4.700 -2.0159 -0.4825  2.4228
 9518TIP3   OH249968   6.096   3.215   0.040  0.1035 -0.1718  0.5931
 9518TIP3    H149969   6.046   3.225  -0.041  1.1195  2.6718  0.2072
 9518TIP3    H249970   6.065   3.287   0.095  2.0087  0.1482  1.2988
 9519TIP3   OH249971   4.774   1.606  15.897  0.2494 -0.1774 -0.0750
 9519TIP3    H149972   4.713   1.538  15.928 -0.3805  0.0767 -0.7178
 9519TIP3    H249973   4.824   1.563  15.828  0.4236 -0.2292  0.0842
 9520TIP3   OH249974   6.390   4.784   1.546  0.2783  0.2866 -0.6288
 9520TIP3    H149975   6.395   4.701   1.593  2.1223  0.5494 -0.3122
 9520TIP3    H249976   6.368   4.848   1.614  0.1583  0.2540 -0.6366
 9521TIP3   OH249977   2.635   6.078   2.543 -1.0835 -0.1670 -0.4580
 9521TIP3    H149978   2.683   6.028   2.608 -0.2723  0.3908 -0.6045
 9521TIP3    H249979   2.659   6.169   2.561  1.5620 -0.1319 -3.3054
 9522TIP3   OH249980   4.375   0.131   0.817 -0.3854  0.1286  0.0723
 9522TIP3    H149981   4.280   0.135   0.816 -0.4116  0.3380 -2.2529
 9522TIP3    H249982   4.397   0.065   0.751  1.0936 -0.7027  1.3203
 9523TIP3   OH249983   3.066   4.947   2.762 -0.0786  0.2824 -0.2613
 9523TIP3    H149984   3.012   4.871   2.740 -0.2658  0.8893 -2.0953
 9523TIP3    H249985   3.111   4.922   2.842  0.6567 -2.2115 -1.3533
 9524TIP3   OH249986   5.856   1.356   2.194  0.3076  0.5587 -0.2940
 9524TIP3    H149987   5.816   1.381   2.277  1.2029  0.5625  0.1373
 9524TIP3    H249988   5.941   1.321   2.217  1.3512  2.2459 -1.3359
 9525TIP3   OH249989   3.133   1.707  11.931 -0.1694  0.0773  0.6453
 9525TIP3    H149990   3.128   1.705  11.836  0.2285 -0.1416  0.6279
 9525TIP3    H249991   3.214   1.753  11.950  0.5435 -1.2296  0.8567
 9526TIP3   OH249992   6.805   2.464  14.681  0.2173 -0.6095  0.3323
 9526TIP3    H149993   6.732   2.404  14.693 -0.3877  0.2409  1.0823
 9526TIP3    H249994   6.858   2.455  14.760  0.3608 -0.4803  0.2524
 9527TIP3   OH249995   2.826   4.508   4.586  0.2304  0.3482  0.6648
 9527TIP3    H149996   2.764   4.501   4.514 -0.6624 -1.5935  1.5790
 9527TIP3    H249997   2.772   4.510   4.665  1.1800  2.5214  1.3627
 9528TIP3   OH249998   2.700   4.448  14.076  0.2176 -0.2439  0.0606
 9528TIP3    H149999   2.671   4.357  14.066  0.2316 -0.3485  0.8682
 9528TIP3    H250000   2.729   4.474  13.989 -0.1730 -0.8812 -0.2677
 9529TIP3   OH250001   5.299   1.484  13.702 -0.3167 -0.1132  0.5266
 9529TIP3    H150002   5.393   1.472  13.715 -0.1097  0.7141 -0.1353
 9529TIP3    H250003   5.263   1.486  13.790  0.5897  1.7918  0.9000
 9530TIP3   OH250004   0.410   0.783   0.454 -0.1051 -0.2493 -0.0266
 9530TIP3    H150005   0.481   0.819   0.507  0.4875 -2.8225  1.0908
 9530TIP3    H250006   0.335   0.839   0.474  0.9721  0.9986  0.7294
 9531TIP3   OH250007   6.737   0.841  12.360  0.1187  0.6391 -0.6309
 9531TIP3    H150008   6.731   0.880  12.447 -0.0732  0.6356 -0.6433
 9531TIP3    H250009   6.651   0.854  12.321  0.1068  0.3553 -0.7004
 9532TIP3   OH250010   4.961   5.782  11.105  0.7568  0.2560 -0.0746
 9532TIP3    H150011   4.923   5.793  11.018 -1.1465  1.7260  0.8572
 9532TIP3    H250012   5.050   5.815  11.098  0.1613  1.7127 -1.1538
 9533TIP3   OH250013   1.544   0.093  13.080  0.5559 -0.0245 -0.3188
 9533TIP3    H150014   1.505   0.180  13.087  0.7584  0.0838 -0.5525
 9533TIP3    H250015   1.481   0.035  13.124 -0.4275 -0.0237 -1.6722
 9534TIP3   OH250016   5.447   4.817   2.967  0.3600  0.2014  0.5735
 9534TIP3    H150017   5.536   4.815   2.931  0.0249  0.4850 -0.2953
 9534TIP3    H250018   5.420   4.909   2.957 -0.1018  0.0750  0.6447
 9535TIP3   OH250019   0.163   2.521  15.326 -0.1857 -0.1424  0.5430
 9535TIP3    H150020   0.139   2.589  15.389 -1.6006 -0.2081  0.1100
 9535TIP3    H250021   0.140   2.439  15.369 -1.0494 -0.1918 -0.0044
 9536TIP3   OH250022   3.471   0.726   5.575  0.0970 -0.3141  0.3613
 9536TIP3    H150023   3.475   0.802   5.632 -0.2233 -0.1097  0.1165
 9536TIP3    H250024   3.552   0.678   5.593  0.4144  0.2086  0.3398
 9537TIP3   OH250025   0.902   5.027  15.312  0.1084 -0.1308 -0.2971
 9537TIP3    H150026   0.924   5.095  15.376 -0.4463 -1.1744  1.0298
 9537TIP3    H250027   0.812   5.048  15.285  0.1766  0.0327 -0.4061
 9538TIP3   OH250028   0.699   0.542  16.975  0.0943 -0.2136 -0.3581
 9538TIP3    H150029   0.752   0.462  16.976 -1.0416 -0.9915 -0.4574
 9538TIP3    H250030   0.762   0.613  16.983  1.0982 -1.1420  0.2081
 9539TIP3   OH250031   4.289   5.693  11.713  0.0275  0.3194  0.5993
 9539TIP3    H150032   4.369   5.649  11.684 -1.0804 -2.0337  0.9228
 9539TIP3    H250033   4.258   5.640  11.787 -2.5776  0.3275 -0.3954
 9540TIP3   OH250034   3.907   6.002   3.563 -0.3656  1.1164  0.3584
 9540TIP3    H150035   3.952   5.969   3.640  0.4046  1.5001  0.0807
 9540TIP3    H250036   3.822   5.958   3.564  0.2781 -0.1672  0.4965
 9541TIP3   OH250037   5.278   2.693  12.444 -0.0903  0.2157 -0.4517
 9541TIP3    H150038   5.197   2.713  12.489  0.0328  1.0569 -0.5927
 9541TIP3    H250039   5.258   2.615  12.391 -1.2080  1.2061 -1.5370
 9542TIP3   OH250040   3.130   3.820  16.603 -0.1315  0.1901  0.9859
 9542TIP3    H150041   3.049   3.771  16.617 -0.5567  0.7628  0.5762
 9542TIP3    H250042   3.193   3.780  16.663 -0.7361 -0.2156  1.3599
 9543TIP3   OH250043   3.290   6.732  11.451  0.0935 -0.7634  0.4380
 9543TIP3    H150044   3.211   6.743  11.398  0.0240  0.0102  0.6850
 9543TIP3    H250045   3.362   6.747  11.390  0.0415 -1.1815  0.2751
 9544TIP3   OH250046   1.489   0.738  12.261  0.5527 -0.3129 -0.2807
 9544TIP3    H150047   1.423   0.694  12.207 -1.2188  0.2017  1.3362
 9544TIP3    H250048   1.533   0.798  12.200 -1.4048  0.3038 -1.1820
 9545TIP3   OH250049   4.510   0.670  11.248  0.0923  0.2938 -0.3590
 9545TIP3    H150050   4.564   0.591  11.253 -0.7064 -0.2860 -0.6233
 9545TIP3    H250051   4.549   0.730  11.311 -0.7883 -1.2594  1.7840
 9546TIP3   OH250052   2.728   1.968   5.156 -0.2237 -0.1799  0.0191
 9546TIP3    H150053   2.727   1.872   5.149 -0.9007 -0.1271 -0.9153
 9546TIP3    H250054   2.692   1.997   5.072  2.1114  0.9648 -0.6669
 9547TIP3   OH250055   4.144   3.013  16.064  0.1474 -0.5109  0.6595
 9547TIP3    H150056   4.186   2.952  16.124 -0.2140  0.4185  1.8962
 9547TIP3    H250057   4.164   2.979  15.977  0.1588 -2.2407  1.3053
 9548TIP3   OH250058   3.562   0.162   5.840  0.1419 -0.3388 -0.3336
 9548TIP3    H150059   3.631   0.221   5.811 -0.5037  0.6978  0.1826
 9548TIP3    H250060   3.509   0.214   5.900  0.1982 -1.7854  1.0296
 9549TIP3   OH250061   1.811   0.334   5.511 -1.1051  0.8697 -0.2262
 9549TIP3    H150062   1.789   0.246   5.541 -2.1425  0.9859 -0.6174
 9549TIP3    H250063   1.874   0.320   5.440 -1.7621  0.4078 -0.7253
 9550TIP3   OH250064   3.912   0.025   5.871 -0.0884 -0.2213  0.4103
 9550TIP3    H150065   3.936   0.047   5.781  1.3838  0.0824  0.8529
 9550TIP3    H250066   3.906  -0.070   5.872 -2.2129 -0.1537 -0.4852
 9551TIP3   OH250067   0.278   1.040   2.017  0.0258  0.0985  0.4751
 9551TIP3    H150068   0.363   0.996   2.016  0.1742  0.2794 -2.4023
 9551TIP3    H250069   0.215   0.968   2.020  0.2902 -0.1639 -0.0287
 9552TIP3   OH250070   3.013   0.131   2.512  0.6306  0.1319  0.0358
 9552TIP3    H150071   3.093   0.131   2.565  0.1409  0.2656  0.7891
 9552TIP3    H250072   2.987   0.223   2.509 -0.0991 -0.0367  0.7424
 9553TIP3   OH250073   0.839   2.343   4.705 -0.3889 -0.9228  0.2882
 9553TIP3    H150074   0.891   2.276   4.659  1.4747 -0.9960  2.3417
 9553TIP3    H250075   0.905   2.398   4.747 -1.9784 -0.3797  2.1610
 9554TIP3   OH250076   6.023   4.844  13.759 -0.0811 -0.0937  0.0610
 9554TIP3    H150077   6.090   4.780  13.783  1.0192  1.0973  0.2616
 9554TIP3    H250078   5.971   4.800  13.691  0.0899 -1.5116  0.8093
 9555TIP3   OH250079   1.375   1.181   1.970 -0.1727 -0.0955  0.5253
 9555TIP3    H150080   1.390   1.126   1.893  0.2674  2.5663 -1.4016
 9555TIP3    H250081   1.315   1.129   2.025 -0.9690 -1.8497 -1.8397
 9556TIP3   OH250082   0.562   2.780   3.215 -0.3090  0.2028  0.9427
 9556TIP3    H150083   0.635   2.809   3.270 -0.2909  1.5824  0.2509
 9556TIP3    H250084   0.586   2.811   3.127 -0.2957 -1.9880  0.1056
 9557TIP3   OH250085   2.711   3.615  14.027  0.2471  0.0696 -0.1440
 9557TIP3    H150086   2.741   3.552  13.961  0.9912  0.2429  0.0121
 9557TIP3    H250087   2.732   3.573  14.110 -0.5648 -0.0900 -0.0198
 9558TIP3   OH250088   6.221   5.093  10.886  0.3487 -0.7526  0.0912
 9558TIP3    H150089   6.218   5.182  10.850  0.4678 -0.5981  0.4611
 9558TIP3    H250090   6.169   5.098  10.966  1.5407 -0.6645  0.8757
 9559TIP3   OH250091   3.345   2.102   0.497 -0.4659 -0.7788  0.7332
 9559TIP3    H150092   3.266   2.148   0.469 -0.4657 -0.3468  1.4097
 9559TIP3    H250093   3.365   2.139   0.584 -0.6307 -2.2781  1.4382
 9560TIP3   OH250094   0.262   5.256   3.658 -0.7044 -0.2070 -0.2727
 9560TIP3    H150095   0.333   5.301   3.703  0.6794 -1.0721 -1.4728
 9560TIP3    H250096   0.202   5.326   3.631  0.6019  0.7707 -0.7502
 9561TIP3   OH250097   0.382   1.103   0.985 -0.1846 -0.0482  0.4221
 9561TIP3    H150098   0.446   1.166   1.020 -0.1798 -0.3255  0.9290
 9561TIP3    H250099   0.298   1.133   1.021 -0.3600  0.3668 -0.3139
 9562TIP3   OH250100   2.094   6.431   1.277  0.6797  0.0499 -0.0783
 9562TIP3    H150101   2.062   6.501   1.219 -0.3648 -1.1652 -1.0075
 9562TIP3    H250102   2.020   6.372   1.288  1.1775 -0.3159  1.6826
 9563TIP3   OH250103   1.962   3.020  14.395 -0.8876 -0.1628 -0.1342
 9563TIP3    H150104   2.015   3.100  14.388  0.1355 -0.8803 -0.7526
 9563TIP3    H250105   1.903   3.038  14.469 -0.3128  0.9543  0.0842
 9564TIP3   OH250106   5.599   1.079  12.999  0.3379  0.4012 -0.1053
 9564TIP3    H150107   5.669   1.142  13.014 -0.2566  1.8225 -2.7433
 9564TIP3    H250108   5.520   1.124  13.029  0.2394 -0.3137  0.7589
 9565TIP3   OH250109   3.130   6.565   6.856  0.5673 -0.2037 -0.1232
 9565TIP3    H150110   3.059   6.508   6.885  0.8043 -0.6073 -0.3308
 9565TIP3    H250111   3.210   6.515   6.874  0.8212  0.4094  0.4762
 9566TIP3   OH250112   5.262   4.282  15.592 -0.4333  0.7144  0.4926
 9566TIP3    H150113   5.276   4.285  15.687 -0.9974 -0.6728  0.6391
 9566TIP3    H250114   5.170   4.306  15.581 -0.4232  0.6695  0.3114
 9567TIP3   OH250115   6.777   5.262   5.295  0.2867 -0.2192  0.5410
 9567TIP3    H150116   6.736   5.312   5.365  0.3668  0.7276 -0.0732
 9567TIP3    H250117   6.722   5.184   5.286 -0.2755  0.1176  1.0063
 9568TIP3   OH250118   3.511   3.809   5.513 -0.6281 -0.5421  0.0383
 9568TIP3    H150119   3.529   3.720   5.482 -0.4283 -1.0765  1.6286
 9568TIP3    H250120   3.458   3.797   5.591  0.9513  0.6501  1.3466
 9569TIP3   OH250121   1.481   5.628   4.225  0.1955 -0.7190 -0.4132
 9569TIP3    H150122   1.558   5.671   4.188  0.9819 -0.2099  1.6715
 9569TIP3    H250123   1.516   5.572   4.294 -1.3317  0.3021  1.2867
 9570TIP3   OH250124   2.730   1.710  11.668  0.3458 -0.0301  0.3126
 9570TIP3    H150125   2.796   1.682  11.731 -1.2417 -2.3407  1.0806
 9570TIP3    H250126   2.702   1.629  11.625 -0.6376  1.1338 -1.3668
 9571TIP3   OH250127   4.884   2.480  15.806 -0.1453 -0.0704  0.2380
 9571TIP3    H150128   4.868   2.461  15.898 -0.1178 -1.7098 -0.0660
 9571TIP3    H250129   4.975   2.511  15.803 -0.1433 -0.0284  0.7584
 9572TIP3   OH250130   4.045   4.654   6.798 -0.4501  0.4163 -0.3672
 9572TIP3    H150131   4.035   4.578   6.856 -0.9830 -0.6826 -1.8601
 9572TIP3    H250132   4.107   4.625   6.731 -0.3948  1.4215 -0.7605
 9573TIP3   OH250133   3.595   0.391   0.425  0.1823  0.7657 -0.5113
 9573TIP3    H150134   3.584   0.402   0.331  0.7950 -0.9746 -0.8296
 9573TIP3    H250135   3.518   0.432   0.464 -1.0885 -0.2404 -1.8888
 9574TIP3   OH250136   4.774   0.678   1.608 -0.0638 -0.2376  0.6227
 9574TIP3    H150137   4.746   0.770   1.615 -2.3907 -0.9105  0.9037
 9574TIP3    H250138   4.770   0.659   1.514  0.0912 -0.1678  0.6005
 9575TIP3   OH250139   6.191   1.114  15.249 -0.4623 -0.4486  0.0756
 9575TIP3    H150140   6.241   1.195  15.249  1.2909 -1.4276  2.6268
 9575TIP3    H250141   6.250   1.048  15.284 -2.2513 -2.5973 -0.6620
 9576TIP3   OH250142   1.124   1.750  16.150 -0.1372  0.1232 -0.1855
 9576TIP3    H150143   1.182   1.814  16.192  2.6274 -1.1344 -1.7830
 9576TIP3    H250144   1.099   1.690  16.221  1.7627 -0.0992  0.3614
 9577TIP3   OH250145   0.883   2.003   6.245  0.0678 -0.1175  0.3401
 9577TIP3    H150146   0.924   1.953   6.315 -0.0885 -0.2117  0.3642
 9577TIP3    H250147   0.824   2.064   6.290 -0.8110 -0.8797  0.2481
 9578TIP3   OH250148   0.687   5.264   5.443 -0.2325 -0.2093  0.0490
 9578TIP3    H150149   0.739   5.278   5.523 -3.2739 -0.0682  2.1769
 9578TIP3    H250150   0.654   5.175   5.451  0.3112 -0.5784 -1.6535
 9579TIP3   OH250151   6.439   3.225  12.901 -0.1349  0.0699  0.0181
 9579TIP3    H150152   6.401   3.225  12.813  1.7020  0.6456 -0.8477
 9579TIP3    H250153   6.396   3.152  12.946 -1.0687 -0.2932 -1.3809
 9580TIP3   OH250154   5.867   1.178  11.085  0.1319 -0.6533  0.2424
 9580TIP3    H150155   5.932   1.119  11.124  0.7469 -0.7816 -0.9380
 9580TIP3    H250156   5.809   1.120  11.036 -0.2162 -0.4219  0.3771
 9581TIP3   OH250157   1.018   6.309   2.493  0.2107  0.0805  0.5880
 9581TIP3    H150158   0.935   6.339   2.531 -1.0414  1.3413 -2.7780
 9581TIP3    H250159   1.073   6.388   2.489  0.3716 -0.0546 -0.0053
 9582TIP3   OH250160   1.290   0.272  15.437 -0.4379  0.5410  0.1974
 9582TIP3    H150161   1.254   0.268  15.349 -1.0132  0.2214  0.4408
 9582TIP3    H250162   1.337   0.189  15.448 -0.5712  0.4763  0.2785
 9583TIP3   OH250163   4.916   5.012  16.224 -0.0059 -0.6994 -0.1440
 9583TIP3    H150164   4.991   4.957  16.202  0.5668 -0.6402  1.5051
 9583TIP3    H250165   4.841   4.953  16.225  0.5057 -1.3593  1.0260
 9584TIP3   OH250166   5.653   2.981  13.434  0.0968 -0.4490 -0.0959
 9584TIP3    H150167   5.635   2.887  13.440  1.8575 -1.1824 -3.7270
 9584TIP3    H250168   5.573   3.017  13.395 -0.8907 -0.1805  2.0038
 9585TIP3   OH250169   1.430   1.028   0.822  0.2502 -0.2282 -0.4282
 9585TIP3    H150170   1.442   0.994   0.734  1.2900  0.2228 -0.4786
 9585TIP3    H250171   1.512   1.075   0.841 -0.5402  0.9558  0.2028
 9586TIP3   OH250172   0.814   3.205  16.235  0.0259  0.2469 -0.3756
 9586TIP3    H150173   0.863   3.139  16.185  0.5817  1.2192 -1.1512
 9586TIP3    H250174   0.867   3.221  16.313  0.0258 -0.0180 -0.3193
 9587TIP3   OH250175   4.747   6.310  10.578  0.2710  0.6975  0.7853
 9587TIP3    H150176   4.794   6.234  10.543 -0.9040 -0.2686  1.2464
 9587TIP3    H250177   4.655   6.293  10.558 -0.0853  1.6486  1.5422
 9588TIP3   OH250178   1.307   0.770   2.969  0.2508  0.6963  0.2064
 9588TIP3    H150179   1.307   0.744   3.062  0.3736 -0.2377 -0.0402
 9588TIP3    H250180   1.329   0.690   2.922 -1.5032  0.7170 -0.7531
 9589TIP3   OH250181   0.351   5.616   0.034 -0.4424  0.0441 -0.3561
 9589TIP3    H150182   0.293   5.545   0.005 -3.4347  2.2374 -0.2368
 9589TIP3    H250183   0.396   5.581   0.110 -1.8044 -1.7337 -0.3108
 9590TIP3   OH250184   2.776   5.683  13.869  0.1660  0.0473 -0.0769
 9590TIP3    H150185   2.788   5.590  13.852 -0.1679  0.3169 -1.9917
 9590TIP3    H250186   2.838   5.726  13.810  0.7369  1.0532  1.2012
 9591TIP3   OH250187   1.577   1.900  16.231  0.0684 -0.1202  0.6226
 9591TIP3    H150188   1.621   1.834  16.178  0.5469  0.4680  0.2807
 9591TIP3    H250189   1.632   1.978  16.224 -1.1598  0.7339 -0.0851
 9592TIP3   OH250190   3.790   1.671  15.997  0.3325 -0.4284  0.5013
 9592TIP3    H150191   3.826   1.678  16.085  0.6780 -0.0038  0.3315
 9592TIP3    H250192   3.761   1.759  15.975 -2.0820 -0.9857  1.1425
 9593TIP3   OH250193   2.683   2.848  10.918  0.2271 -0.9566 -0.0721
 9593TIP3    H150194   2.724   2.805  10.843  0.6585 -0.3339 -0.2074
 9593TIP3    H250195   2.594   2.868  10.888  0.4456 -0.5729 -0.4798
 9594TIP3   OH250196   6.287   2.321   1.796  0.8847  0.3788 -0.2657
 9594TIP3    H150197   6.287   2.230   1.827 -0.3400  0.2127 -0.7028
 9594TIP3    H250198   6.366   2.359   1.833  2.1751 -1.2552 -1.2286
 9595TIP3   OH250199   3.724   2.789  13.957 -0.3067 -0.9809 -0.7249
 9595TIP3    H150200   3.661   2.739  14.009  2.0337 -0.8176  2.5460
 9595TIP3    H250201   3.723   2.876  13.996  1.3273 -0.7458 -1.1579
 9596TIP3   OH250202   2.185   2.310   3.358  0.0014 -0.5513  0.3688
 9596TIP3    H150203   2.198   2.384   3.417  1.0376 -0.1216 -0.3657
 9596TIP3    H250204   2.230   2.335   3.277 -0.1252 -1.7445 -0.1023
 9597TIP3   OH250205   5.139   0.262  16.340 -0.4355  0.1396 -0.3017
 9597TIP3    H150206   5.234   0.269  16.345 -0.5789  1.6152  1.9126
 9597TIP3    H250207   5.117   0.190  16.400 -0.6655 -1.2410 -1.9807
 9598TIP3   OH250208   0.121   5.129   2.115  0.4193 -0.6337  0.6404
 9598TIP3    H150209   0.147   5.154   2.026 -1.7856 -1.2086 -0.2453
 9598TIP3    H250210   0.106   5.035   2.110 -1.3013 -0.4298  1.1239
 9599TIP3   OH250211   5.282   1.671  11.157 -0.5911  0.4871  0.0585
 9599TIP3    H150212   5.281   1.727  11.079 -1.3771  1.0771  0.4742
 9599TIP3    H250213   5.349   1.606  11.139  0.5014  1.6884 -0.3655
 9600TIP3   OH250214   6.165   2.764   4.135 -0.7577  0.0723 -0.2200
 9600TIP3    H150215   6.135   2.782   4.046 -1.3019 -0.5684 -0.1690
 9600TIP3    H250216   6.231   2.695   4.125  1.5663  2.1741 -0.4479
 9601TIP3   OH250217   1.873   0.493   2.256  0.3574 -0.1457 -0.1322
 9601TIP3    H150218   1.846   0.512   2.346  1.2177  0.2724  0.0547
 9601TIP3    H250219   1.927   0.414   2.264  0.2397 -0.2438 -0.3117
 9602TIP3   OH250220   3.659   5.190   4.514 -0.2810 -0.3707  0.2916
 9602TIP3    H150221   3.634   5.213   4.424 -0.9223 -4.6772 -0.8895
 9602TIP3    H250222   3.606   5.113   4.534  3.3297 -2.5712  2.4260
 9603TIP3   OH250223   2.079   3.837   3.241  0.7969  0.1966  0.4483
 9603TIP3    H150224   2.150   3.776   3.262  1.8822  1.1680 -0.2425
 9603TIP3    H250225   2.033   3.796   3.168  0.1448 -0.8014  1.3908
 9604TIP3   OH250226   0.689   4.427  10.901  0.7779 -0.0873 -0.1906
 9604TIP3    H150227   0.718   4.368  10.831 -1.8694  1.0237 -2.4238
 9604TIP3    H250228   0.706   4.515  10.867 -1.3232  0.4949  0.1069
 9605TIP3   OH250229   3.660   6.056  11.853  0.6795  0.1646  0.5636
 9605TIP3    H150230   3.580   6.107  11.841  0.0409 -0.4385  1.9710
 9605TIP3    H250231   3.685   6.029  11.765  0.2968  1.7778 -0.0686
 9606TIP3   OH250232   5.232   3.821   6.087  0.2946 -0.5208  0.0342
 9606TIP3    H150233   5.313   3.777   6.060  0.7638  1.5158 -2.2680
 9606TIP3    H250234   5.237   3.908   6.046 -2.0176  0.5292  1.7327
 9607TIP3   OH250235   2.375   4.504  13.857  0.2967 -0.0380  0.0990
 9607TIP3    H150236   2.411   4.461  13.779  0.3848 -1.9999  1.1673
 9607TIP3    H250237   2.287   4.466  13.866  0.3726  0.0065  1.0767
 9608TIP3   OH250238   4.805   0.696  14.181  0.2389  0.6330 -0.3976
 9608TIP3    H150239   4.826   0.604  14.165  2.1820  0.8736  0.4663
 9608TIP3    H250240   4.838   0.741  14.103 -0.4528  0.6602 -0.6875
 9609TIP3   OH250241   3.344   3.849   4.448  0.5377 -0.1466 -0.1763
 9609TIP3    H150242   3.340   3.762   4.407  0.1666 -0.5294  0.6478
 9609TIP3    H250243   3.256   3.863   4.483  1.0214 -0.1673  1.1304
 9610TIP3   OH250244   6.003   4.462   0.047  0.6038  0.5219  0.1426
 9610TIP3    H150245   5.912   4.480   0.071  0.5746  0.0661  0.3956
 9610TIP3    H250246   6.001   4.451  -0.048  0.1411 -0.8189  0.2784
 9611TIP3   OH250247   0.621   1.984   4.358 -0.2387 -0.2232  0.4833
 9611TIP3    H150248   0.661   1.947   4.437  0.4645 -0.7921 -0.1255
 9611TIP3    H250249   0.545   1.928   4.341  0.2634 -0.8132  0.1214
 9612TIP3   OH250250   2.035   5.542  17.077 -0.3742  0.1409 -0.4733
 9612TIP3    H150251   1.951   5.531  17.034  0.3288 -0.9353 -1.6646
 9612TIP3    H250252   2.027   5.493  17.159 -1.1453  0.6887 -0.2199
 9613TIP3   OH250253   2.527   3.313   3.251 -0.5377 -0.0282 -0.1194
 9613TIP3    H150254   2.489   3.276   3.330  1.3118 -0.2815  0.6998
 9613TIP3    H250255   2.524   3.242   3.187 -0.1125 -0.5054  0.3875
 9614TIP3   OH250256   2.619   1.325  16.423 -0.3776 -0.2565 -0.0506
 9614TIP3    H150257   2.653   1.252  16.371 -0.6374 -0.5879  0.2393
 9614TIP3    H250258   2.622   1.293  16.514  1.8049  0.9660  0.3850
 9615TIP3   OH250259   3.337   4.104   4.301  0.3972  0.0774  0.1256
 9615TIP3    H150260   3.300   4.101   4.213 -1.0732  1.6835  0.6179
 9615TIP3    H250261   3.356   4.013   4.323 -3.7535 -1.0441 -0.0650
 9616TIP3   OH250262   3.265   6.508  15.045 -0.3102  0.3028  0.4637
 9616TIP3    H150263   3.341   6.457  15.074 -0.2396 -0.2671 -0.6751
 9616TIP3    H250264   3.257   6.578  15.110  2.1290  1.3057 -0.2153
 9617TIP3   OH250265   0.781   1.014   5.369 -0.2944  0.8674 -0.4614
 9617TIP3    H150266   0.811   1.070   5.441  0.4983 -0.4935  0.2940
 9617TIP3    H250267   0.752   1.076   5.302  0.4647  2.1878  0.3788
 9618TIP3   OH250268   0.771   5.924   3.024 -0.4081  0.1124  0.1015
 9618TIP3    H150269   0.678   5.903   3.016 -0.1517 -0.4295 -2.8416
 9618TIP3    H250270   0.774   6.002   3.079 -2.5318 -0.1976  0.7369
 9619TIP3   OH250271   0.930   1.753   5.114 -0.2102  0.3251  0.1657
 9619TIP3    H150272   0.860   1.796   5.065 -0.7594 -2.3056 -1.5987
 9619TIP3    H250273   0.892   1.738   5.201 -1.0401  0.8706 -0.0872
 9620TIP3   OH250274   1.409   3.103   2.866 -0.3031 -0.1483  0.0445
 9620TIP3    H150275   1.427   3.156   2.944 -0.0532 -0.8110  0.4518
 9620TIP3    H250276   1.458   3.022   2.881 -2.6378 -1.5595  0.6445
 9621TIP3   OH250277   0.799   3.312   0.316  0.3119 -0.2756  0.7973
 9621TIP3    H150278   0.767   3.241   0.372 -0.3374 -0.4339  0.2328
 9621TIP3    H250279   0.765   3.392   0.357 -1.5553 -0.4899 -0.2563
 9622TIP3   OH250280   1.408   5.734  13.596 -0.1782  0.0155 -0.2816
 9622TIP3    H150281   1.343   5.779  13.543  1.2389  0.7735 -1.4394
 9622TIP3    H250282   1.400   5.641  13.572 -1.8051 -0.1310  0.7038
 9623TIP3   OH250283   3.374   2.089  15.163  0.0000  0.0756  0.6623
 9623TIP3    H150284   3.404   1.999  15.153  0.3036  0.2931 -0.5977
 9623TIP3    H250285   3.281   2.086  15.143 -0.0008  0.0295  0.6730
 9624TIP3   OH250286   6.555   0.687   2.367 -0.0234  0.5300  0.2403
 9624TIP3    H150287   6.555   0.592   2.362  1.0284  0.5902 -1.7466
 9624TIP3    H250288   6.596   0.706   2.452  0.3260 -0.7657  0.3890
 9625TIP3   OH250289   1.246   2.143   1.661 -0.4977  0.0863  0.1293
 9625TIP3    H150290   1.172   2.133   1.721  0.8762 -0.9715  1.7112
 9625TIP3    H250291   1.318   2.176   1.715  0.3281  0.7482 -1.3009
 9626TIP3   OH250292   6.714   4.105  15.559  0.3031  0.0715  0.3773
 9626TIP3    H150293   6.683   4.015  15.553  0.1442  0.0130  1.7107
 9626TIP3    H250294   6.643   4.152  15.604  1.2504  0.3948  1.5853
 9627TIP3   OH250295   2.128   4.649   5.203  0.1139 -0.4820  0.4077
 9627TIP3    H150296   2.049   4.629   5.253 -0.6596 -0.2582 -0.6887
 9627TIP3    H250297   2.186   4.576   5.220 -1.1029 -1.6618 -0.3089
 9628TIP3   OH250298   4.814   5.802  10.838  0.1269  0.2026  0.3150
 9628TIP3    H150299   4.732   5.806  10.789  1.4239 -0.3823 -2.0553
 9628TIP3    H250300   4.836   5.709  10.842  0.3122  0.2749  1.6640
 9629TIP3   OH250301   2.182   1.581   6.277 -0.5077 -0.3003  0.2651
 9629TIP3    H150302   2.252   1.557   6.217 -0.2935  1.4847 -0.2478
 9629TIP3    H250303   2.139   1.657   6.236 -1.4072 -0.0575  1.5676
 9630TIP3   OH250304   4.778   1.726  11.934  0.5624  0.1348 -0.2065
 9630TIP3    H150305   4.685   1.749  11.925 -0.0578 -1.8680  0.4437
 9630TIP3    H250306   4.792   1.661  11.865  2.1222  2.0287 -1.7597
 9631TIP3   OH250307   0.473   2.896  16.037  0.0087  0.2555  0.4597
 9631TIP3    H150308   0.521   2.965  15.991  0.5871  0.4560  1.3476
 9631TIP3    H250309   0.433   2.940  16.111 -1.3452  0.0353 -0.1021
 9632TIP3   OH250310   5.178   2.532  11.180  0.1840  0.8058 -0.1817
 9632TIP3    H150311   5.262   2.569  11.151  0.1330  0.9187 -0.1844
 9632TIP3    H250312   5.113   2.597  11.156  0.2060  1.1742  0.7189
 9633TIP3   OH250313   6.208   1.007  11.778 -0.3394  0.5832 -0.3637
 9633TIP3    H150314   6.281   1.067  11.789  1.3948 -1.3435 -0.6854
 9633TIP3    H250315   6.203   0.992  11.684  1.6238 -2.3609 -0.1410
 9634TIP3   OH250316   1.168   1.622   5.628  0.2121 -0.0164  0.2512
 9634TIP3    H150317   1.140   1.650   5.715 -1.8546 -0.1879 -0.3151
 9634TIP3    H250318   1.254   1.663   5.616  0.4584  0.1605  2.2774
 9635TIP3   OH250319   4.374   0.970   0.705  0.3806 -0.2747 -0.2582
 9635TIP3    H150320   4.406   1.018   0.628  0.7657 -0.9586 -0.5337
 9635TIP3    H250321   4.296   0.925   0.674  0.2568 -0.1597 -0.1134
 9636TIP3   OH250322   3.080   6.703  15.850 -0.8339  0.3382 -0.2135
 9636TIP3    H150323   3.036   6.787  15.862 -1.0066  0.2747 -0.4039
 9636TIP3    H250324   3.078   6.687  15.756 -1.0863 -0.0292 -0.1508
 9637TIP3   OH250325   4.828   2.908   6.173  0.3967  0.1695 -0.1771
 9637TIP3    H150326   4.807   2.817   6.193  1.8993  0.3100  2.4582
 9637TIP3    H250327   4.776   2.959   6.235  2.6376  0.8405  1.2500
 9638TIP3   OH250328   1.167   2.822  13.296 -1.0370 -0.2701  0.3181
 9638TIP3    H150329   1.180   2.902  13.347  0.8641 -2.1317  3.0626
 9638TIP3    H250330   1.093   2.778  13.337  1.0200 -2.1821  2.2254
 9639TIP3   OH250331   3.632   2.742  14.893 -0.2242  0.1396  0.5748
 9639TIP3    H150332   3.698   2.673  14.890 -0.6591 -0.2422 -0.5059
 9639TIP3    H250333   3.681   2.822  14.875 -0.2278 -0.3020 -1.6897
 9640TIP3   OH250334   4.167   1.426   5.443 -0.7423 -0.2111  0.0934
 9640TIP3    H150335   4.194   1.338   5.414  0.8245 -0.0901  1.0517
 9640TIP3    H250336   4.230   1.449   5.511 -0.1517  2.2936 -1.1661
 9641TIP3   OH250337   1.463   0.595   5.272 -1.1281 -0.4509 -0.1742
 9641TIP3    H150338   1.476   0.686   5.300 -1.7455 -0.8344  1.4610
 9641TIP3    H250339   1.376   0.595   5.231 -0.8413 -0.1903 -0.8072
 9642TIP3   OH250340   4.441   2.465  12.246 -0.2585  0.4894  0.2647
 9642TIP3    H150341   4.529   2.453  12.281 -0.1908  0.3902  0.0637
 9642TIP3    H250342   4.396   2.518  12.311  0.4331  1.9048 -0.3742
 9643TIP3   OH250343   6.549   0.013  11.449 -0.2492  0.6184  0.5049
 9643TIP3    H150344   6.640   0.041  11.442 -0.2757  0.2662 -2.1235
 9643TIP3    H250345   6.503   0.061  11.380 -1.6328 -0.7299  0.4360
 9644TIP3   OH250346   5.508   3.791   2.091  0.3162 -0.0899  0.0870
 9644TIP3    H150347   5.553   3.863   2.048 -0.2688  0.5659  0.5632
 9644TIP3    H250348   5.577   3.725   2.106  0.9125  0.4928 -0.0646
 9645TIP3   OH250349   1.561   0.264   2.487  0.5169 -0.1011  0.2186
 9645TIP3    H150350   1.509   0.315   2.549 -0.9354 -1.7825  0.4405
 9645TIP3    H250351   1.498   0.231   2.423  1.7944  0.4757 -1.4283
 9646TIP3   OH250352   6.407   1.353  15.455  0.1899  0.2695  0.0768
 9646TIP3    H150353   6.422   1.379  15.545  1.7474 -0.2985  0.0083
 9646TIP3    H250354   6.376   1.262  15.461  1.2838 -0.1176  0.0057
 9647TIP3   OH250355   4.150   1.878   4.374 -0.2360 -0.2133  0.6143
 9647TIP3    H150356   4.106   1.794   4.375  0.0758 -0.3816  0.3416
 9647TIP3    H250357   4.152   1.904   4.282 -0.0848 -0.0411  0.6637
 9648TIP3   OH250358   4.265   6.564  13.764  0.0165  0.5140 -0.6259
 9648TIP3    H150359   4.217   6.590  13.842 -0.7157 -1.3778 -0.3768
 9648TIP3    H250360   4.342   6.621  13.762  0.3287  0.2944  1.7794
 9649TIP3   OH250361   0.769   3.577  12.605 -0.0833  0.4575 -0.1067
 9649TIP3    H150362   0.789   3.641  12.674 -0.0735  2.6081 -2.0024
 9649TIP3    H250363   0.692   3.613  12.561 -0.0476 -0.8223 -1.2591
 9650TIP3   OH250364   4.799   1.358   5.240 -0.3210  0.1364  0.1708
 9650TIP3    H150365   4.705   1.351   5.256 -0.2490  0.4526  0.7535
 9650TIP3    H250366   4.832   1.411   5.312  0.8089 -2.6725  1.9167
 9651TIP3   OH250367   1.453   2.276  15.398 -0.5515 -0.1269  0.2143
 9651TIP3    H150368   1.483   2.279  15.489 -1.4074 -1.2277  0.5511
 9651TIP3    H250369   1.533   2.265  15.346 -0.1995 -1.1191  0.9525
 9652TIP3   OH250370   0.422   3.980  12.257 -0.5270  0.4642  0.1008
 9652TIP3    H150371   0.365   3.904  12.268  0.7929 -1.1873 -3.0890
 9652TIP3    H250372   0.507   3.952  12.291 -0.7417  1.7516  1.8456
 9653TIP3   OH250373   0.893   4.426  12.369 -0.4413 -0.5308  0.2091
 9653TIP3    H150374   0.943   4.471  12.436 -1.6597  0.6048  0.4017
 9653TIP3    H250375   0.900   4.333  12.391  0.2691 -0.2710  1.1106
 9654TIP3   OH250376   3.347   2.756   1.202  0.4643  0.1254  0.4169
 9654TIP3    H150377   3.293   2.687   1.241  0.9149  0.2408  1.2681
 9654TIP3    H250378   3.382   2.716   1.122 -0.0750 -0.2871  0.3770
 9655TIP3   OH250379   4.636   4.111  12.448 -0.4015 -0.4411  0.2026
 9655TIP3    H150380   4.655   4.088  12.539 -0.9200  0.5904  0.5794
 9655TIP3    H250381   4.717   4.147  12.414  0.3870 -2.5486 -0.3522
 9656TIP3   OH250382   2.775   4.976   3.066 -0.2643 -0.6513  0.2926
 9656TIP3    H150383   2.766   5.019   2.981  2.3751  0.9231  0.6859
 9656TIP3    H250384   2.737   5.038   3.129  1.4858  0.1710  0.6152
 9657TIP3   OH250385   0.160   6.691   2.353  0.3591  0.1665  0.5587
 9657TIP3    H150386   0.098   6.644   2.297  1.0968 -0.4492  0.2419
 9657TIP3    H250387   0.120   6.778   2.365 -0.3976 -0.1018  0.0933
 9658TIP3   OH250388   6.018   5.980  17.128  0.2340  0.1466  0.3736
 9658TIP3    H150389   5.985   6.054  17.075 -4.5900 -2.7244 -1.2838
 9658TIP3    H250390   6.099   5.954  17.084 -0.4548  1.5985 -1.9538
 9659TIP3   OH250391   3.855   5.388  16.715  0.0893  0.5375 -0.1897
 9659TIP3    H150392   3.949   5.371  16.709 -0.3357 -1.3828 -4.2632
 9659TIP3    H250393   3.842   5.467  16.662 -0.5794  0.9715  0.6038
 9660TIP3   OH250394   3.612   6.030   5.915  0.2199  0.1500  0.0726
 9660TIP3    H150395   3.693   6.057   5.870 -0.0384 -1.3446 -1.4260
 9660TIP3    H250396   3.595   6.100   5.977  0.9820  2.0627 -1.7190
 9661TIP3   OH250397   4.823   4.174  14.752  0.1197  0.0674  0.1089
 9661TIP3    H150398   4.887   4.240  14.781 -0.6029  0.9777 -0.3292
 9661TIP3    H250399   4.858   4.142  14.669 -0.1221  0.7762 -0.2774
 9662TIP3   OH250400   3.423   2.456  12.796  0.1410  0.4212  0.3743
 9662TIP3    H150401   3.404   2.498  12.880  0.7408  0.6096  0.4206
 9662TIP3    H250402   3.419   2.362  12.814  0.4316  0.4617  0.6545
 9663TIP3   OH250403   3.274   3.997   1.024 -0.0616  0.2136 -0.1357
 9663TIP3    H150404   3.193   3.950   1.044  0.2650 -0.0924  0.5089
 9663TIP3    H250405   3.321   3.938   0.965  0.7164 -0.6914  1.3133
 9664TIP3   OH250406   4.730   0.972   0.610  0.1603  0.4181  0.1954
 9664TIP3    H150407   4.677   0.918   0.668 -0.8530 -0.3218 -1.3425
 9664TIP3    H250408   4.820   0.952   0.634 -0.2189 -0.3616  1.0466
 9665TIP3   OH250409   5.776   6.173  14.673 -0.1233 -0.1178 -0.1992
 9665TIP3    H150410   5.855   6.226  14.662 -0.8378  0.5795 -2.6996
 9665TIP3    H250411   5.781   6.107  14.604 -1.1484 -0.7941  0.3510
 9666TIP3   OH250412   3.602   2.803  10.441  0.1091 -0.2703 -0.2944
 9666TIP3    H150413   3.695   2.817  10.460  0.2964 -1.5958 -0.1622
 9666TIP3    H250414   3.559   2.883  10.473  1.0912 -0.0163  0.4400
 9667TIP3   OH250415   1.899   0.823   3.619 -0.4219 -0.3427 -0.4554
 9667TIP3    H150416   1.804   0.826   3.603 -0.7478 -0.7576  1.2878
 9667TIP3    H250417   1.929   0.749   3.567 -1.0392 -0.2024 -1.0377
 9668TIP3   OH250418   2.925   5.034   5.102  0.2304 -0.0523 -0.1271
 9668TIP3    H150419   2.851   5.034   5.163  0.1186  1.6810 -0.2032
 9668TIP3    H250420   2.887   5.015   5.017 -0.1869  0.9961 -0.1914
 9669TIP3   OH250421   0.254   6.671  14.458  0.1567  0.2729  0.3561
 9669TIP3    H150422   0.305   6.673  14.377  0.8448  0.0155  0.7759
 9669TIP3    H250423   0.299   6.607  14.513 -0.5594  0.1235  0.7785
 9670TIP3   OH250424   5.791   3.041   6.027  0.2653 -0.4239  0.3509
 9670TIP3    H150425   5.780   3.048   6.122 -1.2681  1.4553  0.1037
 9670TIP3    H250426   5.701   3.046   5.992  0.7907 -1.1437 -1.2061
 9671TIP3   OH250427   6.243   6.377  12.437 -0.5134  0.6701 -0.0866
 9671TIP3    H150428   6.247   6.353  12.530 -0.2966  0.0944 -0.2401
 9671TIP3    H250429   6.224   6.294  12.392 -0.7683  0.9742 -0.5424
 9672TIP3   OH250430   4.693   2.317  15.254 -0.0466 -0.0870  0.6308
 9672TIP3    H150431   4.742   2.353  15.327 -0.5231 -0.6082  1.2131
 9672TIP3    H250432   4.603   2.309  15.286 -0.5508  0.9289 -0.4417
 9673TIP3   OH250433   1.555   3.282   6.143  0.0267  0.0981  0.1242
 9673TIP3    H150434   1.577   3.315   6.230  2.0881 -1.0280  0.0863
 9673TIP3    H250435   1.569   3.188   6.149  0.2019  0.0084 -1.4286
 9674TIP3   OH250436   6.307   3.807   3.102 -0.3734 -0.1114  0.1445
 9674TIP3    H150437   6.337   3.874   3.040  0.0879  0.9089  1.4065
 9674TIP3    H250438   6.372   3.810   3.172 -0.9596 -1.1351  0.7526
 9675TIP3   OH250439   1.676   4.635  15.751 -0.5084 -0.2489 -0.3015
 9675TIP3    H150440   1.625   4.709  15.785 -0.5312 -0.5958  0.4356
 9675TIP3    H250441   1.754   4.632  15.807  0.2979  0.2191 -1.3608
 9676TIP3   OH250442   3.859   6.725  14.017 -0.9702  0.7990  0.0805
 9676TIP3    H150443   3.862   6.819  14.030 -0.7566  1.1304 -2.0245
 9676TIP3    H250444   3.837   6.714  13.925  1.4092 -1.1508 -0.3691
 9677TIP3   OH250445   2.052   1.520  12.121 -0.5305 -0.1515 -0.0335
 9677TIP3    H150446   2.136   1.499  12.163 -0.3143  0.8331  0.0622
 9677TIP3    H250447   1.992   1.536  12.194 -0.0857  1.8291 -0.0375
 9678TIP3   OH250448   3.247   4.467  13.154 -0.2327  0.0356 -0.1086
 9678TIP3    H150449   3.236   4.375  13.177  0.3691  0.0787  0.4014
 9678TIP3    H250450   3.327   4.494  13.200  0.0888  0.5833 -0.9539
 9679TIP3   OH250451   6.034   6.088  11.239 -0.6967  0.6900  0.1356
 9679TIP3    H150452   6.060   6.027  11.170 -1.8990  1.6942 -1.2481
 9679TIP3    H250453   6.100   6.157  11.237  1.1426 -0.8477  2.2537
 9680TIP3   OH250454   2.763   6.561  12.858 -0.4949  0.0784 -0.2673
 9680TIP3    H150455   2.735   6.525  12.774 -0.7692  1.1342 -0.6424
 9680TIP3    H250456   2.693   6.621  12.882  0.0438  0.5051  0.2461
 9681TIP3   OH250457   5.303   0.394   5.146  0.2948 -0.0074 -0.1014
 9681TIP3    H150458   5.229   0.431   5.098 -0.5691  1.2770  2.1044
 9681TIP3    H250459   5.376   0.453   5.128  0.1066  0.2016 -0.1750
 9682TIP3   OH250460   2.314   5.257   4.943  0.3500 -0.2756 -0.1059
 9682TIP3    H150461   2.402   5.285   4.966  0.3521 -0.6889  0.4136
 9682TIP3    H250462   2.273   5.334   4.904  0.7017  0.1352  0.3250
 9683TIP3   OH250463   6.120   3.275   2.898  0.0798 -0.2719 -0.1170
 9683TIP3    H150464   6.099   3.188   2.866 -0.4772 -0.2913  0.2892
 9683TIP3    H250465   6.130   3.265   2.992  1.0976 -0.0981 -0.1990
 9684TIP3   OH250466   2.073   2.627  14.978 -0.1690  0.1700 -0.0400
 9684TIP3    H150467   1.989   2.673  14.981 -0.3818 -0.0190 -1.8150
 9684TIP3    H250468   2.106   2.630  15.068 -3.1241 -1.7279  1.2699
 9685TIP3   OH250469   3.487   3.495  14.605 -0.2759  0.2427 -0.1729
 9685TIP3    H150470   3.490   3.573  14.550 -0.1791 -0.7869 -1.6855
 9685TIP3    H250471   3.433   3.433  14.556  0.5866 -1.0417  0.4363
 9686TIP3   OH250472   4.667   5.631  16.994  0.6355 -0.1738 -0.2182
 9686TIP3    H150473   4.677   5.670  16.907  1.5271 -1.2920 -0.6499
 9686TIP3    H250474   4.600   5.684  17.037 -0.5041 -0.1675 -1.9189
 9687TIP3   OH250475   2.446   0.302  16.550  0.0977 -0.2127 -0.1747
 9687TIP3    H150476   2.533   0.338  16.564  1.3529 -2.8610 -0.5316
 9687TIP3    H250477   2.393   0.338  16.621  1.9032  0.1851  1.0378
 9688TIP3   OH250478   6.584   4.741   6.113  0.3859 -0.4362 -0.0849
 9688TIP3    H150479   6.499   4.756   6.071  0.4130 -0.0721 -0.0099
 9688TIP3    H250480   6.566   4.749   6.206  0.5446 -0.1311 -0.0785
 9689TIP3   OH250481   5.145   5.726  14.843  0.5440 -0.6678  0.2589
 9689TIP3    H150482   5.129   5.632  14.838 -0.5657 -0.4660 -0.4457
 9689TIP3    H250483   5.182   5.740  14.930 -0.2168 -1.6349  0.7516
 9690TIP3   OH250484   0.835   4.230  17.002 -0.2915  0.1186 -0.0097
 9690TIP3    H150485   0.923   4.242  16.966  0.7474 -0.5223  2.1621
 9690TIP3    H250486   0.824   4.304  17.062 -1.7384  0.8380 -1.1050
 9691TIP3   OH250487   4.008   1.246   0.380 -0.4396 -0.0630  0.2257
 9691TIP3    H150488   3.987   1.247   0.286 -0.5235 -0.4224  0.2395
 9691TIP3    H250489   3.923   1.247   0.423 -0.4297  2.1998  0.3435
 9692TIP3   OH250490   1.728   1.866   0.423 -0.1537 -0.1923  0.4532
 9692TIP3    H150491   1.773   1.879   0.340 -2.3585  0.6302 -0.7062
 9692TIP3    H250492   1.768   1.928   0.483  0.3115  0.4449 -0.5032
 9693TIP3   OH250493   3.123   0.780  14.533  0.3490 -0.0051 -0.2842
 9693TIP3    H150494   3.110   0.856  14.476  0.6416  1.3249  1.3502
 9693TIP3    H250495   3.083   0.805  14.616  0.3101 -1.7256  0.2533
 9694TIP3   OH250496   3.901   5.489  13.694  0.1758  0.0581  0.0428
 9694TIP3    H150497   3.962   5.562  13.690 -0.7240  0.7715 -3.1524
 9694TIP3    H250498   3.837   5.516  13.760 -1.4182  3.4142 -2.5262
 9695TIP3   OH250499   1.516   6.751  14.095 -0.1839  0.3955 -0.2882
 9695TIP3    H150500   1.600   6.738  14.052 -0.1750  1.4495 -0.6107
 9695TIP3    H250501   1.521   6.838  14.133  0.6333 -1.2480  3.8699
 9696TIP3   OH250502   2.736   4.383  15.663 -0.2299 -0.6211 -0.1780
 9696TIP3    H150503   2.780   4.379  15.748 -2.3934 -0.2501  1.0311
 9696TIP3    H250504   2.780   4.316  15.611  0.5984 -1.4733  1.5095
 9697TIP3   OH250505   2.479   3.683   1.364  0.2155 -0.3775  0.1251
 9697TIP3    H150506   2.551   3.651   1.419  1.6396  0.2708 -1.2899
 9697TIP3    H250507   2.507   3.769   1.335  0.5013 -1.4453 -3.2034
 9698TIP3   OH250508   5.743   4.384  12.331 -0.2747  0.1103  0.6054
 9698TIP3    H150509   5.718   4.475  12.349 -0.8334  0.3373 -1.1669
 9698TIP3    H250510   5.691   4.359  12.255  1.9378 -0.7462 -0.7079
 9699TIP3   OH250511   3.675   3.370   1.457  0.2816  0.3287  0.1305
 9699TIP3    H150512   3.730   3.331   1.526  0.6463  0.3600 -0.1398
 9699TIP3    H250513   3.713   3.338   1.375 -1.5570 -1.6459 -0.0413
 9700TIP3   OH250514   5.177   3.989  13.823 -0.0140  0.1652  0.2748
 9700TIP3    H150515   5.184   3.897  13.846 -2.2353 -0.1005  0.1007
 9700TIP3    H250516   5.083   4.005  13.814  0.3564  2.2107 -0.6665
 9701TIP3   OH250517   4.175   2.855  13.958  0.5006  0.0702 -0.9021
 9701TIP3    H150518   4.160   2.795  13.885  0.7086  0.8039 -1.5612
 9701TIP3    H250519   4.143   2.939  13.927 -1.1682  0.0244  0.5559
 9702TIP3   OH250520   3.716   0.605   5.658 -0.7653 -0.4182  0.0287
 9702TIP3    H150521   3.810   0.587   5.662 -0.6027  0.3814  0.0091
 9702TIP3    H250522   3.679   0.559   5.734 -0.4087 -1.0020 -0.1469
 9703TIP3   OH250523   3.192   1.037  11.362  0.2801 -0.0420  0.0039
 9703TIP3    H150524   3.183   0.946  11.335  0.1718  0.0102 -0.1343
 9703TIP3    H250525   3.122   1.049  11.427  1.2820 -0.5064  1.1996
 9704TIP3   OH250526   1.441   6.488  14.923 -0.3985  0.1602  0.0561
 9704TIP3    H150527   1.367   6.545  14.941 -0.1643  0.5832 -0.3275
 9704TIP3    H250528   1.441   6.475  14.828 -0.6040 -0.6888  0.1594
 9705TIP3   OH250529   3.787   2.270   0.012  0.4321  0.0468  0.8610
 9705TIP3    H150530   3.877   2.261   0.045 -0.6287 -0.5612  3.9213
 9705TIP3    H250531   3.765   2.183  -0.021  1.4455  0.6112 -1.4862
 9706TIP3   OH250532   1.389   2.974  16.129  0.3794 -0.0593  0.1619
 9706TIP3    H150533   1.394   2.903  16.192 -0.1770  0.2846  0.6063
 9706TIP3    H250534   1.300   3.008  16.139  0.3019  0.0349 -0.7702
 9707TIP3   OH250535   1.974   4.655  16.150 -0.2102 -0.2375 -0.2415
 9707TIP3    H150536   2.042   4.631  16.213  1.2592 -1.5851 -2.2343
 9707TIP3    H250537   1.909   4.586  16.157 -0.3678 -0.0459  0.2198
 9708TIP3   OH250538   0.725   3.713  16.249  0.1394  0.1626  0.4634
 9708TIP3    H150539   0.801   3.690  16.302 -0.4859 -1.0806  0.8540
 9708TIP3    H250540   0.719   3.643  16.184 -1.5688 -0.6353  1.4190
 9709TIP3   OH250541   5.851   4.130  14.193  0.0849 -0.3420  0.1142
 9709TIP3    H150542   5.886   4.214  14.163  0.8091  0.6508  3.3888
 9709TIP3    H250543   5.927   4.073  14.198 -0.1763 -0.7770 -0.7016
 9710TIP3   OH250544   0.616   2.676  15.020 -0.0998  0.4648 -0.4310
 9710TIP3    H150545   0.579   2.746  15.074  0.5416  0.1514  0.4510
 9710TIP3    H250546   0.598   2.702  14.930 -1.7887  0.6682 -0.0522
 9711TIP3   OH250547   5.103   1.067  14.246  0.6744 -0.4159  0.6066
 9711TIP3    H150548   5.189   1.031  14.224  1.2944  1.2939  0.1053
 9711TIP3    H250549   5.092   1.141  14.187 -1.0511 -0.4491  0.8308
 9712TIP3   OH250550   6.429   0.090  16.996  0.6105 -0.7374 -0.2617
 9712TIP3    H150551   6.458   0.144  17.070 -1.0324  0.4759 -0.4517
 9712TIP3    H250552   6.446   0.000  17.024  0.8225 -0.2522  1.2515
 9713TIP3   OH250553   5.636   6.305  15.877  0.1988  0.2970 -0.0305
 9713TIP3    H150554   5.695   6.380  15.867  1.1321 -0.3184  0.7347
 9713TIP3    H250555   5.669   6.239  15.817  1.9101 -1.0025  2.1887
 9714TIP3   OH250556   2.952   4.158  13.204  0.0453  0.5122  0.6094
 9714TIP3    H150557   2.977   4.067  13.187 -2.7819 -0.0091 -1.6937
 9714TIP3    H250558   3.032   4.208  13.190  1.1821 -1.4379 -0.3091
 9715TIP3   OH250559   5.724   1.759  12.352  0.1945 -0.1188 -0.2971
 9715TIP3    H150560   5.819   1.770  12.346  0.1782  0.5955  0.6087
 9715TIP3    H250561   5.712   1.696  12.422  0.0442 -1.4278 -1.4687
 9716TIP3   OH250562   5.019   5.295   2.135  0.0914  0.5490  0.3665
 9716TIP3    H150563   4.964   5.316   2.059 -0.7482 -0.3335  0.7041
 9716TIP3    H250564   5.108   5.297   2.101 -0.2042  1.1161 -0.4122
 9717TIP3   OH250565   4.398   4.456   1.707 -0.3000  0.1835  0.1552
 9717TIP3    H150566   4.313   4.455   1.752 -0.0643 -0.6177  0.6004
 9717TIP3    H250567   4.440   4.536   1.738 -1.8917  2.0103 -2.0359
 9718TIP3   OH250568   3.377   1.617  16.550 -0.3070 -0.1573 -0.2295
 9718TIP3    H150569   3.399   1.573  16.468 -0.5067 -0.1652 -0.2781
 9718TIP3    H250570   3.330   1.552  16.601  0.3796 -0.3670  0.1566
 9719TIP3   OH250571   3.518   6.269   5.469 -0.0389  0.3211 -0.3522
 9719TIP3    H150572   3.423   6.268   5.453 -0.0177 -0.6457 -0.4257
 9719TIP3    H250573   3.533   6.201   5.533  0.6689  0.1640 -0.6740
 9720TIP3   OH250574   5.846   6.742   3.416 -0.0396  0.0573 -0.0575
 9720TIP3    H150575   5.890   6.827   3.419  0.0571  0.0486 -0.8237
 9720TIP3    H250576   5.914   6.682   3.386  0.7391 -0.9032  3.2403
 9721TIP3   OH250577   1.931   5.498   3.050 -1.1006  0.0570 -0.7381
 9721TIP3    H150578   1.918   5.403   3.058 -0.5583 -0.0123 -0.6606
 9721TIP3    H250579   1.847   5.536   3.076 -1.7620 -0.4456 -2.0280
 9722TIP3   OH250580   3.732   3.075  15.669  0.3025  0.2408  0.6622
 9722TIP3    H150581   3.657   3.128  15.696  0.3696  1.3958 -1.1912
 9722TIP3    H250582   3.705   2.985  15.685 -0.4519  0.7356  2.4145
 9723TIP3   OH250583   0.604   1.443   0.797  0.3271 -0.3780  0.0422
 9723TIP3    H150584   0.539   1.405   0.738  1.1639 -2.0946  0.1525
 9723TIP3    H250585   0.685   1.443   0.747  0.4478  0.8500  0.2262
 9724TIP3   OH250586   2.618   4.125  11.943 -0.1160 -0.4883 -0.1956
 9724TIP3    H150587   2.631   4.039  11.984 -2.2224 -0.3061  1.0134
 9724TIP3    H250588   2.563   4.173  12.005 -0.5435  1.0699 -1.6917
 9725TIP3   OH250589   6.769   6.701   2.153  0.2748  0.5972  0.0822
 9725TIP3    H150590   6.693   6.675   2.101  0.7301 -1.6535  0.4246
 9725TIP3    H250591   6.826   6.746   2.091  0.1319 -0.6989 -1.0442
 9726TIP3   OH250592   0.945   4.279   3.750 -0.7524 -0.2782 -0.1191
 9726TIP3    H150593   0.943   4.218   3.823  0.0903 -0.5890 -0.3417
 9726TIP3    H250594   0.938   4.223   3.672 -0.7082 -0.0340 -0.3002
 9727TIP3   OH250595   4.821   5.240  17.031  0.2270  0.2971 -0.2790
 9727TIP3    H150596   4.894   5.301  17.033 -0.0440  0.6108  0.3284
 9727TIP3    H250597   4.818   5.203  17.120 -0.5631  0.5462 -0.1941
 9728TIP3   OH250598   1.837   5.594   4.334  0.3946 -0.0358 -0.1175
 9728TIP3    H150599   1.797   5.671   4.374  2.6299  1.5878 -0.8122
 9728TIP3    H250600   1.838   5.528   4.404 -0.6330  0.9047  0.8160
 9729TIP3   OH250601   2.854   0.069   4.091 -0.2396  0.3587 -0.4511
 9729TIP3    H150602   2.823   0.020   4.167  0.5574 -1.3026 -1.1488
 9729TIP3    H250603   2.777   0.076   4.034  0.4042 -3.9022 -2.2630
 9730TIP3   OH250604   4.510   2.562   4.805 -0.0430 -0.2163  0.5022
 9730TIP3    H150605   4.476   2.639   4.760 -0.2094  0.7683  2.2083
 9730TIP3    H250606   4.570   2.598   4.871 -0.8082 -1.4630  1.9368
 9731TIP3   OH250607   3.511   0.349  16.860  0.2103 -0.3866 -0.5691
 9731TIP3    H150608   3.542   0.288  16.928 -2.5221 -0.4036  0.8345
 9731TIP3    H250609   3.515   0.435  16.901 -0.0176 -0.2004 -0.9319
 9732TIP3   OH250610   6.804   1.676   1.050 -0.0689 -0.0267  0.3769
 9732TIP3    H150611   6.744   1.712   1.115 -0.3380 -0.1871  0.2144
 9732TIP3    H250612   6.773   1.587   1.035 -1.4202  0.7378 -1.6941
 9733TIP3   OH250613   0.182   2.014   2.046  0.3539 -0.0799  0.1816
 9733TIP3    H150614   0.104   1.983   2.092  1.1337 -1.5894  0.5559
 9733TIP3    H250615   0.162   2.001   1.953  0.9986 -2.7845  0.3271
 9734TIP3   OH250616   0.194   5.500   0.827 -0.0745 -0.5579 -0.0181
 9734TIP3    H150617   0.241   5.488   0.910 -0.3632 -0.9436  0.0935
 9734TIP3    H250618   0.166   5.592   0.828  1.9342  0.1304 -0.7573
 9735TIP3   OH250619   2.994   0.339  15.259 -0.0020  0.5378  0.1604
 9735TIP3    H150620   3.044   0.291  15.192 -1.4367 -2.3018  0.9538
 9735TIP3    H250621   2.940   0.400  15.209  1.9583  1.5060 -0.9046
 9736TIP3   OH250622   1.789   2.206   6.040 -0.2941 -0.7352  0.0783
 9736TIP3    H150623   1.748   2.126   6.072 -0.0679 -0.6100  0.6878
 9736TIP3    H250624   1.730   2.276   6.067  0.2013 -0.5757  0.7572
 9737TIP3   OH250625   3.472   2.200  13.009  0.1260  0.0379  0.4808
 9737TIP3    H150626   3.562   2.208  13.042 -0.2219 -0.3152  1.5431
 9737TIP3    H250627   3.471   2.117  12.961  0.4088  0.1327  0.3054
 9738TIP3   OH250628   6.786   5.866  16.604 -0.5439 -0.5207  0.1065
 9738TIP3    H150629   6.876   5.891  16.627 -0.3604 -1.3481  0.3203
 9738TIP3    H250630   6.785   5.771  16.611 -0.8647 -0.7225 -1.9290
 9739TIP3   OH250631   1.937   0.779   1.266  0.2816  0.0073  0.6000
 9739TIP3    H150632   1.881   0.701   1.255 -0.8892  0.8548  0.3452
 9739TIP3    H250633   1.919   0.833   1.189  0.2742  1.0063  1.2827
 9740TIP3   OH250634   1.652   4.462   2.880  1.1960 -0.1525 -0.0189
 9740TIP3    H150635   1.663   4.550   2.916  0.6480  0.8367 -2.1218
 9740TIP3    H250636   1.570   4.465   2.832  1.0358 -1.9195  0.0623
 9741TIP3   OH250637   3.757   6.042  16.413 -0.5361 -0.4947 -0.2108
 9741TIP3    H150638   3.719   6.110  16.356  0.1908 -0.1382 -0.2860
 9741TIP3    H250639   3.825   6.001  16.359 -1.6275 -1.9867 -0.5191
 9742TIP3   OH250640   4.524   1.271  16.781  0.1914  0.0791 -0.6425
 9742TIP3    H150641   4.444   1.219  16.791 -0.0163  0.6202  0.9295
 9742TIP3    H250642   4.593   1.217  16.820  0.0990  0.6573  0.3613
 9743TIP3   OH250643   1.841   3.295  14.870 -0.4842  0.2514  0.1183
 9743TIP3    H150644   1.922   3.281  14.821 -1.4245 -0.8671 -1.1553
 9743TIP3    H250645   1.870   3.337  14.952  1.2986  0.4380 -0.5686
 9744TIP3   OH250646   6.368   4.138   3.800  0.0187  0.1932 -0.3786
 9744TIP3    H150647   6.385   4.049   3.767  0.7151  0.0405  0.3630
 9744TIP3    H250648   6.440   4.190   3.765  0.7550  0.0348  0.8403
 9745TIP3   OH250649   4.978   2.711   3.455  0.5456 -0.8664 -0.7111
 9745TIP3    H150650   4.943   2.622   3.464  1.4046 -1.1427  0.0484
 9745TIP3    H250651   5.018   2.730   3.540  0.0456  0.3969 -0.7409
 9746TIP3   OH250652   1.852   6.671  15.508 -0.1799 -0.3347  0.2887
 9746TIP3    H150653   1.878   6.699  15.595 -1.3370 -1.4652  1.0293
 9746TIP3    H250654   1.823   6.581  15.519  2.5173 -1.5781 -1.8260
 9747TIP3   OH250655   5.918   3.034   3.585 -0.3533  0.5500  0.0393
 9747TIP3    H150656   5.927   2.990   3.500  1.8476  0.0396  0.4812
 9747TIP3    H250657   5.988   3.099   3.586 -1.0243  1.2721  1.0504
 9748TIP3   OH250658   6.578   5.750  15.030  0.0536  0.6235  0.1914
 9748TIP3    H150659   6.582   5.679  14.967 -1.8748 -0.4886  1.2174
 9748TIP3    H250660   6.587   5.830  14.977 -1.8222 -0.2432 -1.5929
 9749TIP3   OH250661   4.422   6.292  12.940 -0.0480 -0.3728 -0.0180
 9749TIP3    H150662   4.407   6.285  12.846 -2.0295  3.1133 -0.1295
 9749TIP3    H250663   4.352   6.240  12.979 -2.1380  1.7813 -0.6127
 9750TIP3   OH250664   4.493   6.026   2.736  0.1212  0.3408 -0.0894
 9750TIP3    H150665   4.576   6.041   2.781 -0.2367  3.2343 -0.2281
 9750TIP3    H250666   4.506   6.061   2.648 -1.1590  0.6662 -0.1787
 9751TIP3   OH250667   0.809   2.620  14.655 -0.3271 -0.8124 -0.2649
 9751TIP3    H150668   0.789   2.691  14.716 -1.8071 -1.3446 -0.1088
 9751TIP3    H250669   0.900   2.596  14.676  0.2481  1.0805 -0.3893
 9752TIP3   OH250670   1.934   6.422  14.226 -0.0122  0.3896 -0.5523
 9752TIP3    H150671   1.979   6.504  14.204  1.9555 -0.8291 -1.3432
 9752TIP3    H250672   1.985   6.385  14.298 -0.2635 -0.6052 -0.8711
 9753TIP3   OH250673   2.218   1.495   0.047  0.2111  0.3279 -0.1344
 9753TIP3    H150674   2.162   1.444   0.105  2.7132  0.3788  2.5973
 9753TIP3    H250675   2.172   1.496  -0.037 -1.9484 -2.8109  0.8329
 9754TIP3   OH250676   1.843   6.642   1.887 -0.3303 -0.1154 -0.8035
 9754TIP3    H150677   1.789   6.674   1.959  0.3634 -2.1538  0.7262
 9754TIP3    H250678   1.809   6.554   1.869  1.9360 -1.1616 -0.2964
 9755TIP3   OH250679   3.898   4.422   1.931 -0.6110 -0.3646  0.0097
 9755TIP3    H150680   3.944   4.443   1.850 -0.5618 -2.9473 -0.7322
 9755TIP3    H250681   3.812   4.463   1.921 -0.5240 -0.4681 -1.2527
 9756TIP3   OH250682   2.531   4.097  17.089  0.2014  0.5614  0.1023
 9756TIP3    H150683   2.520   4.170  17.150  1.3583 -0.4256  1.5897
 9756TIP3    H250684   2.479   4.026  17.127 -3.7239  1.3773 -3.0607
 9757TIP3   OH250685   4.338   6.137  13.612 -0.0639  0.6600 -0.0605
 9757TIP3    H150686   4.313   6.054  13.573 -0.9802  0.1940  1.4566
 9757TIP3    H250687   4.355   6.195  13.537  0.0665 -0.7203 -1.1265
 9758TIP3   OH250688   2.802   0.147   2.265 -0.0809 -0.0178  0.1588
 9758TIP3    H150689   2.812   0.078   2.330  0.2849 -0.9187 -0.8245
 9758TIP3    H250690   2.878   0.137   2.208 -0.4965  0.6306 -0.5232
 9759TIP3   OH250691   5.334   2.422   3.524 -0.3891  0.3900 -0.3794
 9759TIP3    H150692   5.282   2.427   3.604 -2.5951 -0.4693 -1.6636
 9759TIP3    H250693   5.389   2.500   3.526 -2.9630  2.3085  0.2840
 9760TIP3   OH250694   2.989   2.052   5.281  0.1545  0.2800 -0.2040
 9760TIP3    H150695   2.940   2.051   5.363  0.6855  0.3104  0.1236
 9760TIP3    H250696   2.957   1.976   5.232 -1.4068  1.2535 -0.7308
 9761TIP3   OH250697   5.261   0.243  15.836 -0.1885 -0.4417  0.2539
 9761TIP3    H150698   5.349   0.214  15.860 -0.1641  1.4048  2.8342
 9761TIP3    H250699   5.274   0.329  15.797 -0.8137 -0.2676  0.4161
 9762TIP3   OH250700   3.649   2.636   2.372  0.1883  0.1684  0.6340
 9762TIP3    H150701   3.737   2.673   2.363  0.1793 -0.3601 -3.5884
 9762TIP3    H250702   3.595   2.686   2.310 -1.5362 -2.0457  0.2078
 9763TIP3   OH250703   5.227   3.771   3.723 -0.3167 -0.7084  0.3848
 9763TIP3    H150704   5.236   3.787   3.629 -1.0534 -0.9980  0.2571
 9763TIP3    H250705   5.264   3.850   3.764 -0.2432 -0.4578 -0.1520
 9764TIP3   OH250706   4.487   4.526  12.392 -0.4757  0.1986  0.6638
 9764TIP3    H150707   4.534   4.530  12.476 -0.3988 -1.9197  0.7670
 9764TIP3    H250708   4.403   4.485  12.414 -0.1274 -1.1312 -0.3952
 9765TIP3   OH250709   4.622   2.711   4.997 -0.3304  0.4512 -0.5072
 9765TIP3    H150710   4.696   2.764   4.967 -1.4725  2.3291 -0.2059
 9765TIP3    H250711   4.648   2.680   5.084  0.3965  0.4626 -0.7146
 9766TIP3   OH250712   0.854   0.643   6.491 -0.8996 -0.1733  0.0900
 9766TIP3    H150713   0.902   0.658   6.409 -0.8452 -2.0308 -0.2478
 9766TIP3    H250714   0.844   0.548   6.497 -0.9129 -0.0841  2.2535
 9767TIP3   OH250715   6.649   6.597  11.285 -0.1344 -0.0011 -0.1714
 9767TIP3    H150716   6.607   6.637  11.361 -0.3800  0.1787 -0.4008
 9767TIP3    H250717   6.581   6.543  11.245  0.5912 -1.8583  0.9785
 9768TIP3   OH250718   3.259   4.170  13.241 -0.1369  0.2809 -0.0359
 9768TIP3    H150719   3.275   4.075  13.236 -0.0230  0.2896  0.1530
 9768TIP3    H250720   3.219   4.183  13.326  0.4302  0.4828  0.2046
 9769TIP3   OH250721   5.747   0.059   5.188 -0.2692 -0.3154 -0.6098
 9769TIP3    H150722   5.786   0.008   5.117  1.1285  0.9911 -0.8339
 9769TIP3    H250723   5.725   0.143   5.147  1.9878  1.0291  0.7960
 9770TIP3   OH250724   5.187   5.923   0.355 -0.0388  0.6995 -0.1630
 9770TIP3    H150725   5.199   5.944   0.448 -0.6876 -3.1612  0.9568
 9770TIP3    H250726   5.132   5.994   0.322 -1.8726  0.9774  3.0479
 9771TIP3   OH250727   6.371   2.441  12.955  0.4941 -0.3842  0.4445
 9771TIP3    H150728   6.454   2.483  12.932  0.9502 -1.6886 -0.4200
 9771TIP3    H250729   6.397   2.357  12.994 -0.4069 -0.3726  1.0904
 9772TIP3   OH250730   0.391   4.289   1.316  0.8828 -0.6181  0.0585
 9772TIP3    H150731   0.439   4.334   1.385  1.2309  0.2715 -0.7439
 9772TIP3    H250732   0.456   4.232   1.274  0.4934 -1.7455  0.9337
 9773TIP3   OH250733   0.013   3.235  15.839  0.4219 -0.0514  0.3057
 9773TIP3    H150734   0.038   3.326  15.822  0.5671  0.1137  1.3738
 9773TIP3    H250735  -0.081   3.240  15.859  0.1368 -0.3110 -0.8853
 9774TIP3   OH250736   5.545   4.651   3.151 -0.1535 -0.4127 -0.0892
 9774TIP3    H150737   5.563   4.572   3.100  0.2285  0.7480 -1.8118
 9774TIP3    H250738   5.519   4.717   3.087  0.0798  1.0451  1.2324
 9775TIP3   OH250739   4.843   3.785  17.104 -0.3090  0.5926  0.1714
 9775TIP3    H150740   4.756   3.798  17.066 -0.6437  1.3124  1.1345
 9775TIP3    H250741   4.900   3.842  17.052 -0.3285 -0.1684 -0.7098
 9776TIP3   OH250742   2.721   4.598   2.881  0.3359  0.9502 -0.0300
 9776TIP3    H150743   2.787   4.565   2.941  0.4313 -1.3224 -1.2774
 9776TIP3    H250744   2.770   4.624   2.803 -0.0814  0.7335 -0.3692
 9777TIP3   OH250745   6.561   6.137  14.381  0.2424  0.3449 -0.2629
 9777TIP3    H150746   6.477   6.156  14.421  0.1553  0.0689 -0.3137
 9777TIP3    H250747   6.546   6.148  14.287  0.0508 -0.4730 -0.3382
 9778TIP3   OH250748   1.275   4.146   0.043  0.6874  0.0377 -0.0182
 9778TIP3    H150749   1.280   4.240   0.022  1.6778  0.1214  0.5192
 9778TIP3    H250750   1.201   4.114  -0.009 -0.5133  1.3815  0.7879
 9779TIP3   OH250751   2.021   5.669   4.957 -0.0141 -0.3618  0.1756
 9779TIP3    H150752   1.930   5.642   4.943 -0.7638  1.5343  1.0559
 9779TIP3    H250753   2.033   5.667   5.051  0.9953 -0.9274  0.0501
 9780TIP3   OH250754   0.799   0.649  15.553 -0.7097  0.7432 -0.0108
 9780TIP3    H150755   0.826   0.656  15.462  1.4089 -0.3783  0.4812
 9780TIP3    H250756   0.854   0.712  15.600 -2.4296  2.0021  0.4256
 9781TIP3   OH250757   5.749   1.574   0.763 -0.3046  0.1309  0.2492
 9781TIP3    H150758   5.801   1.494   0.753 -0.0564  0.2519  0.5567
 9781TIP3    H250759   5.670   1.558   0.711 -0.3487 -0.3967  0.4711
 9782TIP3   OH250760   3.784   6.111  12.931  0.3570  0.3024  1.0289
 9782TIP3    H150761   3.825   6.164  12.999 -1.2837  1.9956  0.7821
 9782TIP3    H250762   3.693   6.101  12.961 -0.0845  0.0952 -0.3398
 9783TIP3   OH250763   1.128   6.447   3.429 -0.6620 -0.0010  0.4990
 9783TIP3    H150764   1.166   6.461   3.342 -1.0068 -0.4611  0.2707
 9783TIP3    H250765   1.186   6.496   3.488 -0.5847  0.5500 -0.0167
 9784TIP3   OH250766   5.099   4.714  14.352 -0.2990  0.2669  0.1571
 9784TIP3    H150767   5.023   4.657  14.364  0.5160 -0.6677  1.0869
 9784TIP3    H250768   5.105   4.727  14.257 -1.6553  0.4276  0.0812
 9785TIP3   OH250769   5.122   3.762  16.269  0.7073  0.5946  0.6493
 9785TIP3    H150770   5.210   3.737  16.295  0.8696  0.6827  0.1810
 9785TIP3    H250771   5.098   3.832  16.331  0.5127 -0.2270  1.5253
 9786TIP3   OH250772   6.789   5.872   5.481 -0.0919 -0.4910 -0.2806
 9786TIP3    H150773   6.694   5.867   5.493  0.0302 -0.0763  1.0683
 9786TIP3    H250774   6.801   5.940   5.415 -0.6996  0.4695  0.5642
 9787TIP3   OH250775   1.048   3.938  14.186  0.1128  0.0539 -0.0845
 9787TIP3    H150776   1.028   4.031  14.186 -0.8296 -0.1382 -0.1450
 9787TIP3    H250777   1.138   3.933  14.218 -1.0450  0.7450  3.8813
 9788TIP3   OH250778   6.119   3.666  16.602 -0.2198  0.5560  0.1790
 9788TIP3    H150779   6.127   3.635  16.512  0.3699  1.1040  0.0421
 9788TIP3    H250780   6.205   3.654  16.640 -0.0461  1.7409  0.2080
 9789TIP3   OH250781   0.584   4.203  15.432 -0.6063  0.0646 -0.4642
 9789TIP3    H150782   0.555   4.133  15.491  0.9380  1.4570  2.0824
 9789TIP3    H250783   0.649   4.252  15.482  0.0614  1.9723 -2.9959
 9790TIP3   OH250784   6.594   5.524  13.982 -0.3532 -0.7487 -0.3189
 9790TIP3    H150785   6.530   5.476  13.929 -1.1085  0.7590 -0.8259
 9790TIP3    H250786   6.542   5.584  14.035  0.6110  0.2259 -0.4405
 9791TIP3   OH250787   5.146   1.226   2.131 -0.4243  0.6188 -0.0007
 9791TIP3    H150788   5.090   1.296   2.099 -1.1743 -0.5450 -1.3507
 9791TIP3    H250789   5.225   1.270   2.161 -0.0557  1.8941 -2.6353
 9792TIP3   OH250790   0.431   3.412  16.216  0.3589 -0.3256  0.3632
 9792TIP3    H150791   0.490   3.413  16.291 -0.0651 -1.5101  0.7363
 9792TIP3    H250792   0.448   3.495  16.171  2.6273 -0.8331  0.1790
 9793TIP3   OH250793   5.479   3.778  11.995 -0.3627  0.0078 -0.4120
 9793TIP3    H150794   5.497   3.747  12.084 -1.6477 -0.3572 -0.2616
 9793TIP3    H250795   5.462   3.699  11.944 -1.1994  0.2949 -0.6022
 9794TIP3   OH250796   4.900   0.640   2.092 -0.1102 -0.8714 -0.5183
 9794TIP3    H150797   4.866   0.598   2.013 -0.5909 -2.7780  0.6617
 9794TIP3    H250798   4.822   0.659   2.145 -0.0700  2.6447 -1.4215
 9795TIP3   OH250799   2.580   2.979   5.493 -0.1114  0.5479 -0.2452
 9795TIP3    H150800   2.552   3.035   5.421 -0.5520  0.5278 -0.0947
 9795TIP3    H250801   2.627   3.038   5.552 -0.0165  0.6285 -0.4029
 9796TIP3   OH250802   2.855   0.433  14.883 -0.5520  0.4927 -0.3007
 9796TIP3    H150803   2.877   0.360  14.941 -1.2338 -0.0316 -0.6808
 9796TIP3    H250804   2.766   0.414  14.853 -0.1525  0.6436 -1.6647
 9797TIP3   OH250805   3.181   2.162   1.176 -0.2504 -0.2310 -0.2346
 9797TIP3    H150806   3.130   2.206   1.243 -2.2288 -1.4357 -0.8691
 9797TIP3    H250807   3.182   2.070   1.203 -0.0628 -0.5399 -1.2489
 9798TIP3   OH250808   6.279   1.129  13.981  0.3348 -0.0795 -0.1097
 9798TIP3    H150809   6.349   1.072  13.950  0.0880 -0.8845  0.7546
 9798TIP3    H250810   6.286   1.125  14.076 -1.0502 -0.4156  0.0061
 9799TIP3   OH250811   4.337   1.139   5.464 -0.1714  0.2654 -0.0700
 9799TIP3    H150812   4.280   1.069   5.432  0.4187 -0.5640  0.6470
 9799TIP3    H250813   4.289   1.177   5.537 -1.0662  1.4896 -1.2515
 9800TIP3   OH250814   1.838   1.754  13.806  0.2409 -0.3753 -0.6320
 9800TIP3    H150815   1.931   1.733  13.812  0.7688  0.5116 -4.1167
 9800TIP3    H250816   1.805   1.698  13.736 -1.3452  0.8828 -0.9502
 9801TIP3   OH250817   1.056   5.493  13.425  0.6775  0.2120  0.2054
 9801TIP3    H150818   1.021   5.477  13.337  1.4901  0.5206 -0.1817
 9801TIP3    H250819   1.002   5.564  13.460 -0.3658 -0.6451  0.3972
 9802TIP3   OH250820   2.986   4.692  11.542 -0.4543  0.1263  0.1153
 9802TIP3    H150821   3.046   4.709  11.468  0.6111 -0.0699  0.9096
 9802TIP3    H250822   2.911   4.748  11.525 -0.7511 -0.7391 -1.7206
 9803TIP3   OH250823   5.334   5.533   1.452  0.0750 -0.2701  0.0227
 9803TIP3    H150824   5.403   5.513   1.389 -0.2939 -0.8140 -0.2118
 9803TIP3    H250825   5.273   5.588   1.404  0.0669 -0.2416  0.0660
 9804TIP3   OH250826   2.181   3.841   1.008  0.4743 -0.0946 -0.2493
 9804TIP3    H150827   2.152   3.750   1.003  0.2132 -0.2498  2.3803
 9804TIP3    H250828   2.101   3.893   0.998  0.2696 -0.2673  0.4162
 9805TIP3   OH250829   2.841   4.183   5.725  0.1469  0.0017 -0.3504
 9805TIP3    H150830   2.816   4.118   5.791  0.4913  0.9188  0.7088
 9805TIP3    H250831   2.830   4.137   5.642 -0.0207 -1.2772  0.3450
 9806TIP3   OH250832   6.124   3.199  14.500 -0.6035  0.3338 -0.3476
 9806TIP3    H150833   6.111   3.104  14.499 -0.2538  0.2682  0.5135
 9806TIP3    H250834   6.112   3.224  14.592  0.4447  0.9516 -0.3651
 9807TIP3   OH250835   4.121   6.561  15.125  0.2158  0.1231  0.1546
 9807TIP3    H150836   4.140   6.475  15.087 -0.7616 -0.7966  1.6474
 9807TIP3    H250837   4.198   6.614  15.104  1.8484 -1.7503  1.0634
 9808TIP3   OH250838   2.636   2.432  11.122 -0.0314  0.0019 -0.3486
 9808TIP3    H150839   2.664   2.343  11.145 -0.2267  0.4335  1.7301
 9808TIP3    H250840   2.617   2.427  11.028 -1.9480 -2.6608  0.0541
 9809TIP3   OH250841   5.325   0.873  14.894 -0.7228 -0.0088  0.3088
 9809TIP3    H150842   5.420   0.885  14.904 -0.5533 -0.8553 -0.1753
 9809TIP3    H250843   5.297   0.839  14.979 -0.6010  0.2381  0.4518
 9810TIP3   OH250844   2.554   0.123  11.736 -0.3194  0.0928 -0.3818
 9810TIP3    H150845   2.504   0.046  11.763  0.2358 -0.4505 -0.8791
 9810TIP3    H250846   2.487   0.191  11.723 -0.6604  0.2186  1.7418
 9811TIP3   OH250847   5.346   2.413  11.530 -0.3578  0.0589 -0.6143
 9811TIP3    H150848   5.421   2.354  11.517  0.1701  0.0740  1.8655
 9811TIP3    H250849   5.280   2.359  11.572 -0.3296  0.9169  0.5614
 9812TIP3   OH250850   0.898   0.332   4.214 -0.1096  0.3167 -0.8004
 9812TIP3    H150851   0.804   0.332   4.231  0.2774 -1.0471  1.8790
 9812TIP3    H250852   0.915   0.249   4.169  0.0773 -0.6592  0.9831
 9813TIP3   OH250853   5.053   0.859  13.149  0.6936  0.8178  0.2123
 9813TIP3    H150854   5.134   0.882  13.103 -0.6420  0.7521 -2.3209
 9813TIP3    H250855   5.050   0.763  13.147 -0.7192  0.8496 -2.2039
 9814TIP3   OH250856   2.745   3.638  16.547 -0.1111 -0.0251  0.1672
 9814TIP3    H150857   2.700   3.554  16.541 -0.4455  0.0025  1.7606
 9814TIP3    H250858   2.836   3.619  16.522 -0.0724 -0.9789  0.9684
 9815TIP3   OH250859   3.456   3.740  12.250  0.0419  0.6492 -0.2092
 9815TIP3    H150860   3.440   3.833  12.235  2.4294  0.8525 -2.1048
 9815TIP3    H250861   3.513   3.737  12.327 -0.2546  0.7283  0.0143
 9816TIP3   OH250862   3.590   0.544   5.186 -0.4308  0.1198  0.4247
 9816TIP3    H150863   3.644   0.471   5.217  0.1697  0.7906  0.9920
 9816TIP3    H250864   3.652   0.617   5.177 -1.3806  1.1738  1.9886
 9817TIP3   OH250865   5.872   3.846   4.375 -0.3131  0.1000 -0.4982
 9817TIP3    H150866   5.916   3.891   4.303  0.1503 -0.1493 -0.3725
 9817TIP3    H250867   5.937   3.786   4.410  0.1067  1.5185  1.3223
 9818TIP3   OH250868   2.635   6.486  16.257  0.0385 -0.4200  0.5874
 9818TIP3    H150869   2.586   6.418  16.303  0.8812 -0.7023  1.0932
 9818TIP3    H250870   2.695   6.437  16.200  2.2282 -0.2166  2.5604
 9819TIP3   OH250871   1.782   1.118   3.095  0.3702 -0.2735  0.4971
 9819TIP3    H150872   1.740   1.183   3.152  2.4231  0.0196  1.7876
 9819TIP3    H250873   1.807   1.167   3.017 -1.6332 -0.4649 -0.3161
 9820TIP3   OH250874   2.945   0.790  13.449 -0.0066  0.2125 -0.1353
 9820TIP3    H150875   2.878   0.729  13.478  0.4711  0.0548  0.6712
 9820TIP3    H250876   2.958   0.770  13.356  0.0398 -0.8168  0.0805
 9821TIP3   OH250877   0.603   0.216  16.176 -0.2014  0.2715 -0.1506
 9821TIP3    H150878   0.603   0.282  16.107 -1.3682  0.1160 -0.3285
 9821TIP3    H250879   0.638   0.137  16.135  0.4573  0.5640 -0.1552
 9822TIP3   OH250880   3.402   6.384   2.992  0.4897  0.5686  0.1456
 9822TIP3    H150881   3.473   6.431   3.035 -0.2237  1.5333  0.3195
 9822TIP3    H250882   3.365   6.447   2.931 -0.2816  0.1204  0.1348
 9823TIP3   OH250883   0.465   3.932  13.509  0.1408 -0.1162  0.4774
 9823TIP3    H150884   0.443   3.872  13.438  0.7726  0.1141  0.0885
 9823TIP3    H250885   0.534   3.887  13.558  0.1292 -0.0091  0.5929
 9824TIP3   OH250886   6.375   3.552  16.697  0.5340 -0.6968 -0.2152
 9824TIP3    H150887   6.397   3.601  16.619  0.7917 -0.8494 -0.2407
 9824TIP3    H250888   6.460   3.522  16.731  0.2850 -2.5796 -1.1487
 9825TIP3   OH250889   6.772   4.941  11.983 -0.6083  0.2066  0.2352
 9825TIP3    H150890   6.733   4.855  12.000 -0.7410  0.2688  0.2486
 9825TIP3    H250891   6.753   4.991  12.062  1.5060 -0.4701  1.2543
 9826TIP3   OH250892   5.361   3.022   0.280 -0.3555 -0.1025 -0.0910
 9826TIP3    H150893   5.386   2.933   0.304  1.6809  0.5092  0.2127
 9826TIP3    H250894   5.265   3.021   0.278 -0.3581 -2.4822 -0.8259
 9827TIP3   OH250895   3.198   2.259  16.400 -0.1859 -0.3903  0.1489
 9827TIP3    H150896   3.293   2.261  16.411 -0.0883 -0.9151 -0.5562
 9827TIP3    H250897   3.164   2.264  16.489  0.4799  0.5432  0.3725
 9828TIP3   OH250898   4.142   5.780   4.209 -0.7733 -0.1637  0.3476
 9828TIP3    H150899   4.060   5.731   4.208 -0.7942 -0.1302  0.4192
 9828TIP3    H250900   4.122   5.859   4.259 -0.5870 -0.3526  0.7292
 9829TIP3   OH250901   0.264   2.243   0.784  0.4209 -0.1574  0.5718
 9829TIP3    H150902   0.269   2.151   0.760 -1.2973 -0.2945  0.5608
 9829TIP3    H250903   0.193   2.247   0.849  0.9507  1.0508  1.1120
 9830TIP3   OH250904   3.283   5.991   4.426  0.0500 -0.7065  0.0452
 9830TIP3    H150905   3.211   6.054   4.431  1.1813  0.6089  0.4523
 9830TIP3    H250906   3.283   5.948   4.512  0.1990 -0.1647  0.3238
 9831TIP3   OH250907   5.377   0.815   0.272  0.5084  0.0774 -0.1197
 9831TIP3    H150908   5.467   0.846   0.278  0.5131  0.6895 -2.5654
 9831TIP3    H250909   5.368   0.780   0.184 -1.0483 -2.1027  0.7942
 9832TIP3   OH250910   0.028   3.295   5.767 -0.3692  0.2178  0.4411
 9832TIP3    H150911   0.026   3.218   5.824  0.0538  0.1441  0.3597
 9832TIP3    H250912   0.085   3.270   5.694  0.7512  1.0186  1.0160
 9833TIP3   OH250913   5.586   3.153  14.112  0.1646 -0.3051  0.0913
 9833TIP3    H150914   5.658   3.094  14.135 -0.1886 -1.2835 -1.1993
 9833TIP3    H250915   5.550   3.117  14.031 -0.9926  0.8788  0.0407
 9834TIP3   OH250916   2.402   5.208  13.327  0.3244  0.1215  0.4928
 9834TIP3    H150917   2.490   5.203  13.364  0.4996 -0.6279  0.0048
 9834TIP3    H250918   2.412   5.256  13.246  0.2535  0.1878  0.5227
 9835TIP3   OH250919   3.523   6.546  14.764 -0.1737 -0.5480 -0.5696
 9835TIP3    H150920   3.515   6.477  14.831 -0.8028  0.4907  0.4635
 9835TIP3    H250921   3.453   6.525  14.701  0.8387 -1.9053 -1.2874
 9836TIP3   OH250922   3.822   1.272  15.396 -0.3307  0.2698 -0.4101
 9836TIP3    H150923   3.824   1.365  15.374 -0.3237  0.3078 -0.2510
 9836TIP3    H250924   3.861   1.228  15.320 -1.1256  0.3226 -0.8683
 9837TIP3   OH250925   0.853   5.703  14.491  0.1010  0.8828 -0.5537
 9837TIP3    H150926   0.888   5.789  14.516 -2.4275  2.1121 -0.8798
 9837TIP3    H250927   0.883   5.691  14.401  0.9244  1.1409 -0.3291
 9838TIP3   OH250928   4.917   0.733  11.793  0.1378  0.3263 -0.5377
 9838TIP3    H150929   4.899   0.774  11.709 -1.0039  0.5313 -0.2151
 9838TIP3    H250930   4.834   0.692  11.818 -0.0332  1.6077  1.2011
 9839TIP3   OH250931   1.428   2.966   4.676 -0.4577  0.1417  0.3964
 9839TIP3    H150932   1.465   2.911   4.606 -2.4261  0.1725 -0.7581
 9839TIP3    H250933   1.462   2.928   4.757  2.0806  0.2333 -0.5305
 9840TIP3   OH250934   4.731   3.715  11.393  0.6518 -0.1588 -0.2429
 9840TIP3    H150935   4.789   3.662  11.338 -0.3013 -1.5223  0.0148
 9840TIP3    H250936   4.749   3.686  11.482  0.5919  0.4472 -0.0268
 9841TIP3   OH250937   1.240   2.971   3.204 -0.1378  0.9464 -0.1043
 9841TIP3    H150938   1.199   2.982   3.290 -0.6068 -0.9396 -0.0436
 9841TIP3    H250939   1.333   2.964   3.222 -0.0461  2.3059  0.0518
 9842TIP3   OH250940   1.495   5.438   4.467 -0.1352 -0.5986 -0.1234
 9842TIP3    H150941   1.420   5.388   4.434 -1.2361 -1.6204  3.5155
 9842TIP3    H250942   1.459   5.495   4.535  2.0985  0.5122  0.2445
 9843TIP3   OH250943   2.170   0.114  16.700 -0.2873  0.3314 -0.0197
 9843TIP3    H150944   2.080   0.084  16.714 -0.5839  1.5148  0.7276
 9843TIP3    H250945   2.163   0.178  16.629  0.0201  0.2137 -0.1582
 9844TIP3   OH250946   3.197   2.003   0.728 -0.2737  0.5806 -0.3995
 9844TIP3    H150947   3.196   1.973   0.638  1.0659 -0.3734 -0.1343
 9844TIP3    H250948   3.118   1.966   0.767  1.3170 -2.9921 -0.0532
 9845TIP3   OH250949   5.351   1.979  16.810  0.1392  0.3407 -0.4542
 9845TIP3    H150950   5.397   1.936  16.737  0.8141 -0.4809  0.4345
 9845TIP3    H250951   5.274   2.019  16.769 -1.1629 -2.6373 -1.2163
 9846TIP3   OH250952   1.889   3.255  12.776  0.1175 -0.7777  0.3841
 9846TIP3    H150953   1.909   3.193  12.706 -0.9862 -1.9323  1.0646
 9846TIP3    H250954   1.798   3.238  12.798 -0.0492  0.7354  0.9605
 9847TIP3   OH250955   4.154   0.619   3.042 -0.1439  0.3965  0.4183
 9847TIP3    H150956   4.109   0.678   2.982 -0.7919  0.7837  1.2710
 9847TIP3    H250957   4.205   0.676   3.100  0.3317  0.0395  0.3669
 9848TIP3   OH250958   5.200   2.069   5.508  0.0209 -0.2453 -0.0704
 9848TIP3    H150959   5.230   1.987   5.546 -2.7947 -1.1543  0.3578
 9848TIP3    H250960   5.281   2.111   5.476  1.6582 -2.6220  0.6702
 9849TIP3   OH250961   6.602   2.495   0.546  0.5974 -0.4912  0.5589
 9849TIP3    H150962   6.552   2.448   0.479  1.7062 -1.1074  0.1418
 9849TIP3    H250963   6.664   2.549   0.498  1.2417 -0.7543  1.0624
 9850TIP3   OH250964   2.557   1.901   2.956 -0.0621 -0.4601  0.0027
 9850TIP3    H150965   2.565   1.858   2.871  0.2725  1.5837 -1.0388
 9850TIP3    H250966   2.466   1.931   2.959 -0.0804 -0.5481  0.3850
 9851TIP3   OH250967   1.557   0.633   0.725 -0.1507  0.1354 -0.4786
 9851TIP3    H150968   1.569   0.581   0.805  0.5055  1.2531  0.1663
 9851TIP3    H250969   1.491   0.584   0.676  0.6330 -1.4656 -0.0403
 9852TIP3   OH250970   6.277   4.913  10.344 -0.2396  0.3240 -0.1325
 9852TIP3    H150971   6.256   4.988  10.399  1.2648  1.5317 -1.1549
 9852TIP3    H250972   6.192   4.870  10.329 -0.7363  0.0566  2.8880
 9853TIP3   OH250973   2.016   3.448  16.488  0.2305 -0.1318 -0.2570
 9853TIP3    H150974   1.944   3.392  16.459 -0.6728  0.9087 -0.0935
 9853TIP3    H250975   2.002   3.531  16.444  1.4760  0.0331 -0.3936
 9854TIP3   OH250976   0.275   3.653  12.838 -0.6431 -0.5834  0.2743
 9854TIP3    H150977   0.325   3.653  12.756  0.3120 -0.1636  0.8437
 9854TIP3    H250978   0.185   3.634  12.811 -0.5410  0.6071 -0.9880
 9855TIP3   OH250979   2.049   1.449   3.008 -0.0262  0.3404  0.1166
 9855TIP3    H150980   2.128   1.491   2.974 -0.0516 -1.7400 -2.9043
 9855TIP3    H250981   2.082   1.375   3.060  0.0002  0.5973  0.4688
 9856TIP3   OH250982   1.639   2.637  13.112  0.0974  0.0754  0.0570
 9856TIP3    H150983   1.556   2.667  13.075  0.9899  0.9419 -1.3541
 9856TIP3    H250984   1.701   2.645  13.040  1.4683 -0.3141  1.1514
 9857TIP3   OH250985   0.021   3.685  16.392 -0.4226 -0.1748 -0.4780
 9857TIP3    H150986   0.115   3.689  16.373  0.3493 -1.9451  2.3865
 9857TIP3    H250987   0.003   3.766  16.440  0.4143 -1.0939  1.5284
 9858TIP3   OH250988   0.400   6.610  16.367  0.3698 -0.2463  0.2905
 9858TIP3    H150989   0.424   6.685  16.313  2.7252 -1.8593 -1.0792
 9858TIP3    H250990   0.418   6.638  16.457  1.6635  0.6691 -0.2363
 9859TIP3   OH250991   0.919   2.482  11.048  0.7409 -0.1735 -0.1164
 9859TIP3    H150992   0.925   2.524  10.962 -0.1652 -1.2188 -0.7164
 9859TIP3    H250993   0.861   2.407  11.034  1.9372 -1.3588  1.0131
 9860TIP3   OH250994   1.156   5.576  16.135  0.8974 -0.2233 -0.3421
 9860TIP3    H150995   1.247   5.547  16.142  1.0707  0.6688  1.9517
 9860TIP3    H250996   1.107   5.495  16.120  1.8892 -1.0193  0.5075
 9861TIP3   OH250997   4.144   0.801  16.798  0.1041 -0.1280  0.4300
 9861TIP3    H150998   4.147   0.834  16.708  0.8051  0.2647  0.5880
 9861TIP3    H250999   4.139   0.880  16.852 -0.1479 -0.3575  0.7489
 9862TIP3   OH251000   5.161   5.184   0.492 -0.2248  0.2270  0.0964
 9862TIP3    H151001   5.131   5.271   0.518  1.0249  0.7929 -0.2771
 9862TIP3    H251002   5.133   5.175   0.401  1.8514  1.3472 -0.7300
 9863TIP3   OH251003   0.169   4.486  12.029 -0.5379  0.4453  0.1431
 9863TIP3    H151004   0.138   4.412  11.978 -0.9309  0.1928  0.7381
 9863TIP3    H251005   0.225   4.536  11.968 -1.5126  0.5111 -0.7197
 9864TIP3   OH251006   0.606   0.566   1.982  0.4854 -0.2822 -0.7927
 9864TIP3    H151007   0.552   0.635   1.944  0.3413 -0.3778 -0.7646
 9864TIP3    H251008   0.651   0.608   2.055 -0.8102 -0.5957  0.2234
 9865TIP3   OH251009   0.639   3.861   4.071  0.5750 -0.4302  0.0611
 9865TIP3    H151010   0.611   3.926   4.007 -1.0797 -0.1848  0.9722
 9865TIP3    H251011   0.730   3.843   4.049  0.5604  0.9285 -1.2652
 9866TIP3   OH251012   3.579   6.308  13.419  0.0793 -0.4280 -0.0189
 9866TIP3    H151013   3.504   6.361  13.445  0.1900  0.3404 -1.2010
 9866TIP3    H251014   3.553   6.218  13.438 -1.0745 -0.1482 -0.2405
 9867TIP3   OH251015   4.650   3.460   6.328 -0.2631  0.4213  0.1500
 9867TIP3    H151016   4.614   3.524   6.390 -1.1300  0.1697 -0.0713
 9867TIP3    H251017   4.585   3.390   6.327  0.3041 -0.1034 -0.1886
 9868TIP3   OH251018   2.078   5.613  14.934  0.5388 -0.1336  0.0284
 9868TIP3    H151019   2.126   5.693  14.956  1.0155 -0.2624 -0.5407
 9868TIP3    H251020   2.135   5.566  14.874 -0.8440  0.3587 -1.7653
 9869TIP3   OH251021   5.168   1.385  14.925 -0.2652  0.2231 -0.1412
 9869TIP3    H151022   5.214   1.301  14.931  0.6542  0.7434  0.2473
 9869TIP3    H251023   5.128   1.396  15.012  0.2478  0.5389  0.0577
 9870TIP3   OH251024   6.642   1.346  14.367  0.1069 -0.5912  0.0199
 9870TIP3    H151025   6.548   1.353  14.384  0.1695 -1.2464  0.7004
 9870TIP3    H251026   6.650   1.267  14.314  0.1105  0.4150 -1.5308
 9871TIP3   OH251027   5.063   6.091  10.912  0.7045  0.0227  0.0261
 9871TIP3    H151028   4.996   6.158  10.903  0.3011  0.2377  3.4458
 9871TIP3    H251029   5.050   6.034  10.836 -0.7326  2.2153 -1.4855
 9872TIP3   OH251030   4.265   5.918  11.525 -0.6852  0.0859 -0.2380
 9872TIP3    H151031   4.299   5.886  11.609  0.8442  0.6894 -0.5947
 9872TIP3    H251032   4.343   5.933  11.472 -1.6065  0.2100 -1.6002
 9873TIP3   OH251033   3.946   6.019   5.612 -0.0843 -0.7638  0.4890
 9873TIP3    H151034   4.025   6.012   5.558 -0.2989  3.5702 -0.7344
 9873TIP3    H251035   3.895   5.942   5.590  2.1553 -1.7785 -1.5449
 9874TIP3   OH251036   6.030   2.417   3.908 -0.2055  0.2611  0.2614
 9874TIP3    H151037   6.077   2.343   3.869  1.8505  1.1878  0.8011
 9874TIP3    H251038   5.938   2.395   3.900  0.3409 -2.2591  0.2317
 9875TIP3   OH251039   3.942   3.816  13.476 -0.7533  0.4844  0.0157
 9875TIP3    H151040   3.967   3.863  13.397  0.9359 -0.0159  0.2238
 9875TIP3    H251041   4.024   3.779  13.509 -1.4127  0.6760  1.9968
 9876TIP3   OH251042   1.836   0.424   0.544  0.0320  0.0359  0.1919
 9876TIP3    H151043   1.899   0.463   0.606  1.6656 -1.2354 -0.5988
 9876TIP3    H251044   1.819   0.494   0.481  0.8330  0.3348  0.2908
 9877TIP3   OH251045   6.538   2.231  13.786  0.0338  0.1990 -0.4509
 9877TIP3    H151046   6.631   2.227  13.810  0.1712 -0.0706 -1.0050
 9877TIP3    H251047   6.527   2.319  13.749  0.0453  0.2624 -0.3050
 9878TIP3   OH251048   0.672   6.437   0.385 -0.1544  0.2339  0.5764
 9878TIP3    H151049   0.612   6.509   0.368  0.0014  0.0819 -0.6941
 9878TIP3    H251050   0.660   6.418   0.478 -1.9971  0.2619  0.3816
 9879TIP3   OH251051   6.442   0.990  12.929  0.4605 -0.9044  0.3506
 9879TIP3    H151052   6.535   0.990  12.909  0.5129 -1.3411  0.5801
 9879TIP3    H251053   6.436   1.027  13.017  0.3238  0.0542 -0.0518
 9880TIP3   OH251054   5.043   2.824   1.447  0.0583  0.2441 -0.5429
 9880TIP3    H151055   5.034   2.919   1.447 -2.8163  0.0874  1.1056
 9880TIP3    H251056   5.048   2.800   1.539 -0.6619 -1.2827 -0.8652
 9881TIP3   OH251057   0.325   1.115  16.101  0.3115  0.0241 -0.3788
 9881TIP3    H151058   0.317   1.128  16.196 -0.5837 -1.1719 -0.2745
 9881TIP3    H251059   0.361   1.198  16.069 -0.6338  0.9464  0.8330
 9882TIP3   OH251060   6.463   5.408  13.191 -0.7187  0.5394 -0.2806
 9882TIP3    H151061   6.387   5.360  13.160 -0.3631 -0.0880 -0.2016
 9882TIP3    H251062   6.428   5.493  13.220 -1.2027  0.7427 -1.4011
 9883TIP3   OH251063   1.903   6.336   1.960 -0.4571  0.1088 -0.0799
 9883TIP3    H151064   1.852   6.317   1.881 -0.0670 -2.7263  0.2469
 9883TIP3    H251065   1.994   6.322   1.934 -0.3337 -1.0006  0.8536
 9884TIP3   OH251066   5.850   2.573  12.390  0.7628  0.1682  0.0856
 9884TIP3    H151067   5.884   2.662  12.395  0.9761  0.0776  0.2720
 9884TIP3    H251068   5.755   2.584  12.387  0.7800  0.3961  0.3199
 9885TIP3   OH251069   3.029   5.777  13.879  0.3723 -0.5086  0.1607
 9885TIP3    H151070   3.029   5.690  13.918  0.6281 -0.1060  1.0844
 9885TIP3    H251071   3.015   5.837  13.953  2.8652  0.4158 -0.0223
 9886TIP3   OH251072   6.501   5.663  12.978 -0.7789  0.2212  0.1867
 9886TIP3    H151073   6.520   5.653  12.885  0.3174  1.0954  0.2893
 9886TIP3    H251074   6.405   5.658  12.984 -1.0677  2.4123 -1.3230
 9887TIP3   OH251075   3.106   1.369  11.808  0.2380  1.1971  0.3866
 9887TIP3    H151076   3.105   1.434  11.738 -1.1304  0.2319 -0.5252
 9887TIP3    H251077   3.199   1.362  11.832  0.3395  4.1018  1.1520
 9888TIP3   OH251078   1.591   2.793  15.495  0.3432  0.1201 -0.4247
 9888TIP3    H151079   1.611   2.887  15.490  0.6805  0.0443 -0.4911
 9888TIP3    H251080   1.519   2.787  15.558  0.0994  0.4584 -0.6653
 9889TIP3   OH251081   4.418   3.961   1.778  0.1442  0.4752 -0.1952
 9889TIP3    H151082   4.504   3.944   1.818 -0.1253 -0.0943  0.1470
 9889TIP3    H251083   4.358   3.968   1.852 -0.4593 -1.1536 -0.4968
 9890TIP3   OH251084   2.439   3.948  16.027  0.2915 -0.3882  0.1627
 9890TIP3    H151085   2.447   3.882  16.096 -1.2409 -1.2983 -0.4708
 9890TIP3    H251086   2.527   3.984  16.017  1.1728 -2.3302  0.5410
 9891TIP3   OH251087   2.371   5.940  12.558 -0.1867 -0.4432  0.1680
 9891TIP3    H151088   2.458   5.924  12.523 -0.6759 -1.6131 -0.5542
 9891TIP3    H251089   2.312   5.932  12.483 -1.0287 -0.7297  0.8324
 9892TIP3   OH251090   4.771   4.788  13.482 -0.5022  0.0882  0.6060
 9892TIP3    H151091   4.679   4.764  13.472 -0.3037 -1.0169  1.2454
 9892TIP3    H251092   4.818   4.706  13.469  0.5108  0.9180 -1.2157
 9893TIP3   OH251093   3.209   3.388  11.798 -0.5921 -0.2385  0.1492
 9893TIP3    H151094   3.180   3.302  11.827 -0.7689 -0.8230 -1.6597
 9893TIP3    H251095   3.235   3.433  11.878 -0.1353 -2.1085  1.0894
 9894TIP3   OH251096   1.689   6.721   1.610 -0.4764 -0.5030 -0.7456
 9894TIP3    H151097   1.667   6.628   1.603  0.7943 -1.0370  1.4590
 9894TIP3    H251098   1.747   6.727   1.686  1.8790  1.6877 -2.5618
 9895TIP3   OH251099   2.525   5.361   3.591  0.6669 -0.1139 -0.6302
 9895TIP3    H151100   2.493   5.404   3.670  0.0573 -1.0150 -0.3705
 9895TIP3    H251101   2.486   5.410   3.519 -1.0701 -0.9952 -0.3199
 9896TIP3   OH251102   0.746   4.420   1.911 -0.3107  0.3048 -0.6952
 9896TIP3    H151103   0.704   4.448   1.992  0.1618 -1.1034  0.0792
 9896TIP3    H251104   0.837   4.402   1.936 -0.2171 -0.3847 -1.4780
 9897TIP3   OH251105   4.524   5.312   3.030  1.0462 -0.1819 -0.1373
 9897TIP3    H151106   4.526   5.217   3.021 -2.7084 -0.5106  1.0765
 9897TIP3    H251107   4.503   5.344   2.942 -0.8902 -0.7800  0.0661
 9898TIP3   OH251108   0.117   0.136  11.229  0.3644  0.2380  0.1878
 9898TIP3    H151109   0.143   0.183  11.149  0.8691  0.0107  0.2158
 9898TIP3    H251110   0.030   0.103  11.210 -0.1634  1.5195  0.3072
 9899TIP3   OH251111   4.311   5.151  14.486 -0.0071  0.8489 -0.1558
 9899TIP3    H151112   4.295   5.243  14.465  0.8267  1.3920  1.3992
 9899TIP3    H251113   4.242   5.128  14.549  1.1743  1.1846  1.3336
 9900TIP3   OH251114   6.063   5.565  11.308  0.0818  0.2435 -0.7289
 9900TIP3    H151115   6.077   5.484  11.259  0.0883  0.2082 -0.6686
 9900TIP3    H251116   6.101   5.633  11.253  0.8608  0.0990 -0.3814
 9901TIP3   OH251117   4.779   2.363  15.589 -0.3429 -0.1629 -0.7175
 9901TIP3    H151118   4.794   2.409  15.672 -1.4429 -1.6460  0.3534
 9901TIP3    H251119   4.835   2.408  15.526  0.4742  1.0460  0.8100
 9902TIP3   OH251120   2.614   2.113   2.152 -0.8997  0.3975  0.3182
 9902TIP3    H151121   2.548   2.142   2.214 -0.2871  1.3661  0.5360
 9902TIP3    H251122   2.696   2.146   2.187 -0.3435 -0.4206 -0.1744
 9903TIP3   OH251123   3.275   5.494  11.582  0.5565 -0.1060 -0.7912
 9903TIP3    H151124   3.252   5.404  11.606 -0.1801  0.4042  0.5137
 9903TIP3    H251125   3.371   5.494  11.578  0.7176 -0.4165  1.6137
 9904TIP3   OH251126   2.068   1.701  14.783 -0.5726  0.1045 -0.0344
 9904TIP3    H151127   2.121   1.623  14.765  0.0443  0.7609 -1.2553
 9904TIP3    H251128   2.127   1.759  14.831 -1.1245 -0.2785  1.1372
 9905TIP3   OH251129   0.368   5.210  16.206 -0.1665 -0.2475  0.0503
 9905TIP3    H151130   0.297   5.197  16.143 -0.6613 -1.0772  0.7614
 9905TIP3    H251131   0.448   5.204  16.154 -0.6042  1.1023 -0.8362
 9906TIP3   OH251132   0.946   3.972   1.707  0.1098 -0.2163  0.1209
 9906TIP3    H151133   0.854   3.956   1.729 -0.8115  0.2409 -2.9515
 9906TIP3    H251134   0.970   3.900   1.649  0.8210  1.0933 -1.2757
 9907TIP3   OH251135   5.636   2.037   4.344  0.4985 -0.2135 -0.6087
 9907TIP3    H151136   5.697   2.081   4.403 -2.1012  2.2827  0.4745
 9907TIP3    H251137   5.643   2.084   4.261 -0.6763  0.8407 -0.1379
 9908TIP3   OH251138   4.890   4.940   1.235 -0.3580  0.0303  0.6001
 9908TIP3    H151139   4.883   4.921   1.328 -0.7864  1.6012  0.9113
 9908TIP3    H251140   4.820   4.890   1.194 -0.8208  0.1406  1.2518
 9909TIP3   OH251141   5.026   4.784   1.871  0.1578 -0.6668  0.3834
 9909TIP3    H151142   5.042   4.819   1.784 -1.3903  0.2056  0.3944
 9909TIP3    H251143   5.014   4.861   1.926 -2.8564 -1.0859  0.5194
 9910TIP3   OH251144   1.536   4.726  13.075  0.1488 -0.0714  0.3977
 9910TIP3    H151145   1.490   4.719  12.991  0.8736  0.7561 -0.0995
 9910TIP3    H251146   1.503   4.654  13.127  0.4644 -1.2761 -0.9933
 9911TIP3   OH251147   2.963   0.756  10.874 -0.3339  0.3936 -0.0937
 9911TIP3    H151148   3.039   0.793  10.918  0.1036  0.1353 -0.6134
 9911TIP3    H251149   2.909   0.721  10.944  1.1369 -1.4917  0.1680
 9912TIP3   OH251150   0.787   1.240   0.488  0.1729 -0.0235  0.1617
 9912TIP3    H151151   0.811   1.181   0.417 -2.4808  0.8792 -1.6170
 9912TIP3    H251152   0.762   1.181   0.560  1.8476 -0.9622  0.0204
 9913TIP3   OH251153   1.122   1.133   3.069 -0.5591 -0.5939 -0.3511
 9913TIP3    H151154   1.157   1.190   3.137 -0.3180 -2.5344  1.2571
 9913TIP3    H251155   1.156   1.169   2.987  1.5975  0.1452  0.7881
 9914TIP3   OH251156   6.286   5.984  11.444 -0.4246  0.0894  0.2045
 9914TIP3    H151157   6.324   6.066  11.412  0.3633 -0.0480  0.7879
 9914TIP3    H251158   6.307   5.982  11.537  0.4876 -1.2747 -0.0120
 9915TIP3   OH251159   4.069   6.099  10.355  0.0452  0.2031 -0.6361
 9915TIP3    H151160   3.999   6.130  10.412  0.4587  2.6876 -1.3326
 9915TIP3    H251161   4.030   6.099  10.267  0.6847  0.9661 -0.9383
 9916TIP3   OH251162   0.536   3.596  13.911  0.1999  0.1380  0.9500
 9916TIP3    H151163   0.522   3.550  13.829  2.7966  0.4392  0.2356
 9916TIP3    H251164   0.517   3.687  13.892  0.8466  0.2143  0.6336
 9917TIP3   OH251165   3.567   0.798   0.047  0.2976  0.0088  0.2454
 9917TIP3    H151166   3.519   0.833   0.122 -3.6877 -1.2730 -1.4668
 9917TIP3    H251167   3.585   0.707   0.070  1.2447  0.2618  0.5490
 9918TIP3   OH251168   4.270   2.655   2.259 -0.4967  0.4002  0.4299
 9918TIP3    H151169   4.227   2.738   2.276  0.6288  1.2514 -0.6866
 9918TIP3    H251170   4.285   2.616   2.345 -1.8160  0.9238  0.9160
 9919TIP3   OH251171   3.738   1.573   3.544 -0.2475 -0.3668  0.1185
 9919TIP3    H151172   3.738   1.596   3.637 -0.4818  0.3632 -0.0535
 9919TIP3    H251173   3.828   1.585   3.516  0.7370 -4.2729  1.0929
 9920TIP3   OH251174   5.355   3.115  11.757  0.0203  0.0582  0.7735
 9920TIP3    H151175   5.432   3.081  11.711  0.2908  1.7486 -0.1270
 9920TIP3    H251176   5.293   3.042  11.758  1.2490 -1.0134  0.5925
 9921TIP3   OH251177   3.457   2.237  12.279 -0.5786  0.1754  0.3296
 9921TIP3    H151178   3.526   2.204  12.336 -0.6746 -0.0803  0.2977
 9921TIP3    H251179   3.403   2.160  12.259 -0.5757  0.2755 -0.0609
 9922TIP3   OH251180   0.336   0.646   0.205  0.1409 -0.4837  0.2234
 9922TIP3    H151181   0.335   0.660   0.300 -0.1762  0.1418  0.1247
 9922TIP3    H251182   0.337   0.733   0.167  1.2139 -0.7247 -0.3459
 9923TIP3   OH251183   5.929   3.856  12.653  0.3744  0.0116 -0.3654
 9923TIP3    H151184   5.854   3.913  12.668  0.8068  1.0090 -1.7062
 9923TIP3    H251185   6.000   3.916  12.628  0.8912 -1.0828 -1.6712
 9924TIP3   OH251186   6.400   4.271  13.226 -0.0127  0.5784 -0.1013
 9924TIP3    H151187   6.348   4.334  13.277  0.2840  1.0644 -0.3935
 9924TIP3    H251188   6.355   4.266  13.142  1.7499  2.9503 -1.3319
 9925TIP3   OH251189   2.612   4.948  11.736  0.0580  0.1951 -0.2734
 9925TIP3    H151190   2.578   5.010  11.800 -0.5577 -0.1274 -0.2817
 9925TIP3    H251191   2.702   4.931  11.765 -0.3668 -0.3251  0.8105
 9926TIP3   OH251192   1.014   3.655  16.855 -0.3331 -0.0475 -0.0905
 9926TIP3    H151193   1.084   3.709  16.816 -2.1159  0.4121 -2.9906
 9926TIP3    H251194   1.006   3.687  16.944  0.7013  2.4614 -0.8007
 9927TIP3   OH251195   1.350   3.344  13.923  0.0060  0.7768 -0.1970
 9927TIP3    H151196   1.297   3.407  13.874 -0.6997  1.7796  1.7927
 9927TIP3    H251197   1.438   3.381  13.922  0.0292  0.7215 -0.7915
 9928TIP3   OH251198   6.425   5.233  13.500  0.1575 -0.2091  0.2670
 9928TIP3    H151199   6.462   5.239  13.412  0.4953  0.0979  0.4254
 9928TIP3    H251200   6.441   5.143  13.527 -1.3037 -0.7515 -0.5687
 9929TIP3   OH251201   3.715   5.094   6.516 -0.1622 -0.0154 -0.0669
 9929TIP3    H151202   3.636   5.041   6.526 -0.6881  0.6843 -0.5123
 9929TIP3    H251203   3.779   5.052   6.575 -0.5923 -1.0788 -0.3318
 9930TIP3   OH251204   6.417   0.123   0.586 -0.1563  0.5607  0.9296
 9930TIP3    H151205   6.328   0.103   0.557 -0.4037  1.1600  1.2663
 9930TIP3    H251206   6.463   0.145   0.506  0.7164 -3.2920  0.1801
 9931TIP3   OH251207   3.203   1.579   3.981  0.3620 -0.0084  0.2305
 9931TIP3    H151208   3.147   1.583   3.903  2.0845 -1.1629 -1.1589
 9931TIP3    H251209   3.248   1.663   3.983  0.5502 -0.0928 -0.2478
 9932TIP3   OH251210   1.086   3.368  13.254 -0.5336  1.1428 -0.5249
 9932TIP3    H151211   1.054   3.385  13.165 -2.1642  0.6457 -0.0776
 9932TIP3    H251212   1.058   3.444  13.304 -2.0614  0.2153  0.1035
 9933TIP3   OH251213   2.239   2.654  12.185  0.5153  0.1014 -0.5788
 9933TIP3    H151214   2.298   2.626  12.114  1.0357  0.4403 -0.2925
 9933TIP3    H251215   2.171   2.704  12.141 -1.4266 -2.9823 -1.3258
 9934TIP3   OH251216   4.986   2.111  14.305 -0.2771  0.2311 -0.2668
 9934TIP3    H151217   4.912   2.050  14.304 -0.2859  0.2427 -0.3289
 9934TIP3    H251218   4.945   2.198  14.299 -0.2624  0.2414 -0.2167
 9935TIP3   OH251219   5.345   6.570   0.576  0.0286 -0.2480  0.0769
 9935TIP3    H151220   5.331   6.665   0.575  0.6518 -0.1338  1.3471
 9935TIP3    H251221   5.274   6.536   0.521 -0.5462  0.9040  0.0618
 9936TIP3   OH251222   4.407   1.677  12.049 -0.2722 -0.2138  0.1227
 9936TIP3    H151223   4.458   1.750  12.082 -0.2432  0.1492 -0.6884
 9936TIP3    H251224   4.387   1.624  12.126  1.7049 -0.6110  0.4246
 9937TIP3   OH251225   2.087   0.078  12.533  0.3579  0.7001 -0.2860
 9937TIP3    H151226   2.123   0.146  12.475 -0.2572  0.7180 -0.6526
 9937TIP3    H251227   2.099   0.114  12.621  1.5812  0.5400 -0.3643
 9938TIP3   OH251228   0.532   1.951  13.709  0.0109 -0.1534  0.1782
 9938TIP3    H151229   0.557   1.871  13.754 -1.8489 -0.4164  0.8491
 9938TIP3    H251230   0.523   2.016  13.779  0.0654  0.2380 -0.1744
 9939TIP3   OH251231   5.001   2.704   5.942  0.5850  0.6286 -0.0981
 9939TIP3    H151232   4.934   2.694   6.010 -1.6548  0.3475 -2.1898
 9939TIP3    H251233   5.026   2.615   5.920  0.9334  0.6990  0.0101
 9940TIP3   OH251234   0.751   3.469   5.221  0.1706  0.1239  0.5701
 9940TIP3    H151235   0.701   3.444   5.299 -0.7398 -0.4554 -0.1770
 9940TIP3    H251236   0.780   3.385   5.184  2.7284  0.4639  1.6002
 9941TIP3   OH251237   5.689   0.241  12.449 -0.1243  0.3374  0.3638
 9941TIP3    H151238   5.731   0.156  12.464 -2.0035 -0.7295 -0.0082
 9941TIP3    H251239   5.693   0.253  12.355  1.1165  1.2234  0.5161
 9942TIP3   OH251240   5.289   5.788  16.443 -0.1238 -0.1815  0.2545
 9942TIP3    H151241   5.240   5.767  16.363  2.0807  0.0694 -1.2532
 9942TIP3    H251242   5.274   5.881  16.457  1.2012  0.2909 -1.1949
 9943TIP3   OH251243   2.506   6.127   0.309  0.1981 -0.0834  0.0837
 9943TIP3    H151244   2.468   6.058   0.254 -0.7333  0.3627  0.1614
 9943TIP3    H251245   2.469   6.111   0.396  0.8591 -0.1532  0.3620
 9944TIP3   OH251246   2.774   1.578  13.300 -0.2301  0.3450 -0.7390
 9944TIP3    H151247   2.770   1.622  13.385 -0.1506 -0.1378 -0.4840
 9944TIP3    H251248   2.712   1.626  13.246 -1.5752 -0.3901  0.0912
 9945TIP3   OH251249   6.402   4.535   2.814  0.2904  0.2211  0.0744
 9945TIP3    H151250   6.452   4.617   2.807 -2.2052  2.0029  1.5026
 9945TIP3    H251251   6.337   4.541   2.744  0.8943 -1.2388 -0.6586
 9946TIP3   OH251252   3.133   6.692  14.488  0.2831  0.4217 -0.5961
 9946TIP3    H151253   3.198   6.751  14.526  0.2739 -0.5365  0.9544
 9946TIP3    H251254   3.050   6.720  14.525  0.3433 -0.8744  0.6057
 9947TIP3   OH251255   2.015   2.376   6.197 -0.2537  0.5744 -0.6386
 9947TIP3    H151256   2.102   2.379   6.237 -0.9247  0.1907  0.9629
 9947TIP3    H251257   1.994   2.467   6.176 -0.4477  1.0234  1.2952
 9948TIP3   OH251258   3.380   2.402   2.840 -0.0111 -0.2829 -0.2264
 9948TIP3    H151259   3.391   2.456   2.918 -0.4622 -0.1119 -0.2772
 9948TIP3    H251260   3.381   2.312   2.872  2.0338 -0.3311 -0.2809
 9949TIP3   OH251261   2.570   2.398  10.291  0.1293 -0.2583  0.2115
 9949TIP3    H151262   2.631   2.343  10.339 -1.6758 -1.7620  0.9316
 9949TIP3    H251263   2.552   2.471  10.350 -0.2668 -0.8609  0.8551
 9950TIP3   OH251264   4.031   1.169  12.007 -0.0226 -0.1744  0.4385
 9950TIP3    H151265   4.120   1.145  11.983  1.0631  3.3032  0.3652
 9950TIP3    H251266   4.040   1.213  12.091 -1.5749  0.6193  0.2235
 9951TIP3   OH251267   4.306   3.383   1.885 -1.0745  0.4825  0.1529
 9951TIP3    H151268   4.255   3.335   1.951 -0.5506  1.4412  1.2877
 9951TIP3    H251269   4.292   3.475   1.906 -0.4428  0.7941 -0.7415
 9952TIP3   OH251270   2.732   0.712   2.134  0.4648 -0.3588  0.7359
 9952TIP3    H151271   2.652   0.762   2.152  1.0130  0.2866  1.4513
 9952TIP3    H251272   2.714   0.625   2.170  0.2358 -0.0943  1.2735
 9953TIP3   OH251273   1.118   1.033   5.672  0.7350 -0.0394  0.3450
 9953TIP3    H151274   1.045   1.006   5.617 -0.2875 -0.0495  1.6615
 9953TIP3    H251275   1.113   1.128   5.676  1.0415 -0.0118  0.1118
 9954TIP3   OH251276   3.529   3.709   0.033 -0.5949 -0.6948 -0.6725
 9954TIP3    H151277   3.600   3.667   0.082 -0.9702 -1.8712 -1.1179
 9954TIP3    H251278   3.470   3.742   0.100 -0.5337 -1.2935 -0.3175
 9955TIP3   OH251279   5.686   2.113  14.785  0.1601 -0.1068 -0.2373
 9955TIP3    H151280   5.695   2.025  14.748 -1.0161 -0.1502 -0.4519
 9955TIP3    H251281   5.622   2.157  14.729 -1.5721 -0.1370  1.5958
 9956TIP3   OH251282   0.429   0.153   0.792  0.2285  0.0503  0.1456
 9956TIP3    H151283   0.483   0.174   0.868 -2.3502  0.8356  1.8827
 9956TIP3    H251284   0.357   0.216   0.795 -0.8446 -0.9474 -2.0220
 9957TIP3   OH251285   4.607   2.275  14.295 -0.5944  0.8025  0.0799
 9957TIP3    H151286   4.516   2.279  14.325 -0.4692 -1.7789  1.0789
 9957TIP3    H251287   4.659   2.275  14.376  0.2227  0.9507 -0.4357
 9958TIP3   OH251288   5.053   0.649   2.933  0.1854 -0.3286 -0.1002
 9958TIP3    H151289   5.097   0.569   2.960  0.2079 -0.8625 -1.6163
 9958TIP3    H251290   4.984   0.662   2.998 -0.7089 -2.3733 -0.5690
 9959TIP3   OH251291   0.330   0.816   4.540  0.0643 -0.3637  0.0740
 9959TIP3    H151292   0.385   0.877   4.589  0.6098 -0.7257 -0.0805
 9959TIP3    H251293   0.311   0.746   4.602 -0.7452  0.0582  0.3207
 9960TIP3   OH251294   1.775   0.526  16.289  0.0226 -0.3484  0.0460
 9960TIP3    H151295   1.796   0.465  16.219  0.1478  0.0214 -0.2444
 9960TIP3    H251296   1.789   0.613  16.250  0.2719 -0.1409  0.5807
 9961TIP3   OH251297   0.882   1.223  16.476  0.0114  0.2660 -0.1814
 9961TIP3    H151298   0.958   1.189  16.430  0.8307  2.0746 -0.2551
 9961TIP3    H251299   0.882   1.179  16.560  2.2831  1.5694  0.5742
 9962TIP3   OH251300   0.406   0.567   5.605  0.7005  0.1990  0.0171
 9962TIP3    H151301   0.435   0.560   5.514 -1.0046 -3.5194 -0.4303
 9962TIP3    H251302   0.476   0.526   5.656  1.6809  2.3287  0.5144
 9963TIP3   OH251303   4.520   4.836   4.028  0.2197 -0.4780 -0.3223
 9963TIP3    H151304   4.484   4.881   4.104  0.5931 -1.0799  0.2188
 9963TIP3    H251305   4.446   4.829   3.967 -0.5443 -1.5066  0.6794
 9964TIP3   OH251306   6.439   4.846  12.393 -0.1585  0.0219 -0.3074
 9964TIP3    H151307   6.485   4.924  12.424 -0.3134 -0.3903  1.0128
 9964TIP3    H251308   6.435   4.857  12.298  1.2326  0.8500 -0.3074
 9965TIP3   OH251309   3.889   5.993   5.283  0.0493 -0.0661  0.0405
 9965TIP3    H151310   3.793   5.993   5.291 -0.2126 -0.2624 -2.3145
 9965TIP3    H251311   3.910   5.904   5.254  0.8875  0.1264  0.0320
 9966TIP3   OH251312   2.559   0.119   2.075  0.1971 -0.5129  0.1263
 9966TIP3    H151313   2.609   0.183   2.024 -2.3591  1.6772  0.2163
 9966TIP3    H251314   2.613   0.102   2.152  0.0401  3.3282  1.2538
 9967TIP3   OH251315   4.671   0.714   2.446 -0.5071  0.3330  0.0939
 9967TIP3    H151316   4.625   0.707   2.529  0.2502  3.4590  0.9084
 9967TIP3    H251317   4.760   0.686   2.465 -0.7815 -0.7340 -0.1601
 9968TIP3   OH251318   6.447   3.996   2.971  0.2358 -0.2324 -0.7556
 9968TIP3    H151319   6.472   4.078   3.013  2.3472 -1.7161  1.1394
 9968TIP3    H251320   6.529   3.961   2.936  0.0152 -2.8485  1.0378
 9969TIP3   OH251321   5.494   2.757   1.197 -0.4672  0.6177  0.3885
 9969TIP3    H151322   5.537   2.829   1.151  0.5290 -0.9789 -1.3451
 9969TIP3    H251323   5.403   2.761   1.167  0.5208 -1.5812 -3.6625
 9970TIP3   OH251324   5.211   1.441  14.201 -0.7951 -0.4501 -0.1030
 9970TIP3    H151325   5.179   1.410  14.286  0.0912 -1.3844 -0.0882
 9970TIP3    H251326   5.303   1.414  14.199 -0.1134  1.6865 -0.3570
 9971TIP3   OH251327   5.703   5.522   0.005  0.5082 -0.0797  0.5098
 9971TIP3    H151328   5.774   5.586   0.011  2.4258 -1.9664 -0.7489
 9971TIP3    H251329   5.625   5.571   0.030  1.6072  3.1586 -1.6848
 9972TIP3   OH251330   1.997   2.283   3.002 -0.2617 -0.2559 -0.6119
 9972TIP3    H151331   2.078   2.325   3.031 -0.9664  1.0113 -0.4105
 9972TIP3    H251332   1.974   2.327   2.921 -0.7439 -0.6301 -0.6881
 9973TIP3   OH251333   3.048   3.218   1.273  0.6200 -0.5102  0.2083
 9973TIP3    H151334   3.037   3.233   1.367 -0.0335  2.3409 -0.2144
 9973TIP3    H251335   3.060   3.124   1.264  1.9333 -0.7271  3.2459
 9974TIP3   OH251336   6.480   4.884  10.184  0.1833 -0.1819  0.2148
 9974TIP3    H151337   6.487   4.968  10.139 -0.1508  0.1383  0.7501
 9974TIP3    H251338   6.407   4.895  10.244  2.7003  0.6209  3.3869
 9975TIP3   OH251339   4.245   5.111   1.693  0.0472  0.0497  0.1090
 9975TIP3    H151340   4.215   5.200   1.672  1.1838  0.8684  1.7099
 9975TIP3    H251341   4.277   5.118   1.783  1.1099 -1.7521 -0.0923
 9976TIP3   OH251342   4.540   3.496  14.063  0.7472  0.8580 -0.6776
 9976TIP3    H151343   4.615   3.442  14.088 -0.5086  0.1442  1.9857
 9976TIP3    H251344   4.556   3.580  14.105  0.1599  0.7433 -0.2011
 9977TIP3   OH251345   1.381   1.007  14.750 -0.5346  0.2446  0.2894
 9977TIP3    H151346   1.408   1.076  14.690 -0.0060  2.9127  3.2717
 9977TIP3    H251347   1.286   1.015  14.755 -0.9990 -2.1823 -2.4456
 9978TIP3   OH251348   6.638   3.416   6.378 -0.1584 -0.4642 -0.0493
 9978TIP3    H151349   6.614   3.506   6.402  0.2130 -0.3005 -0.2887
 9978TIP3    H251350   6.685   3.425   6.295  1.0651 -0.7399  0.5960
 9979TIP3   OH251351   4.996   6.362  11.156  0.1251  0.0176  0.0043
 9979TIP3    H151352   4.959   6.377  11.244 -0.3215  0.9765 -0.3237
 9979TIP3    H251353   4.920   6.366  11.098 -0.5566 -5.8059 -0.0865
 9980TIP3   OH251354   3.120   5.479   3.356 -0.0927 -0.2618  0.2242
 9980TIP3    H151355   3.064   5.553   3.334  1.1505  0.8319  0.5630
 9980TIP3    H251356   3.081   5.442   3.435  0.6043  1.6284  1.5432
 9981TIP3   OH251357   1.060   5.207   5.521  1.0326  0.2023 -0.1842
 9981TIP3    H151358   1.100   5.159   5.594 -1.1781  1.1934  1.8059
 9981TIP3    H251359   1.011   5.141   5.472  1.1515 -0.1936  0.2258
 9982TIP3   OH251360   1.427   0.200  14.863  0.0234 -1.0659  0.5103
 9982TIP3    H151361   1.476   0.224  14.784  0.2480  0.3065  1.0367
 9982TIP3    H251362   1.397   0.111  14.846  0.0049 -0.7798 -1.1561
 9983TIP3   OH251363   2.079   0.864  13.444  0.1309  0.1062  0.7290
 9983TIP3    H151364   2.035   0.949  13.436  0.6629  0.2533 -1.0746
 9983TIP3    H251365   2.170   0.886  13.462  0.6314  0.0464 -1.3989
 9984TIP3   OH251366   6.382   2.957   5.533 -0.1026 -0.2017 -0.0097
 9984TIP3    H151367   6.292   2.924   5.534  0.3218 -1.4165 -0.7374
 9984TIP3    H251368   6.372   3.052   5.530 -1.3552 -0.2025  2.0421
 9985TIP3   OH251369   6.261   6.675  14.636  0.0757  0.2285 -0.1026
 9985TIP3    H151370   6.237   6.765  14.656 -0.3033  0.9613 -3.2583
 9985TIP3    H251371   6.321   6.682  14.562  0.5459 -2.1060 -0.0279
 9986TIP3   OH251372   4.901   2.331  13.977 -0.2899 -0.5047 -0.0043
 9986TIP3    H151373   4.966   2.310  13.910 -0.0241  3.0539 -1.0613
 9986TIP3    H251374   4.836   2.385  13.931 -1.7228 -0.4371  1.9760
 9987TIP3   OH251375   4.694   1.532   1.414  0.4262  0.2674  0.0565
 9987TIP3    H151376   4.626   1.571   1.359  1.4485 -0.1014 -1.5416
 9987TIP3    H251377   4.710   1.597   1.483  0.5143  1.6548 -1.2324
 9988TIP3   OH251378   4.373   1.858  10.864 -0.3014  0.0542 -0.2231
 9988TIP3    H151379   4.399   1.875  10.954 -1.5874 -1.3518  0.4603
 9988TIP3    H251380   4.414   1.774  10.842  2.6069  1.7864 -2.1151
 9989TIP3   OH251381   3.517   4.317  16.399 -0.4492 -1.0154  0.2914
 9989TIP3    H151382   3.455   4.251  16.366 -0.2384 -1.5678  0.9750
 9989TIP3    H251383   3.595   4.266  16.422 -0.4692 -0.6011  1.3097
 9990TIP3   OH251384   5.830   1.790   6.077 -0.4512 -0.3051  0.1834
 9990TIP3    H151385   5.893   1.759   6.142 -0.7796 -0.3866  0.4606
 9990TIP3    H251386   5.795   1.711   6.037 -0.8926 -0.2813  0.5178
 9991TIP3   OH251387   5.001   0.028  17.187 -0.4999 -0.1455  0.6220
 9991TIP3    H151388   4.957   0.110  17.205 -1.3498 -0.2801 -0.6694
 9991TIP3    H251389   4.986  -0.026  17.265  0.0211  0.8897  1.4525
 9992TIP3   OH251390   4.591   5.539  11.749  0.0673 -0.1034 -0.2738
 9992TIP3    H151391   4.620   5.582  11.668 -1.0767  2.0891  0.4118
 9992TIP3    H251392   4.608   5.604  11.818 -2.6251 -0.3179  0.6918
 9993TIP3   OH251393   3.954   0.169  11.510 -0.2506 -0.0659 -0.9119
 9993TIP3    H151394   3.967   0.258  11.542  3.7165 -1.4920  2.4393
 9993TIP3    H251395   4.016   0.159  11.438  1.2742 -0.6961  0.4188
 9994TIP3   OH251396   1.709   5.995  14.022 -0.6663  0.2625 -0.1893
 9994TIP3    H151397   1.755   6.061  14.076 -1.3889  0.8447 -0.2739
 9994TIP3    H251398   1.750   5.912  14.046 -0.5620  0.5928  0.8197
 9995TIP3   OH251399   0.420   3.455   3.609  0.4381  0.3932  0.1345
 9995TIP3    H151400   0.454   3.491   3.528 -1.0982 -0.0139 -0.7234
 9995TIP3    H251401   0.484   3.388   3.635  0.0579 -0.7417 -1.7207
 9996TIP3   OH251402   3.435   0.533  14.131  0.3733 -0.0183  0.6885
 9996TIP3    H151403   3.497   0.476  14.175  0.2330  0.5803  1.7017
 9996TIP3    H251404   3.399   0.588  14.201 -0.5854  0.2958 -0.0249
 9997TIP3   OH251405   4.682   6.103   2.198  0.4651  0.1953 -0.2736
 9997TIP3    H151406   4.773   6.080   2.219  0.3383 -0.3682 -0.3252
 9997TIP3    H251407   4.689   6.172   2.133  0.8590  0.3785 -0.0410
 9998TIP3   OH251408   0.060   2.655  14.874 -0.5078 -0.1457  0.0333
 9998TIP3    H151409   0.103   2.569  14.873 -0.3297 -0.0743  0.9965
 9998TIP3    H251410   0.082   2.692  14.959 -1.8179  0.2386  0.2211
 9999TIP3   OH251411   1.121   4.891  12.832  0.2920  0.3514 -0.3805
 9999TIP3    H151412   1.189   4.929  12.777 -0.6334 -0.6018 -2.2583
 9999TIP3    H251413   1.047   4.952  12.824  0.1354  0.1825 -0.2247
10000TIP3   OH251414   2.484   4.677   1.906 -0.1356  0.0711  0.3007
10000TIP3    H151415   2.463   4.584   1.896  0.7124 -0.6623  3.8832
10000TIP3    H251416   2.401   4.717   1.932 -0.3655  0.2332 -0.6476
10001TIP3   OH251417   2.060   1.250   3.627  0.0015  0.0258  0.6031
10001TIP3    H151418   2.107   1.326   3.592  0.1308 -0.3179  0.0256
10001TIP3    H251419   1.979   1.286   3.662 -0.6494  0.2464 -1.0422
10002TIP3   OH251420   5.167   4.293   2.493 -0.5293 -0.2904  0.3910
10002TIP3    H151421   5.195   4.228   2.558 -0.1569 -0.0494  0.4772
10002TIP3    H251422   5.232   4.363   2.500 -0.4232 -0.3104 -0.3262
10003TIP3   OH251423   6.663   0.670   5.363 -0.1858 -0.1208  0.1498
10003TIP3    H151424   6.602   0.674   5.288  0.3314 -1.2380 -0.3538
10003TIP3    H251425   6.653   0.581   5.396  1.7752 -0.6067 -0.4711
10004TIP3   OH251426   1.951   6.733  15.762  0.2391  0.0547  0.5766
10004TIP3    H151427   1.963   6.818  15.805  0.5813  0.1012  0.3929
10004TIP3    H251428   1.971   6.669  15.830  3.4204  0.1067 -0.1446
10005TIP3   OH251429   1.001   2.045   3.236  0.1804 -0.2373 -0.5699
10005TIP3    H151430   1.037   2.021   3.321  0.6188 -0.4975 -0.8241
10005TIP3    H251431   0.941   2.118   3.254  1.7878  1.0728 -0.2873
10006TIP3   OH251432   2.429   5.847   0.427 -0.1456  0.0619 -0.4707
10006TIP3    H151433   2.409   5.926   0.477  0.0900 -0.3141  0.2294
10006TIP3    H251434   2.386   5.860   0.342 -0.0274  0.9743 -0.3917
10007TIP3   OH251435   3.340   0.038  14.603 -0.3788 -0.5454  0.6208
10007TIP3    H151436   3.278   0.077  14.664 -2.0688  0.5215 -1.6446
10007TIP3    H251437   3.424   0.040  14.649 -1.3520  1.2767  2.4429
10008TIP3   OH251438   4.196   0.655  15.185  0.0615 -0.1450 -0.2254
10008TIP3    H151439   4.266   0.592  15.170 -0.8694 -1.2008 -0.3035
10008TIP3    H251440   4.136   0.643  15.111  1.2679  2.9249 -1.8799
10009TIP3   OH251441   2.483   4.596  12.451  0.4852 -0.5566 -0.3277
10009TIP3    H151442   2.577   4.579  12.447  0.1390 -2.4462 -2.7210
10009TIP3    H251443   2.452   4.542  12.524  1.3083  0.7863  1.0858
10010TIP3   OH251444   5.708   0.075  15.730  0.0334  0.5795 -0.0465
10010TIP3    H151445   5.739  -0.015  15.721 -2.2581 -0.4538  1.5237
10010TIP3    H251446   5.703   0.107  15.640  0.9327 -0.8163 -0.6273
10011TIP3   OH251447   0.018   6.497   0.324 -0.8081 -0.0681 -0.4303
10011TIP3    H151448  -0.056   6.466   0.375 -0.8827  0.1187 -0.4262
10011TIP3    H251449   0.073   6.419   0.311 -0.6568 -0.0606  0.1528
10012TIP3   OH251450   0.447   4.739   5.987  0.9027  0.1828  0.2763
10012TIP3    H151451   0.377   4.739   6.051  0.5914 -0.3258 -0.0607
10012TIP3    H251452   0.512   4.678   6.021  1.0080  0.3654  0.4022
10013TIP3   OH251453   3.087   1.507   4.228 -0.5243 -0.2528  0.1219
10013TIP3    H151454   3.105   1.413   4.222  0.6610 -0.0180 -0.3275
10013TIP3    H251455   3.113   1.542   4.143  0.2872  0.6629  0.7237
10014TIP3   OH251456   3.805   4.853  13.929  0.3496 -0.1590  0.2724
10014TIP3    H151457   3.741   4.911  13.888  0.0670 -0.8416 -0.2652
10014TIP3    H251458   3.762   4.823  14.009  1.0483  1.4680  1.2913
10015TIP3   OH251459   0.480   3.030  13.233  0.0491  0.0749  0.7456
10015TIP3    H151460   0.449   3.114  13.200 -1.1917 -0.6276  0.0387
10015TIP3    H251461   0.412   3.003  13.295  1.7581  0.8258  3.0713
10016TIP3   OH251462   6.373   5.477  14.779 -0.2370 -0.2477 -0.0844
10016TIP3    H151463   6.302   5.428  14.736  0.3408 -1.0602 -0.1354
10016TIP3    H251464   6.386   5.432  14.862  0.7873 -0.6345 -0.4387
10017TIP3   OH251465   3.997   2.929  17.080 -0.2052 -0.8392 -0.0724
10017TIP3    H151466   3.986   2.897  17.169  0.1933 -2.1569 -0.4719
10017TIP3    H251467   3.933   2.999  17.072 -1.0291 -1.4408  0.9026
10018TIP3   OH251468   0.001   5.200   4.011  0.4265 -0.0613  0.1540
10018TIP3    H151469   0.016   5.144   3.935  1.7239  1.9431 -1.1397
10018TIP3    H251470  -0.091   5.223   4.006  0.2387 -0.8389 -0.1589
10019TIP3   OH251471   4.116   6.509   5.780 -0.2092  0.0279  0.4843
10019TIP3    H151472   4.066   6.522   5.700  0.5455  0.5371  0.0930
10019TIP3    H251473   4.072   6.435   5.823 -0.5333 -0.3512 -0.4621
10020TIP3   OH251474   3.167   4.619  12.904 -0.5911  0.8205  0.7161
10020TIP3    H151475   3.198   4.572  12.982 -2.2749  0.0826  0.9866
10020TIP3    H251476   3.101   4.681  12.938 -2.2526 -0.3616 -0.2098
10021TIP3   OH251477   0.136   6.283   2.530  0.2935  0.1404 -0.5578
10021TIP3    H151478   0.046   6.297   2.560 -0.0332 -0.3762 -1.2966
10021TIP3    H251479   0.155   6.192   2.551  0.7170  0.2963 -0.2357
10022TIP3   OH251480   4.581   0.914  15.639  0.1819  0.2014  0.4604
10022TIP3    H151481   4.501   0.965  15.633  0.1387  0.2010  0.9448
10022TIP3    H251482   4.554   0.823  15.625  0.2792  0.3211 -0.5327
10023TIP3   OH251483   0.303   0.689  16.682 -0.0812  0.4197 -0.2764
10023TIP3    H151484   0.248   0.613  16.665  1.3129 -0.5139 -0.7967
10023TIP3    H251485   0.274   0.721  16.768 -0.6892 -0.6954 -0.0536
10024TIP3   OH251486   5.417   3.735   0.440  0.6769  0.5352 -0.2278
10024TIP3    H151487   5.472   3.715   0.364  1.8073  1.8869  0.2036
10024TIP3    H251488   5.327   3.723   0.408  1.1377 -2.6880 -0.6815
10025TIP3   OH251489   4.297   6.204   6.065  0.1969 -0.1115 -0.0524
10025TIP3    H151490   4.344   6.123   6.046 -1.3568 -0.6497 -1.9081
10025TIP3    H251491   4.302   6.213   6.161  2.6441 -0.9320 -0.0276
10026TIP3   OH251492   1.264   4.484  13.887  0.1773 -0.3431  0.2718
10026TIP3    H151493   1.335   4.420  13.888  0.3069 -0.2264 -0.4639
10026TIP3    H251494   1.184   4.431  13.886  0.2773 -0.4957  0.1020
10027TIP3   OH251495   5.943   2.249  15.939 -0.4777 -0.5701  0.1318
10027TIP3    H151496   5.962   2.343  15.936 -1.0994 -0.4372  0.1630
10027TIP3    H251497   6.025   2.209  15.970 -0.6056  0.1006  1.4345
10028TIP3   OH251498   1.949   5.485   1.620  0.1588  0.3021  0.0783
10028TIP3    H151499   1.987   5.448   1.540  0.3573  0.2268  0.2045
10028TIP3    H251500   1.927   5.575   1.597 -0.7387 -0.0236 -0.3609
10029TIP3   OH251501   4.426   3.470   6.594 -0.4719  0.2078 -0.0913
10029TIP3    H151502   4.465   3.546   6.551  1.2712 -0.6391 -0.0705
10029TIP3    H251503   4.386   3.421   6.522 -3.1863  1.9244  0.0729
10030TIP3   OH251504   3.020   0.092  17.007  0.2757 -0.1555  0.2886
10030TIP3    H151505   3.008   0.095  16.912  0.4433 -2.1827  0.1506
10030TIP3    H251506   3.045   0.181  17.031 -0.0809  0.4833 -1.5098
10031TIP3   OH251507   5.095   1.548  13.069 -0.1318  0.0794 -0.0183
10031TIP3    H151508   5.029   1.482  13.048  0.0199 -0.2911  0.6324
10031TIP3    H251509   5.143   1.561  12.988 -0.2594 -0.5098 -0.1920
10032TIP3   OH251510   3.732   6.037  15.026  0.6126  0.1547  0.2107
10032TIP3    H151511   3.669   5.981  14.982  1.3588 -1.1643  0.7654
10032TIP3    H251512   3.786   5.977  15.078  1.4808  1.3766  0.7779
10033TIP3   OH251513   6.774   3.074  15.493 -0.2185  0.0079 -0.0205
10033TIP3    H151514   6.769   3.146  15.555 -0.4317 -0.5910  0.6731
10033TIP3    H251515   6.715   3.099  15.422 -0.0952  0.6259  0.0904
10034TIP3   OH251516   0.741   3.052  13.817  0.3700 -0.0280  0.1455
10034TIP3    H151517   0.677   2.986  13.845  0.7235 -0.4838 -0.1023
10034TIP3    H251518   0.712   3.077  13.729  1.0614 -0.9406 -0.3617
10035TIP3   OH251519   5.685   4.942   6.316 -0.3095 -0.0508 -0.2395
10035TIP3    H151520   5.754   4.892   6.359 -0.2680 -0.3304 -0.6268
10035TIP3    H251521   5.725   5.027   6.297  0.2648 -0.5575 -1.3845
10036TIP3   OH251522   5.953   0.789  11.176  0.0829  0.2092 -0.3973
10036TIP3    H151523   5.899   0.733  11.120  1.5207 -1.4453 -0.2033
10036TIP3    H251524   6.026   0.734  11.202  2.6807  2.7295 -1.7976
10037TIP3   OH251525   0.221   5.236   3.072 -0.2170  0.2665 -0.1133
10037TIP3    H151526   0.314   5.241   3.052  0.5083 -0.4383  2.6450
10037TIP3    H251527   0.193   5.327   3.081  0.8111  0.4862  1.2576
10038TIP3   OH251528   2.280   4.320  17.065  0.3663 -0.2765  0.2456
10038TIP3    H151529   2.186   4.308  17.054  0.0759  1.8251  0.1706
10038TIP3    H251530   2.299   4.277  17.148 -0.8537  0.1323  0.7622
10039TIP3   OH251531   4.163   1.321  15.679  0.1149  0.4240  0.6807
10039TIP3    H151532   4.120   1.267  15.745  0.2433 -0.2862  0.1965
10039TIP3    H251533   4.152   1.273  15.597  0.8575  0.7823  0.3554
10040TIP3   OH251534   2.843   5.576   0.424 -0.4559 -0.4523 -0.4457
10040TIP3    H151535   2.773   5.559   0.487 -1.8448 -0.6322 -1.9928
10040TIP3    H251536   2.798   5.602   0.344  1.3137  2.0386 -0.7478
10041TIP3   OH251537   2.185   5.023  15.999 -0.1735 -0.2507  0.3650
10041TIP3    H151538   2.101   5.068  15.995 -0.7469 -0.9465  2.7761
10041TIP3    H251539   2.168   4.937  15.961 -0.1300  0.1139 -0.5088
10042TIP3   OH251540   1.357   0.531   3.936 -0.5351 -0.3783  0.0871
10042TIP3    H151541   1.382   0.441   3.959  2.3250  0.7720  2.0189
10042TIP3    H251542   1.379   0.583   4.013 -0.5510  2.2382 -1.5487
10043TIP3   OH251543   2.034   4.771  10.539 -0.1528 -0.3555 -0.3228
10043TIP3    H151544   1.943   4.782  10.510 -0.2998  1.2878  0.6138
10043TIP3    H251545   2.052   4.678  10.527 -1.7836 -0.6154 -1.0309
10044TIP3   OH251546   3.206   6.422  16.526  0.2510  0.0480 -0.3366
10044TIP3    H151547   3.223   6.330  16.506 -2.7235 -0.8700  0.8291
10044TIP3    H251548   3.253   6.438  16.607  2.7168  0.3407 -1.7320
10045TIP3   OH251549   1.474   2.200  11.034 -0.0384 -0.4420 -0.2582
10045TIP3    H151550   1.512   2.157  10.957  0.3371 -0.8056  0.1184
10045TIP3    H251551   1.410   2.261  10.999  0.8269  0.1082 -0.9094
10046TIP3   OH251552   3.471   4.273   2.280  0.1293 -0.0050  0.1859
10046TIP3    H151553   3.457   4.271   2.185  0.3868 -0.3225  0.1544
10046TIP3    H251554   3.475   4.181   2.305 -1.5950  0.0419  0.7538
10047TIP3   OH251555   4.883   4.818   0.409  0.3242  0.0501  0.3506
10047TIP3    H151556   4.906   4.746   0.468  1.1576 -0.1120 -0.1658
10047TIP3    H251557   4.949   4.814   0.340  0.4934  1.4295  0.4174
10048TIP3   OH251558   0.552   0.928   0.666 -0.1785  0.4870  0.5132
10048TIP3    H151559   0.587   0.843   0.693 -0.2568  0.2286 -0.1818
10048TIP3    H251560   0.627   0.987   0.670  0.6201 -0.2502 -1.8382
10049TIP3   OH251561   4.792   4.677  13.169  0.2960 -0.0289  0.5385
10049TIP3    H151562   4.754   4.606  13.220  0.7852 -2.4922 -2.2629
10049TIP3    H251563   4.870   4.639  13.129  1.0424  2.3606 -0.4725
10050TIP3   OH251564   3.209   2.392   1.524  0.1754 -0.3226 -0.3634
10050TIP3    H151565   3.227   2.382   1.618 -0.5924 -0.7668 -0.2579
10050TIP3    H251566   3.121   2.355   1.512 -1.0779  2.4403 -0.6981
10051TIP3   OH251567   3.411   0.719   4.453  0.0398 -0.1840  0.4688
10051TIP3    H151568   3.423   0.763   4.536  1.3341 -0.5968  0.5228
10051TIP3    H251569   3.375   0.786   4.395 -3.0533 -0.4279  1.8790
10052TIP3   OH251570   2.653   1.030   0.887  0.2933 -0.1056 -0.0711
10052TIP3    H151571   2.580   1.049   0.946  2.3280 -2.6528  3.7477
10052TIP3    H251572   2.706   1.109   0.888 -1.2481  0.9950 -1.1602
10053TIP3   OH251573   0.739   4.472  13.675 -0.2828 -0.0330  0.6657
10053TIP3    H151574   0.769   4.457  13.585 -3.9840  1.1813 -0.9751
10053TIP3    H251575   0.703   4.388  13.702 -1.2673  0.1827  0.0626
10054TIP3   OH251576   3.836   5.147  16.261 -0.5178 -0.3271 -0.6423
10054TIP3    H151577   3.825   5.135  16.356 -0.9755 -1.8607 -0.8521
10054TIP3    H251578   3.764   5.204  16.236  0.2847  1.0781  0.0793
10055TIP3   OH251579   3.520   6.598   1.365 -0.1332 -0.2451 -0.0022
10055TIP3    H151580   3.539   6.607   1.459 -1.0941 -0.1635  0.1958
10055TIP3    H251581   3.440   6.649   1.352  0.3715  0.3272 -1.0130
10056TIP3   OH251582   2.076   0.364  13.661 -0.0151  0.2339  0.3741
10056TIP3    H151583   2.148   0.315  13.702  1.4805  0.0490 -2.2444
10056TIP3    H251584   2.091   0.455  13.688  0.2238 -0.0372  1.1762
10057TIP3   OH251585   1.886   5.575   3.701 -0.2818  0.3525 -0.1592
10057TIP3    H151586   1.813   5.517   3.721 -2.1389  2.1081 -1.4262
10057TIP3    H251587   1.897   5.628   3.780  0.1677 -0.4402  0.3179
10058TIP3   OH251588   4.707   6.237   1.966  0.0106 -0.7636 -0.0350
10058TIP3    H151589   4.735   6.192   1.886 -2.2237 -1.1850 -0.6528
10058TIP3    H251590   4.626   6.281   1.942 -0.2504 -0.1600  1.7860
10059TIP3   OH251591   4.225   2.782  15.728 -0.5183  0.5032  0.2034
10059TIP3    H151592   4.271   2.861  15.755  0.0168 -0.0231  0.8476
10059TIP3    H251593   4.135   2.812  15.709  0.2055  1.6576 -1.7047
10060TIP3   OH251594   1.132   2.453   1.205 -0.4240  0.2327 -0.0963
10060TIP3    H151595   1.095   2.537   1.229 -2.4112 -0.8445  0.8707
10060TIP3    H251596   1.160   2.414   1.287 -0.5003 -0.4611 -0.3835
10061TIP3   OH251597   0.653   1.141  14.038  0.2770  0.1125 -0.0158
10061TIP3    H151598   0.610   1.179  14.115 -0.0009  2.2082 -1.1219
10061TIP3    H251599   0.740   1.181  14.038 -0.4277  1.8455 -1.8690
10062TIP3   OH251600   5.060   3.447  15.367 -1.0806 -0.1358 -0.6631
10062TIP3    H151601   4.991   3.448  15.300  0.4561  0.4549 -2.3256
10062TIP3    H251602   5.015   3.469  15.448 -2.5903  1.8484 -1.9517
10063TIP3   OH251603   4.485   0.555   4.177 -0.1241  0.8754 -0.2085
10063TIP3    H151604   4.467   0.477   4.229  0.3910 -0.2929 -1.7093
10063TIP3    H251605   4.409   0.564   4.119  0.0272  1.2009 -0.3603
10064TIP3   OH251606   0.880   5.952  16.597 -0.7139 -0.0462  0.2418
10064TIP3    H151607   0.844   6.013  16.533 -0.0883 -0.4358 -0.4838
10064TIP3    H251608   0.952   5.909  16.552  1.9613  2.0342  2.1814
10065TIP3   OH251609   0.374   1.186  17.104 -0.6659 -0.5975  0.2475
10065TIP3    H151610   0.300   1.221  17.054 -0.2581 -1.5827 -1.1316
10065TIP3    H251611   0.428   1.262  17.123  0.5706 -0.3799 -3.2853
10066TIP3   OH251612   3.454   2.967  13.411  0.2313 -0.3650 -0.0186
10066TIP3    H151613   3.481   3.023  13.484  0.9295 -0.4158 -0.2255
10066TIP3    H251614   3.443   2.880  13.450 -1.0533 -0.0615  0.3428
10067TIP3   OH251615   5.940   1.192  12.951 -0.1123 -0.1354 -0.2457
10067TIP3    H151616   5.906   1.281  12.954 -0.2638 -0.1335 -1.5716
10067TIP3    H251617   6.020   1.195  13.005 -0.3271  0.6934  0.0404
10068TIP3   OH251618   1.316   2.015  17.167 -0.1881  0.2440  0.8305
10068TIP3    H151619   1.396   1.994  17.118 -1.5368 -0.4893 -1.2151
10068TIP3    H251620   1.289   1.932  17.205  0.1718  0.5535  1.7722
10069TIP3   OH251621   0.458   1.559  12.095 -0.1361 -0.7155 -0.1424
10069TIP3    H151622   0.394   1.519  12.154  1.5907 -2.5461  0.6106
10069TIP3    H251623   0.508   1.619  12.150  0.8093 -1.6620  0.0726
10070TIP3   OH251624   5.204   6.770  12.123  0.4459 -0.3205 -0.3474
10070TIP3    H151625   5.276   6.821  12.161  0.0357  0.9303 -1.1647
10070TIP3    H251626   5.210   6.787  12.029 -0.7980 -0.3358 -0.4452
10071TIP3   OH251627   3.380   1.680  15.881 -0.4330 -0.0942 -0.5528
10071TIP3    H151628   3.457   1.624  15.886 -0.0854  0.3853 -0.3822
10071TIP3    H251629   3.313   1.627  15.839 -0.0841 -0.6029 -0.4680
10072TIP3   OH251630   6.419   1.680  15.573  0.1941 -0.4359  0.4806
10072TIP3    H151631   6.376   1.615  15.629 -0.6076  0.4900  0.9596
10072TIP3    H251632   6.348   1.733  15.538  0.8042 -0.1344 -0.3315
10073TIP3   OH251633   1.328   6.009  15.305  0.3942 -0.4961 -0.4310
10073TIP3    H151634   1.412   6.007  15.259  0.8330 -0.7976  0.3495
10073TIP3    H251635   1.262   6.002  15.236  1.0486 -1.7935 -0.9618
10074TIP3   OH251636   3.751   6.144  16.115  0.0201  0.1955 -0.0540
10074TIP3    H151637   3.809   6.068  16.119 -0.4018 -0.2106 -1.0303
10074TIP3    H251638   3.765   6.180  16.027  0.2467  1.2821  0.4162
10075TIP3   OH251639   5.281   6.086  17.074  0.6675  0.4633 -0.1280
10075TIP3    H151640   5.248   6.025  17.140 -0.2626  0.5247 -0.5221
10075TIP3    H251641   5.244   6.171  17.101  0.3586  0.5040 -0.6667
10076TIP3   OH251642   5.089   2.155  16.887  0.0467 -0.2745 -0.6267
10076TIP3    H151643   4.998   2.179  16.870  0.3744  0.8447 -0.8352
10076TIP3    H251644   5.086   2.060  16.900 -1.2694 -0.1384  0.2479
10077TIP3   OH251645   0.933   3.003  16.659  0.0562 -0.3883 -0.4222
10077TIP3    H151646   0.853   3.030  16.703  0.7289  4.3166 -1.5316
10077TIP3    H251647   0.908   2.992  16.568  0.1532 -2.2742 -0.2663
10078TIP3   OH251648   6.705   6.753   2.754 -0.0486 -0.6827  0.6053
10078TIP3    H151649   6.750   6.837   2.750 -0.2514 -0.5739  0.5649
10078TIP3    H251650   6.666   6.742   2.667 -2.9221  0.8201  1.5503
10079TIP3   OH251651   5.028   5.638  16.071 -0.2224  0.5377 -0.1415
10079TIP3    H151652   4.999   5.643  16.162 -0.3112 -2.8757  0.1279
10079TIP3    H251653   5.113   5.593  16.076  0.5345  1.6940 -1.6843
10080TIP3   OH251654   3.661   4.140  15.039  0.3504  0.4529  0.1672
10080TIP3    H151655   3.623   4.201  15.101 -0.4833  0.8368 -0.7083
10080TIP3    H251656   3.587   4.088  15.008  0.4345  1.4167 -1.7926
10081TIP3   OH251657   4.712   5.339   3.499 -0.5258  0.0518  0.5037
10081TIP3    H151658   4.762   5.258   3.508 -0.6581  0.0221  1.0138
10081TIP3    H251659   4.750   5.382   3.423  0.3370  0.0701  0.9260
10082TIP3   OH251660   4.844   1.807  15.540  0.2642  0.3632  0.4911
10082TIP3    H151661   4.804   1.841  15.620  0.9159 -0.9169  1.4067
10082TIP3    H251662   4.937   1.825  15.551  0.0997  3.4150 -1.6633
10083TIP3   OH251663   3.116   3.235   4.738  0.7548  0.0626  0.2043
10083TIP3    H151664   3.188   3.200   4.791  2.1030  0.6401 -1.1689
10083TIP3    H251665   3.149   3.318   4.704 -1.3535  1.3867  1.1719
10084TIP3   OH251666   1.845   4.230   1.718  0.6372 -0.1317 -0.5638
10084TIP3    H151667   1.782   4.165   1.684  0.7225 -1.1472  1.0870
10084TIP3    H251668   1.928   4.182   1.722  0.3072 -0.6383  2.5041
10085TIP3   OH251669   2.941   0.679   4.968 -0.0944 -0.4763  0.0484
10085TIP3    H151670   2.848   0.673   4.946 -0.4693  0.9883  1.0192
10085TIP3    H251671   2.954   0.610   5.033 -0.4648 -0.8109 -0.2279
10086TIP3   OH251672   3.037   0.822  12.276 -0.2829  0.2278  0.0535
10086TIP3    H151673   2.979   0.857  12.344  0.4833 -0.5696  1.1602
10086TIP3    H251674   3.048   0.730  12.300  0.6223  0.1232 -0.7201
10087TIP3   OH251675   5.145   6.787   4.590  0.1310  0.4549  0.6374
10087TIP3    H151676   5.177   6.861   4.537 -0.6536  0.6256  0.3831
10087TIP3    H251677   5.059   6.767   4.553  0.3037 -0.5376  0.7650
10088TIP3   OH251678   5.021   4.151  12.209 -0.4151  0.0093  0.1358
10088TIP3    H151679   5.097   4.106  12.173 -1.3614 -1.8502  0.3310
10088TIP3    H251680   4.969   4.175  12.132 -0.3046  0.0203  0.0645
10089TIP3   OH251681   6.406   3.651  12.500 -0.1440  0.5329  0.0552
10089TIP3    H151682   6.493   3.680  12.474 -0.4461  0.9646 -0.4873
10089TIP3    H251683   6.400   3.561  12.468  0.4103  0.2054  0.8392
10090TIP3   OH251684   0.885   2.686  16.584  0.6212  0.1040  0.0269
10090TIP3    H151685   0.911   2.778  16.589  2.3676 -0.3885  2.1734
10090TIP3    H251686   0.790   2.686  16.596  0.5620  1.6321 -0.3203
10091TIP3   OH251687   3.857   3.965   3.649 -0.1335 -0.1093 -0.5536
10091TIP3    H151688   3.777   4.012   3.629 -0.6299 -0.7529 -0.1075
10091TIP3    H251689   3.842   3.925   3.735  0.3614 -0.8725 -0.8060
10092TIP3   OH251690   6.807   2.256   5.286 -0.3377 -0.1290 -0.1086
10092TIP3    H151691   6.847   2.178   5.248 -0.1082  0.2855 -0.7545
10092TIP3    H251692   6.857   2.329   5.248 -1.6167  0.3997 -0.8525
10093TIP3   OH251693   4.415   1.938   0.325 -0.3701  0.0347 -0.4732
10093TIP3    H151694   4.471   1.866   0.355 -1.7772 -0.0942  2.1059
10093TIP3    H251695   4.328   1.899   0.316 -0.9246  1.1374 -0.1143
10094TIP3   OH251696   3.913   5.902  16.194 -0.0804 -0.1763  0.0231
10094TIP3    H151697   3.921   5.876  16.102 -0.8495  0.6368 -0.2961
10094TIP3    H251698   4.002   5.899  16.228  0.4812  1.1580 -1.2283
10095TIP3   OH251699   6.791   1.238   3.465  0.3534 -0.3550 -0.8302
10095TIP3    H151700   6.862   1.285   3.421  0.1056  0.0030 -0.8574
10095TIP3    H251701   6.790   1.152   3.425  1.6381 -0.8328  0.0845
10096TIP3   OH251702   3.936   6.575  16.901 -0.0920 -0.2671 -0.0198
10096TIP3    H151703   3.880   6.652  16.898 -0.2152 -0.3676 -0.4455
10096TIP3    H251704   3.899   6.520  16.970  0.8408  0.6868  1.2935
10097TIP3   OH251705   5.660   1.013  10.976  0.2762 -0.1809  0.3370
10097TIP3    H151706   5.661   0.923  10.945 -0.7659 -0.4275  0.9774
10097TIP3    H251707   5.596   1.014  11.047  0.5972  0.9682  0.6435
10098TIP3   OH251708   1.534   6.039   0.266 -0.3997  0.2915 -0.0821
10098TIP3    H151709   1.480   5.982   0.212  1.2616 -1.5601  0.1061
10098TIP3    H251710   1.613   6.055   0.213  0.3774  0.0762  0.9747
10099TIP3   OH251711   2.011   4.612   3.226 -0.1023 -0.5144 -0.1485
10099TIP3    H151712   2.095   4.567   3.228  0.0548 -0.2049  0.2372
10099TIP3    H251713   2.032   4.703   3.207 -0.2564 -0.2367  0.9303
10100TIP3   OH251714   0.666   5.014  16.623 -0.3826 -0.0622  0.2092
10100TIP3    H151715   0.713   5.086  16.665  0.8154 -0.4179 -0.4878
10100TIP3    H251716   0.604   5.058  16.564  1.7071  0.4935 -1.7303
10101TIP3   OH251717   4.769   2.886  13.318 -0.7026 -0.2908  0.7416
10101TIP3    H151718   4.699   2.828  13.348 -0.6027 -0.4615  0.6462
10101TIP3    H251719   4.835   2.883  13.387 -0.4595 -0.7073  0.4942
10102TIP3   OH251720   4.164   0.815   4.132  0.4274 -0.0665 -0.4280
10102TIP3    H151721   4.234   0.877   4.112 -0.6530  2.1992  2.1388
10102TIP3    H251722   4.177   0.795   4.225 -1.1963 -1.1439 -0.4055
10103TIP3   OH251723   2.198   0.314   5.147 -0.2924 -0.3225  0.0586
10103TIP3    H151724   2.243   0.364   5.079 -3.2149  3.3371  0.5338
10103TIP3    H251725   2.158   0.240   5.100  0.1582  0.4747 -1.6511
10104TIP3   OH251726   5.891   0.936  16.273 -0.6668 -0.2085  0.2345
10104TIP3    H151727   5.859   0.912  16.187  0.1094  1.0325 -0.4284
10104TIP3    H251728   5.825   0.996  16.307 -1.3340 -1.2412  0.8386
10105TIP3   OH251729   2.684   6.515  10.992 -0.4993 -0.4711  0.1379
10105TIP3    H151730   2.627   6.461  10.937  0.3978 -0.9583 -0.3483
10105TIP3    H251731   2.749   6.550  10.931  2.0796 -3.0632  1.1721
10106TIP3   OH251732   5.996   1.916   2.589  0.5114  0.4017  0.4813
10106TIP3    H151733   6.003   1.981   2.659  2.6673 -0.0399  0.7461
10106TIP3    H251734   6.034   1.959   2.512 -1.7706  0.8585 -0.4701
10107TIP3   OH251735   6.617   5.196  16.297  0.6823  0.2964 -0.2199
10107TIP3    H151736   6.643   5.180  16.207  2.6393  1.0570  0.1581
10107TIP3    H251737   6.524   5.175  16.300  1.2211 -2.7679 -1.6667
10108TIP3   OH251738   3.748   2.110   4.743  0.7198 -0.5591  0.7596
10108TIP3    H151739   3.729   2.073   4.656 -1.6891  0.1536  0.9103
10108TIP3    H251740   3.670   2.089   4.795  0.9153  1.4041  1.9395
10109TIP3   OH251741   6.134   3.410  13.326  0.3711 -0.0174 -0.2280
10109TIP3    H151742   6.047   3.440  13.301  0.5256  0.1874 -0.5207
10109TIP3    H251743   6.149   3.448  13.413  0.6709  0.9638 -0.6993
10110TIP3   OH251744   4.400   0.708   0.389 -0.7669  0.3147  0.3414
10110TIP3    H151745   4.313   0.744   0.407 -0.6538  0.7011  0.1338
10110TIP3    H251746   4.387   0.653   0.312 -1.3799 -1.8466  1.8946
10111TIP3   OH251747   3.952   1.138  16.551  0.3566 -0.1928 -0.5259
10111TIP3    H151748   3.976   1.101  16.466  2.0062  0.2733 -0.2933
10111TIP3    H251749   3.932   1.230  16.532 -3.3448 -0.9657 -1.0417
10112TIP3   OH251750   3.564   4.827   0.445 -0.2189  0.5949 -0.2737
10112TIP3    H151751   3.551   4.921   0.455 -0.8303  0.5914 -0.9880
10112TIP3    H251752   3.639   4.819   0.385 -0.8762  0.6454 -1.1265
10113TIP3   OH251753   1.999   4.431   5.020 -0.0416 -0.1840 -0.6751
10113TIP3    H151754   2.022   4.523   5.026 -0.1867 -0.0610 -1.8702
10113TIP3    H251755   1.987   4.404   5.111  1.7483  0.5060 -0.2089
10114TIP3   OH251756   3.581   2.546  16.351 -0.2378 -0.5506 -0.0324
10114TIP3    H151757   3.646   2.595  16.402 -0.1838 -1.5321  0.8824
10114TIP3    H251758   3.617   2.545  16.263  1.2601 -1.4421  0.5345
10115TIP3   OH251759   4.444   4.831  12.639  0.1893 -0.1117 -0.1981
10115TIP3    H151760   4.395   4.770  12.695 -1.5266 -0.3015 -1.7923
10115TIP3    H251761   4.529   4.789  12.625  0.0262 -0.8460  0.8897
10116TIP3   OH251762   6.123   2.962  11.492  0.3271 -0.6020  0.2696
10116TIP3    H151763   6.142   2.995  11.579  2.9741 -0.9931 -0.0491
10116TIP3    H251764   6.176   3.017  11.433 -0.0624 -1.4281 -0.9016
10117TIP3   OH251765   1.653   0.839   0.929  0.0864  0.6659 -0.5273
10117TIP3    H151766   1.579   0.856   0.987  0.8215  0.7342  0.4104
10117TIP3    H251767   1.634   0.753   0.890  1.3879 -1.3453  2.8236
10118TIP3   OH251768   1.018   1.953  16.823  0.5484  0.2644  0.7091
10118TIP3    H151769   0.944   1.902  16.791  0.5866 -0.0317  1.0859
10118TIP3    H251770   1.082   1.887  16.852  1.2826  0.4948 -0.3291
10119TIP3   OH251771   3.248   0.942  12.141 -0.0183  0.0104  0.0173
10119TIP3    H151772   3.219   0.948  12.050 -0.1493 -0.5958  0.0180
10119TIP3    H251773   3.184   0.885  12.183 -1.1555  1.9014  1.0026
10120TIP3   OH251774   6.623   6.622   4.172 -0.4099 -0.2786  0.4699
10120TIP3    H151775   6.655   6.705   4.206 -1.6630  0.3650  0.1516
10120TIP3    H251776   6.605   6.568   4.249  0.7438 -0.3985  0.6652
10121TIP3   OH251777   4.060   0.392   3.238  0.3878  0.6264  0.1348
10121TIP3    H151778   4.021   0.412   3.153  0.7349  1.5368  0.1825
10121TIP3    H251779   4.125   0.460   3.251 -0.3285  1.0768  1.5738
10122TIP3   OH251780   3.783   2.195   5.869  0.3772  0.0022 -0.8192
10122TIP3    H151781   3.694   2.229   5.857  0.8450  1.9378  0.6350
10122TIP3    H251782   3.771   2.109   5.909 -0.9106  1.4243  2.1647
10123TIP3   OH251783   3.762   5.152   2.531 -0.0231 -0.1060  0.5359
10123TIP3    H151784   3.767   5.217   2.600  2.2374 -0.4026  0.7140
10123TIP3    H251785   3.761   5.068   2.577 -3.1495 -0.3260  0.3213
10124TIP3   OH251786   3.427   5.616   1.448 -0.5360  0.3151 -0.3646
10124TIP3    H151787   3.371   5.572   1.385 -0.1220 -0.5704 -0.1461
10124TIP3    H251788   3.391   5.592   1.533 -0.3581  0.4838 -0.2400
10125TIP3   OH251789   0.390   4.763   4.840  0.9238 -0.1120  0.1684
10125TIP3    H151790   0.418   4.715   4.763  0.0462  1.4604 -1.1786
10125TIP3    H251791   0.464   4.819   4.863  1.1569 -0.5242  0.4199
10126TIP3   OH251792   5.941   6.113  15.348 -0.1723  0.8479 -0.1357
10126TIP3    H151793   6.001   6.167  15.400  0.6343 -0.5896  0.4788
10126TIP3    H251794   5.855   6.153  15.362  0.4016  2.0041  0.2393
10127TIP3   OH251795   2.129   5.840   0.032 -0.3515 -0.3800  0.7344
10127TIP3    H151796   2.041   5.802   0.032  1.1487 -4.4166  0.2492
10127TIP3    H251797   2.163   5.819  -0.055  1.3161  0.4548  1.1521
10128TIP3   OH251798   1.720   3.848   6.529  0.1630 -0.4549  0.0763
10128TIP3    H151799   1.728   3.758   6.498  1.7671 -0.0887 -0.6592
10128TIP3    H251800   1.797   3.893   6.494 -0.7692  1.2953  0.1612
10129TIP3   OH251801   1.414   0.593  14.249 -0.1758 -0.0388  0.4718
10129TIP3    H151802   1.336   0.560  14.294  1.0149 -3.1678  0.5230
10129TIP3    H251803   1.391   0.594  14.157 -0.1336 -1.6466  0.4123
10130TIP3   OH251804   1.370   3.164  14.110  0.2185  0.7347 -0.3578
10130TIP3    H151805   1.275   3.154  14.121  0.3433 -0.1186  0.0969
10130TIP3    H251806   1.381   3.201  14.023 -0.5957  2.3348  0.1685
10131TIP3   OH251807   1.619   2.784  13.949  0.3181  0.0204 -0.1118
10131TIP3    H151808   1.547   2.827  13.995 -0.0312  0.4766 -1.0564
10131TIP3    H251809   1.578   2.710  13.904  0.7844 -0.8608  0.8749
10132TIP3   OH251810   1.715   6.004  14.873 -0.1840  0.0496  0.2189
10132TIP3    H151811   1.622   5.987  14.857 -0.0424  0.6580 -1.4348
10132TIP3    H251812   1.751   5.918  14.897 -0.7784 -0.6754 -1.3212
10133TIP3   OH251813   4.961   6.424  16.624  0.5040  0.1943  0.1779
10133TIP3    H151814   4.924   6.336  16.619  0.2630  0.2710  0.5583
10133TIP3    H251815   5.055   6.411  16.635  0.4573 -0.0150  0.3285
10134TIP3   OH251816   5.013   4.253   1.518 -0.7488 -0.0200 -0.6238
10134TIP3    H151817   4.935   4.199   1.524 -1.3715  0.8654 -0.5946
10134TIP3    H251818   5.085   4.191   1.504 -1.1960 -0.9976  1.1200
10135TIP3   OH251819   4.341   2.933  16.452  0.7516 -0.2125 -0.6399
10135TIP3    H151820   4.359   2.839  16.462 -1.4198 -0.6736 -0.6070
10135TIP3    H251821   4.397   2.974  16.518 -0.5613 -1.7876  1.6362
10136TIP3   OH251822   0.629   6.436  13.512  0.3079  0.2242  0.2642
10136TIP3    H151823   0.636   6.342  13.493  0.3924  0.0286  1.2168
10136TIP3    H251824   0.704   6.476  13.469 -1.2071  0.2820 -2.5885
10137TIP3   OH251825   2.983   4.855   2.031  0.4489 -0.4337 -0.2022
10137TIP3    H151826   2.904   4.809   2.001 -1.9993  0.3932  3.9988
10137TIP3    H251827   3.038   4.786   2.069  0.8524 -0.7950 -1.4207
10138TIP3   OH251828   6.772   3.052  12.044  0.7114 -0.3267 -0.2968
10138TIP3    H151829   6.693   2.998  12.056  0.6835 -0.3552 -0.5897
10138TIP3    H251830   6.745   3.119  11.981  0.8410 -0.1688 -0.1818
10139TIP3   OH251831   3.603   2.891  12.915 -0.6734  0.1844 -0.2968
10139TIP3    H151832   3.698   2.902  12.906 -0.7028 -0.6313 -2.1649
10139TIP3    H251833   3.592   2.846  12.999  0.6771 -0.4865 -0.4440
10140TIP3   OH251834   5.886   2.193   2.397 -0.2228 -0.3500 -0.3482
10140TIP3    H151835   5.844   2.108   2.392 -0.4579 -0.1560 -2.3209
10140TIP3    H251836   5.856   2.240   2.319  2.1143  0.4892 -0.8317
10141TIP3   OH251837   5.613   5.898  11.369 -0.2103 -0.0273  0.5812
10141TIP3    H151838   5.580   5.809  11.384 -0.9400 -0.3539 -2.2497
10141TIP3    H251839   5.704   5.885  11.343 -1.0211 -0.4089 -2.6023
10142TIP3   OH251840   1.684   3.505  11.453  0.0537  0.2910 -0.0045
10142TIP3    H151841   1.631   3.584  11.456  0.8200  0.8078  0.0245
10142TIP3    H251842   1.627   3.437  11.491 -0.8556  0.6650 -0.6545
10143TIP3   OH251843   3.228   5.686   5.436 -0.1574  0.1443  0.6491
10143TIP3    H151844   3.322   5.676   5.427  0.1153  2.4616  0.3840
10143TIP3    H251845   3.207   5.646   5.520  0.7631 -1.7681  0.0365
10144TIP3   OH251846   6.178   4.041  11.575 -0.9191 -0.2034  0.4212
10144TIP3    H151847   6.135   4.114  11.530  0.4334 -0.0967 -0.7414
10144TIP3    H251848   6.173   4.065  11.668 -2.3626  0.3282  0.2399
10145TIP3   OH251849   3.325   4.040   2.232 -0.8792 -0.3430 -0.0164
10145TIP3    H151850   3.326   3.947   2.254 -0.4568 -1.1673 -3.1211
10145TIP3    H251851   3.280   4.045   2.148 -1.0661  2.3124  0.1476
10146TIP3   OH251852   5.852   6.295   5.880  0.0097  0.2798 -0.4838
10146TIP3    H151853   5.923   6.233   5.859  0.0649  0.8011 -1.9737
10146TIP3    H251854   5.796   6.293   5.802 -1.3120  0.3051  0.4513
10147TIP3   OH251855   5.449   5.706  14.153  0.1300 -0.7039  0.6524
10147TIP3    H151856   5.427   5.714  14.246 -2.1678 -2.1749  0.3131
10147TIP3    H251857   5.422   5.617  14.130  1.9790 -0.8706 -1.1182
10148TIP3   OH251858   5.533   2.256   3.036 -0.2652 -0.0812 -0.1084
10148TIP3    H151859   5.548   2.314   3.111  1.6721  0.2248 -0.6796
10148TIP3    H251860   5.526   2.169   3.074 -0.0630  0.1599  0.4959
10149TIP3   OH251861   3.856   2.442   4.171  0.5005 -0.1572  0.0690
10149TIP3    H151862   3.880   2.383   4.243 -1.2616 -0.4657  0.4563
10149TIP3    H251863   3.938   2.460   4.126  1.4438 -0.9963  1.3920
10150TIP3   OH251864   1.844   5.280   4.195 -0.2438 -0.6607  0.2812
10150TIP3    H151865   1.934   5.251   4.180 -0.0729  0.3671 -0.8160
10150TIP3    H251866   1.790   5.215   4.149  0.0817  0.0604 -1.1836
10151TIP3   OH251867   5.955   6.402  13.270  0.2010 -0.5435  0.1763
10151TIP3    H151868   5.951   6.343  13.194  0.5524 -1.0034  0.5122
10151TIP3    H251869   5.868   6.395  13.310 -0.6460  1.1462 -1.2458
10152TIP3   OH251870   4.218   4.377  11.930  0.0810 -0.4606  1.0027
10152TIP3    H151871   4.288   4.337  11.877  1.0884  2.2944  0.1080
10152TIP3    H251872   4.211   4.320  12.007  1.5713 -2.1771 -0.0480
10153TIP3   OH251873   5.414   4.249  17.215 -0.5485 -0.3671  0.2444
10153TIP3    H151874   5.351   4.248  17.143 -1.4520 -1.6259  1.0190
10153TIP3    H251875   5.433   4.157  17.232  1.6355 -0.0264 -0.0418
10154TIP3   OH251876   5.020   4.896   4.945 -0.1544  0.0238  0.2610
10154TIP3    H151877   4.976   4.882   5.029  0.2593  0.0136  0.4809
10154TIP3    H251878   5.108   4.925   4.969  1.3537 -3.7256 -0.0531
10155TIP3   OH251879   4.435   6.280  12.417  0.2443  0.0489 -0.4948
10155TIP3    H151880   4.368   6.282  12.348 -0.1644  0.1008 -0.0995
10155TIP3    H251881   4.492   6.354  12.396 -0.5593  0.7937 -0.1161
10156TIP3   OH251882   1.095   2.107   6.828  0.4097  0.1801 -0.0972
10156TIP3    H151883   1.065   2.180   6.882 -1.9324 -1.5301  1.1014
10156TIP3    H251884   1.175   2.139   6.787  0.4297  2.7806  1.7119
10157TIP3   OH251885   5.007   5.155  11.846 -0.0905  0.0587  0.4295
10157TIP3    H151886   5.014   5.251  11.847 -0.4102  0.1400 -1.5623
10157TIP3    H251887   5.032   5.130  11.757 -2.6349 -1.4895  0.0649
10158TIP3   OH251888   3.675   3.537  11.644 -0.6008 -0.0245  0.7622
10158TIP3    H151889   3.735   3.513  11.715 -1.8602  0.4240  2.0222
10158TIP3    H251890   3.611   3.466  11.641  0.0371 -0.5762 -0.6722
10159TIP3   OH251891   0.973   4.642  11.250 -0.9253 -0.5849 -0.6987
10159TIP3    H151892   0.951   4.724  11.206 -0.0701 -0.9967 -1.9783
10159TIP3    H251893   0.979   4.578  11.178 -1.9434 -1.8543  0.3014
10160TIP3   OH251894   2.392   2.154   3.493  0.1144  1.0706  0.0855
10160TIP3    H151895   2.310   2.195   3.466  0.3639  1.4419 -0.1201
10160TIP3    H251896   2.405   2.082   3.432 -0.5648  0.3793  0.7335
10161TIP3   OH251897   1.482   6.796   5.527 -0.8477  0.1691 -0.1958
10161TIP3    H151898   1.516   6.719   5.573  0.6804  0.8555 -0.1317
10161TIP3    H251899   1.424   6.838   5.591 -2.5749 -1.4568 -0.5875
10162TIP3   OH251900   5.258   0.989  12.992  0.3345  0.7967 -0.2945
10162TIP3    H151901   5.316   0.918  12.964 -2.0801 -0.9590 -1.1972
10162TIP3    H251902   5.232   1.033  12.911  0.0985  1.3154  0.0556
10163TIP3   OH251903   2.589   2.941  16.343  0.5945  0.1814 -0.4265
10163TIP3    H151904   2.519   2.990  16.299  0.8300 -0.3532 -1.4384
10163TIP3    H251905   2.657   2.932  16.276  1.0414 -0.5273  0.1096
10164TIP3   OH251906   4.560   4.544   3.117 -0.1600  0.2256  0.3341
10164TIP3    H151907   4.569   4.486   3.193  0.0050 -1.6359 -1.0196
10164TIP3    H251908   4.569   4.485   3.041 -1.2284  1.8523 -1.1341
10165TIP3   OH251909   1.837   2.132   0.905  0.0431  0.0568  0.4856
10165TIP3    H151910   1.902   2.137   0.975  0.1892  1.4583  0.2817
10165TIP3    H251911   1.794   2.048   0.918  1.1438 -0.4040  1.2959
10166TIP3   OH251912   5.566   4.650   5.127 -0.1634  0.3274  0.8411
10166TIP3    H151913   5.496   4.688   5.074 -1.1694  0.3088  2.1033
10166TIP3    H251914   5.595   4.722   5.184  1.8835  0.7579 -0.6230
10167TIP3   OH251915   1.243   6.394  11.850 -0.1839  0.2142  0.3643
10167TIP3    H151916   1.294   6.324  11.891 -0.0548 -0.2782 -0.6117
10167TIP3    H251917   1.166   6.350  11.816 -0.3277  0.6305  0.1518
10168TIP3   OH251918   6.353   1.358   4.041 -0.1741 -0.0739  0.3409
10168TIP3    H151919   6.435   1.401   4.018  0.3316 -0.7689  0.8299
10168TIP3    H251920   6.289   1.430   4.046  0.5149  0.5357  0.5137
10169TIP3   OH251921   2.129   5.174   6.594  0.2370 -0.3155  0.5221
10169TIP3    H151922   2.210   5.213   6.561 -0.1821  0.5070  0.4411
10169TIP3    H251923   2.124   5.204   6.685  0.6382 -1.3674  0.9042
10170TIP3   OH251924   1.223   5.771   0.419  0.0306  0.2551 -0.0522
10170TIP3    H151925   1.226   5.756   0.513 -0.6911 -0.8831 -0.1797
10170TIP3    H251926   1.134   5.747   0.394  0.5975 -0.7722 -1.2108
10171TIP3   OH251927   5.764   4.674  11.599 -0.2934 -0.7516 -0.2610
10171TIP3    H151928   5.783   4.628  11.681  3.3121  1.1853  0.1637
10171TIP3    H251929   5.812   4.624  11.533  0.2568  0.0335 -0.4637
10172TIP3   OH251930   3.574   2.205  14.781 -0.1187 -0.5470 -0.0264
10172TIP3    H151931   3.574   2.269  14.709  1.2055 -0.8460 -0.3209
10172TIP3    H251932   3.582   2.258  14.860 -0.8202 -0.2556 -0.1422
10173TIP3   OH251933   2.470   2.349  12.098 -0.1738  0.2435  0.1154
10173TIP3    H151934   2.385   2.364  12.139 -1.6588 -0.8304 -2.3212
10173TIP3    H251935   2.487   2.430  12.050  0.9274  0.9948  1.6837
10174TIP3   OH251936   1.912   3.028   5.631 -0.5744  0.2837 -0.5011
10174TIP3    H151937   1.824   3.034   5.594 -1.3070 -0.9292  0.9338
10174TIP3    H251938   1.916   3.098   5.696 -0.8750 -0.3129  0.1710
10175TIP3   OH251939   0.473   1.127  14.241 -0.0624  0.2016  0.3341
10175TIP3    H151940   0.500   1.136  14.332 -1.1816 -0.8561  0.7950
10175TIP3    H251941   0.493   1.036  14.219 -1.1760  0.0269  0.0043
10176TIP3   OH251942   6.173   0.448  15.336  0.0023 -0.3847  0.1038
10176TIP3    H151943   6.108   0.423  15.402  1.6473  0.7716  2.3018
10176TIP3    H251944   6.251   0.398  15.359  1.1798  1.4106  0.2669
10177TIP3   OH251945   0.284   2.762   2.379 -0.7811 -0.2457  0.1022
10177TIP3    H151946   0.317   2.818   2.449 -1.1463 -0.2531  0.2851
10177TIP3    H251947   0.362   2.731   2.333 -0.5108 -0.6741  0.8371
10178TIP3   OH251948   5.136   0.665   0.390  0.4974  0.3542 -0.0806
10178TIP3    H151949   5.131   0.621   0.305 -0.7017 -0.4277  0.3581
10178TIP3    H251950   5.212   0.723   0.383  1.3831 -0.8749 -1.1219
10179TIP3   OH251951   5.424   6.469   3.064  0.4521  0.4192 -0.0627
10179TIP3    H151952   5.501   6.483   3.009  0.0825  0.2112 -0.6436
10179TIP3    H251953   5.351   6.502   3.011 -0.1349 -1.3817 -0.4476
10180TIP3   OH251954   4.097   1.693   3.835 -0.5596 -0.0619  0.4830
10180TIP3    H151955   4.079   1.772   3.785  0.0260 -0.3806 -0.2563
10180TIP3    H251956   4.191   1.698   3.855 -0.8527  0.2456  1.8956
10181TIP3   OH251957   0.445   4.455   1.805 -0.2190  0.2925 -0.0842
10181TIP3    H151958   0.498   4.474   1.883  1.0853  0.0800 -0.8956
10181TIP3    H251959   0.376   4.396   1.837 -1.8349  2.8517  1.6165
10182TIP3   OH251960   1.909   3.286  14.474 -0.3667 -0.7954 -0.1978
10182TIP3    H151961   1.826   3.250  14.507 -1.7890  1.0313 -1.5565
10182TIP3    H251962   1.963   3.295  14.552 -1.9155 -0.8924  0.9448
10183TIP3   OH251963   5.178   2.703  13.072 -0.2469 -0.5672  0.7346
10183TIP3    H151964   5.088   2.733  13.083 -0.1403 -0.0945  0.3567
10183TIP3    H251965   5.232   2.777  13.100  0.0195 -0.3303 -0.3384
10184TIP3   OH251966   4.460   1.841  12.259 -0.1289 -0.6891  0.2934
10184TIP3    H151967   4.373   1.880  12.247 -0.1001 -0.2710  1.3346
10184TIP3    H251968   4.512   1.909  12.301  0.4883 -1.1957  0.3675
10185TIP3   OH251969   0.397   3.694  15.663  0.1862  0.3328  0.0747
10185TIP3    H151970   0.367   3.606  15.640  1.0648 -0.4051  1.5659
10185TIP3    H251971   0.493   3.687  15.664  0.2428  1.0178  1.1777
10186TIP3   OH251972   4.241   0.506  11.656  0.3630 -0.8375 -0.0163
10186TIP3    H151973   4.168   0.474  11.603  1.5019 -2.2434 -0.8012
10186TIP3    H251974   4.314   0.514  11.595  0.3058  3.1677  0.1391
10187TIP3   OH251975   6.533   0.185  16.372 -0.1674 -0.0557 -0.2713
10187TIP3    H151976   6.513   0.263  16.423 -1.6596 -1.2367  1.0731
10187TIP3    H251977   6.550   0.217  16.284  2.7309  2.1024  0.9237
10188TIP3   OH251978   5.002   5.369   4.927 -0.3664  0.0573 -0.2960
10188TIP3    H151979   5.065   5.380   4.999 -1.0971  1.2410  0.1783
10188TIP3    H251980   4.951   5.450   4.927 -0.9695 -0.3042 -1.5842
10189TIP3   OH251981   6.650   0.617  13.435  0.1280  0.4524  0.8695
10189TIP3    H151982   6.734   0.646  13.400 -0.5952  0.5381 -0.8810
10189TIP3    H251983   6.670   0.534  13.479  1.0504  0.2042  0.0199
10190TIP3   OH251984   1.157   0.763  11.458 -0.5158  0.8130 -0.1770
10190TIP3    H151985   1.145   0.810  11.541 -0.9230  2.1248 -0.9467
10190TIP3    H251986   1.165   0.832  11.393  1.4756 -0.1593 -1.0472
10191TIP3   OH251987   3.729   3.249   5.474 -0.0012 -0.2381 -0.3040
10191TIP3    H151988   3.823   3.255   5.490  0.2249 -0.3465 -1.5272
10191TIP3    H251989   3.691   3.243   5.561  1.0688  0.5927  0.2542
10192TIP3   OH251990   0.204   0.244  13.625 -0.3929 -0.3985  0.1108
10192TIP3    H151991   0.147   0.184  13.672  0.3109 -1.4596 -0.3310
10192TIP3    H251992   0.196   0.327  13.671 -1.8773 -0.6546  0.3603
10193TIP3   OH251993   1.216   2.144  15.367  0.0118 -0.5234 -0.5563
10193TIP3    H151994   1.302   2.186  15.373 -0.5286  0.5412 -0.1804
10193TIP3    H251995   1.236   2.052  15.348  1.3709 -0.9959  2.5958
10194TIP3   OH251996   1.341   1.064  16.640  0.0293  0.5373  0.1548
10194TIP3    H151997   1.329   0.979  16.597  0.5667  0.1329  0.7791
10194TIP3    H251998   1.328   1.128  16.570 -1.6030  0.0069 -0.0750
10195TIP3   OH251999   4.873   6.448  11.718  0.4043 -0.0587 -0.2062
10195TIP3    H152000   4.916   6.424  11.800  1.1449 -1.5268 -0.9944
10195TIP3    H252001   4.942   6.442  11.652  0.0303  1.9173 -0.8455
10196TIP3   OH252002   1.306   3.512   1.730 -0.5543 -0.0189 -0.2264
10196TIP3    H152003   1.365   3.449   1.772 -0.7003 -0.1072 -0.1555
10196TIP3    H252004   1.319   3.497   1.636 -1.0089 -0.5435 -0.2095
10197TIP3   OH252005   1.820   4.887   2.351  0.5722  0.6317 -0.5688
10197TIP3    H152006   1.856   4.900   2.263  4.0895 -0.4228  0.5668
10197TIP3    H252007   1.897   4.876   2.407 -1.5636  0.1188  2.4786
10198TIP3   OH252008   6.242   0.533  16.696 -0.4820 -0.3458 -0.2463
10198TIP3    H152009   6.295   0.608  16.669 -0.6820  0.4713  1.4579
10198TIP3    H252010   6.209   0.495  16.615 -2.0260  2.5933 -1.1249
10199TIP3   OH252011   1.024   4.581   2.752 -0.0220  0.1822  0.4593
10199TIP3    H152012   0.935   4.571   2.786  0.5488  0.5361  2.1295
10199TIP3    H252013   1.029   4.519   2.679 -0.8110 -1.8271  2.0290
10200TIP3   OH252014   1.583   6.230   5.231 -0.3742  1.0441 -0.0225
10200TIP3    H152015   1.645   6.158   5.220 -0.9817  0.6045 -0.6446
10200TIP3    H252016   1.543   6.240   5.145 -1.2817  1.2198  0.4078
10201TIP3   OH252017   2.644   5.096  13.938  0.1848 -0.1259  0.2387
10201TIP3    H152018   2.621   5.081  14.030  0.3238 -0.7447  0.1721
10201TIP3    H252019   2.674   5.187  13.936 -2.4983  0.8569  0.2922
10202TIP3   OH252020   6.288   5.483   1.401  0.2926 -0.4355 -0.3785
10202TIP3    H152021   6.380   5.492   1.426 -0.1680 -1.0250  1.8363
10202TIP3    H252022   6.285   5.505   1.308  2.0443  3.4166  0.2827
10203TIP3   OH252023   1.116   3.358  17.161  1.0583 -0.1647 -0.4749
10203TIP3    H152024   1.022   3.358  17.144  0.7920 -0.6753  0.8331
10203TIP3    H252025   1.138   3.449  17.181  0.6869 -0.1748 -0.0251
10204TIP3   OH252026   0.115   3.207   1.948  0.0447  0.3352 -0.4852
10204TIP3    H152027   0.060   3.281   1.924  2.1017  2.0727 -0.1521
10204TIP3    H252028   0.169   3.190   1.871 -0.5228 -0.9679 -0.6214
10205TIP3   OH252029   3.547   4.842   3.709 -0.2630  0.2357 -0.6754
10205TIP3    H152030   3.639   4.815   3.712 -0.4827 -0.4624  0.1293
10205TIP3    H252031   3.498   4.760   3.702 -0.8170  0.6327 -1.6582
10206TIP3   OH252032   6.688   0.542   4.243  0.8418  0.7681 -0.4520
10206TIP3    H152033   6.676   0.487   4.321  2.3369  0.5216 -0.3500
10206TIP3    H252034   6.755   0.496   4.193 -0.2517  0.8185 -2.0111
10207TIP3   OH252035   2.275   2.195  14.302  0.0538  0.6814  0.1809
10207TIP3    H152036   2.370   2.193  14.313 -0.2269 -0.2773  3.2939
10207TIP3    H252037   2.242   2.233  14.384 -2.3243 -1.2819  0.2426
10208TIP3   OH252038   3.129   0.529  16.972  0.3846  0.2256  0.5435
10208TIP3    H152039   3.170   0.612  16.948  2.1640 -0.6690  0.2730
10208TIP3    H252040   3.143   0.472  16.896 -1.3271 -0.1617  0.4919
10209TIP3   OH252041   4.105   1.486   3.292  0.2110  0.1208  0.1396
10209TIP3    H152042   4.150   1.568   3.314  0.5451 -0.0111 -0.0374
10209TIP3    H252043   4.110   1.482   3.196  0.9979 -0.5551  0.2030
10210TIP3   OH252044   0.006   2.739  11.928  0.2662 -0.2145  0.0538
10210TIP3    H152045   0.078   2.737  11.990  0.7261  0.0389 -0.4629
10210TIP3    H252046   0.048   2.731  11.842 -0.4100 -1.3515 -0.1956
10211TIP3   OH252047   2.437   5.456   4.543  0.2738 -0.2738  0.3990
10211TIP3    H152048   2.409   5.546   4.560 -0.7529 -0.8641  2.0808
10211TIP3    H252049   2.361   5.415   4.502  0.2222 -0.7373  0.9550
10212TIP3   OH252050   2.778   5.359  16.337 -0.2569 -0.3266  0.2050
10212TIP3    H152051   2.844   5.428  16.343 -0.2823 -0.2065 -0.7990
10212TIP3    H252052   2.793   5.318  16.251 -2.1272  0.3743 -0.4934
10213TIP3   OH252053   0.364   5.981  11.243  0.6512 -0.0060  0.1416
10213TIP3    H152054   0.350   6.041  11.170  0.9243  0.3308  0.3611
10213TIP3    H252055   0.313   6.019  11.315  1.5012  0.4341  0.5254
10214TIP3   OH252056   5.271   5.933  14.570 -0.3927  0.0769  0.6233
10214TIP3    H152057   5.309   6.019  14.552 -0.4612 -0.0390 -0.1178
10214TIP3    H252058   5.332   5.892  14.630  1.7343 -0.8354 -1.9483
10215TIP3   OH252059   2.446   0.276   3.031 -0.1450 -0.1191 -0.3126
10215TIP3    H152060   2.533   0.239   3.018  0.2874  0.9399 -0.5421
10215TIP3    H252061   2.438   0.286   3.125  0.1359  0.1396 -0.3156
10216TIP3   OH252062   4.726   1.691  14.722 -0.3409 -0.8129 -0.1403
10216TIP3    H152063   4.693   1.695  14.632 -0.6401  0.8543  0.0062
10216TIP3    H252064   4.815   1.725  14.717 -0.0577 -1.4949  0.0881
10217TIP3   OH252065   6.075   2.917  15.181 -0.4745 -0.1004 -0.2324
10217TIP3    H152066   6.005   2.953  15.236 -0.5039  0.0633 -0.3751
10217TIP3    H252067   6.032   2.894  15.099 -0.3157  0.2347 -0.4113
10218TIP3   OH252068   4.015   0.800   0.125  0.2749 -0.3506  0.3786
10218TIP3    H152069   3.946   0.817   0.061  0.9195 -1.6940 -0.7403
10218TIP3    H252070   3.970   0.801   0.210 -1.2191 -1.5736 -0.3449
10219TIP3   OH252071   5.505   0.317  16.603  0.4095  0.5135  0.2218
10219TIP3    H152072   5.565   0.276  16.665  0.6150 -0.8549 -0.8438
10219TIP3    H252073   5.542   0.405  16.589  3.2945 -0.8341 -1.7261
10220TIP3   OH252074   3.701   2.464   2.710 -0.4639  0.2657  0.4654
10220TIP3    H152075   3.750   2.470   2.792 -0.7071 -1.3095  0.7709
10220TIP3    H252076   3.610   2.463   2.737 -0.5614  0.3335  0.1361
10221TIP3   OH252077   4.438   4.674   5.960 -0.0412 -0.3158 -0.7677
10221TIP3    H152078   4.496   4.655   5.886 -0.9900  1.4585 -2.0397
10221TIP3    H252079   4.496   4.703   6.030  0.7747 -0.6551 -1.2956
10222TIP3   OH252080   1.285   0.038   1.871 -0.1911  0.1419 -0.1085
10222TIP3    H152081   1.248  -0.039   1.828 -0.9409  0.9137 -0.8793
10222TIP3    H252082   1.212   0.098   1.880  0.6167  1.2436 -0.6175
10223TIP3   OH252083   5.739   4.190  15.314 -0.1188  0.0330 -0.5878
10223TIP3    H152084   5.729   4.105  15.356  1.5971  1.4234  3.1082
10223TIP3    H252085   5.791   4.172  15.235  1.4610 -2.2293  0.8303
10224TIP3   OH252086   5.541   4.444   2.553 -0.1895  0.4344  0.5101
10224TIP3    H152087   5.554   4.448   2.458 -2.6837 -0.7243  0.0569
10224TIP3    H252088   5.478   4.513   2.572  1.0429  1.3334  1.5459
10225TIP3   OH252089   5.765   5.423   2.478 -0.1211 -0.2080  0.2239
10225TIP3    H152090   5.795   5.341   2.518  0.4390 -0.4338 -0.6347
10225TIP3    H252091   5.695   5.396   2.419 -0.2381 -0.0121  0.2737
10226TIP3   OH252092   5.825   0.230   3.501  0.4640 -0.6270  0.3354
10226TIP3    H152093   5.757   0.199   3.561  0.7148 -0.6944  0.5854
10226TIP3    H252094   5.844   0.319   3.529 -1.0495  0.2009 -1.0729
10227TIP3   OH252095   5.936   5.505   6.215 -0.2772  0.1781  0.0805
10227TIP3    H152096   5.851   5.496   6.258 -0.9758 -0.0451 -1.2991
10227TIP3    H252097   5.959   5.597   6.227  0.1970 -0.1303  2.0310
10228TIP3   OH252098   3.608   2.946  16.975  0.2344 -0.2022 -0.4106
10228TIP3    H152099   3.634   2.883  17.042  0.0705 -0.2899 -0.4276
10228TIP3    H252100   3.634   3.031  17.010  0.3888 -0.2723 -0.3513
10229TIP3   OH252101   5.710   4.984   1.493 -0.0992  0.3010 -0.4272
10229TIP3    H152102   5.637   4.940   1.535  0.6164 -0.5844 -0.0868
10229TIP3    H252103   5.695   4.971   1.399 -0.9294  1.0515 -0.4179
10230TIP3   OH252104   0.664   6.325   0.625  0.0539  0.5429  0.0871
10230TIP3    H152105   0.685   6.394   0.688  1.0298  0.7263 -0.4033
10230TIP3    H252106   0.696   6.245   0.666  1.0356  0.7134 -0.3154
10231TIP3   OH252107   0.863   3.033   2.435  0.1952 -0.8674  0.0354
10231TIP3    H152108   0.946   3.011   2.394 -0.5409 -2.2991 -0.7875
10231TIP3    H252109   0.884   3.042   2.528  1.3460 -0.6950 -0.2291
10232TIP3   OH252110   2.041   4.818   2.504 -0.4610  0.3615 -0.4571
10232TIP3    H152111   2.123   4.776   2.478  1.1729  1.7138  2.0433
10232TIP3    H252112   2.006   4.762   2.573 -2.1981 -0.6915 -2.1204
10233TIP3   OH252113   6.453   5.050  16.681 -0.0340  0.3785 -0.0435
10233TIP3    H152114   6.420   4.989  16.748  0.1851  0.9230  0.5755
10233TIP3    H252115   6.376   5.072  16.629  0.3010 -2.3630 -1.9027
10234TIP3   OH252116   6.467   4.334   1.328  0.0539  0.1650  0.7760
10234TIP3    H152117   6.458   4.407   1.389  0.3196 -1.8138  3.3440
10234TIP3    H252118   6.388   4.282   1.342  0.1355 -0.3638 -0.6036
10235TIP3   OH252119   2.708   2.127  15.151  0.5660  0.3694 -0.1316
10235TIP3    H152120   2.671   2.192  15.092 -0.1017 -0.2783 -0.4509
10235TIP3    H252121   2.701   2.044  15.103 -3.2554 -0.8616  2.0576
10236TIP3   OH252122   0.167   6.744   1.878  0.2577  0.8381  0.8044
10236TIP3    H152123   0.203   6.682   1.942 -0.6233 -0.1384  0.3800
10236TIP3    H252124   0.122   6.810   1.931 -2.2889 -1.0961  1.1996
10237TIP3   OH252125   3.410   4.661   3.507 -0.2683  0.2063 -0.4701
10237TIP3    H152126   3.483   4.713   3.474  0.1503  0.3098  0.5796
10237TIP3    H252127   3.334   4.718   3.495 -0.1133  0.2721 -1.1700
10238TIP3   OH252128   5.246   3.633   5.824 -0.4261  0.1231 -0.5599
10238TIP3    H152129   5.170   3.688   5.808 -0.0294  0.9898  0.4489
10238TIP3    H252130   5.220   3.574   5.894  0.4671  1.8428  1.3102
10239TIP3   OH252131   1.121   5.291  12.553 -0.3085 -0.2567  0.1593
10239TIP3    H152132   1.039   5.336  12.533  0.5052  1.2465  0.0463
10239TIP3    H252133   1.188   5.360  12.547  0.8011 -1.1747  1.5016
10240TIP3   OH252134   4.124   3.939  12.410 -0.3994  0.5105 -0.6394
10240TIP3    H152135   4.197   3.882  12.432 -2.1444 -1.7396 -0.1905
10240TIP3    H252136   4.109   3.991  12.489  0.4657  0.7356 -0.6142
10241TIP3   OH252137   5.288   6.734  13.797  0.6094  0.5000 -0.4840
10241TIP3    H152138   5.226   6.665  13.819 -1.6211  3.0149  1.9964
10241TIP3    H252139   5.347   6.739  13.872  1.7395  0.3323 -1.3357
10242TIP3   OH252140   4.059   2.751  16.537  0.4742  0.0390  0.2751
10242TIP3    H152141   4.073   2.708  16.622  2.2665  0.2339  0.1131
10242TIP3    H252142   4.117   2.704  16.477 -1.7809 -1.0109 -1.2071
10243TIP3   OH252143   6.203   4.223  16.338 -0.0332 -0.8663 -0.0589
10243TIP3    H152144   6.281   4.259  16.295  1.9155 -3.0725  1.4356
10243TIP3    H252145   6.232   4.141  16.376 -3.2559 -2.0104  0.1979
10244TIP3   OH252146   4.639   0.081   5.965  0.0110  0.5160 -0.4541
10244TIP3    H152147   4.581   0.154   5.987 -1.2652 -0.3301 -0.8987
10244TIP3    H252148   4.608   0.051   5.879 -0.0992 -1.1296  0.1285
10245TIP3   OH252149   2.775   2.830  17.119  0.3794  0.2775  0.7804
10245TIP3    H152150   2.751   2.775  17.194 -0.7457 -0.5174 -0.1302
10245TIP3    H252151   2.729   2.913  17.134 -2.1480 -0.8070 -0.3316
10246TIP3   OH252152   3.861   6.203   1.800 -0.1969 -0.1309  0.5589
10246TIP3    H152153   3.833   6.111   1.800  0.5017 -0.3912  2.1918
10246TIP3    H252154   3.901   6.215   1.886  1.7108  1.1261 -0.4507
10247TIP3   OH252155   5.266   2.320  14.478  0.7516 -0.7656 -0.3626
10247TIP3    H152156   5.273   2.294  14.386  2.4129  2.1865 -1.1922
10247TIP3    H252157   5.180   2.363  14.483 -0.6370 -3.3880  0.2845
10248TIP3   OH252158   2.227   6.354  16.056  0.1143 -0.2144  0.2426
10248TIP3    H152159   2.266   6.433  16.092  2.3035 -1.6614  1.2793
10248TIP3    H252160   2.191   6.308  16.132  3.0249 -2.3484  0.5153
10249TIP3   OH252161   4.743   3.448   2.651  0.3308  0.2108 -0.4965
10249TIP3    H152162   4.706   3.447   2.739 -1.5766  0.3924 -1.2322
10249TIP3    H252163   4.672   3.416   2.595  1.6008 -0.2100 -1.9341
10250TIP3   OH252164   6.650   5.527   0.352 -0.4433 -0.0821 -0.2042
10250TIP3    H152165   6.712   5.483   0.293 -1.2817 -0.1051 -1.0976
10250TIP3    H252166   6.588   5.570   0.293 -1.1805  0.0768  0.6769
10251TIP3   OH252167   4.951   5.588  12.328 -0.6657 -0.4431 -0.5210
10251TIP3    H152168   5.016   5.578  12.257 -0.1696 -3.1426  0.1990
10251TIP3    H252169   4.876   5.538  12.298 -0.0585 -2.5313  1.2319
10252TIP3   OH252170   2.380   3.919   0.497 -0.2836 -0.0466  0.2184
10252TIP3    H152171   2.332   3.912   0.579  0.9353 -0.3885  0.9255
10252TIP3    H252172   2.472   3.925   0.523  0.1093  0.0619 -1.1122
10253TIP3   OH252173   1.095   3.127   3.071  0.1301  0.0360  0.0257
10253TIP3    H152174   1.102   3.090   2.983 -0.0761  1.3745 -0.5707
10253TIP3    H252175   1.153   3.073   3.125 -1.7370 -2.5054 -0.3270
10254TIP3   OH252176   4.580   6.247   4.758 -0.0465 -0.3089  0.0774
10254TIP3    H152177   4.609   6.171   4.808  0.3498 -0.1809  0.0423
10254TIP3    H252178   4.603   6.226   4.667 -0.4945 -0.4114 -0.0149
10255TIP3   OH252179   3.431   1.451  14.708 -0.2575 -0.0901 -0.1927
10255TIP3    H152180   3.449   1.413  14.794  0.1504  1.0250  0.2383
10255TIP3    H252181   3.337   1.442  14.697 -0.1679 -1.2500 -0.1285
10256TIP3   OH252182   2.249   6.455   6.827  0.1098  0.3059 -0.1705
10256TIP3    H152183   2.166   6.479   6.870  1.3993  1.7214  1.6848
10256TIP3    H252184   2.259   6.520   6.758 -0.1770  0.3393 -0.1836
10257TIP3   OH252185   1.360   4.831   3.706 -0.0160 -0.6963  0.0578
10257TIP3    H152186   1.390   4.741   3.715  0.4007 -0.3606  3.2122
10257TIP3    H252187   1.280   4.835   3.758 -2.1476  0.0051 -2.9534
10258TIP3   OH252188   5.083   3.022  10.347  0.0753 -0.3932 -0.2182
10258TIP3    H152189   5.176   3.025  10.370  0.3118  3.0203 -1.0656
10258TIP3    H252190   5.078   2.967  10.269  2.4059  3.3136 -3.3570
10259TIP3   OH252191   4.082   4.927   1.084  0.0258 -0.3484  0.1551
10259TIP3    H152192   4.076   4.997   1.149  2.5751 -0.2575  0.3653
10259TIP3    H252193   4.148   4.957   1.022 -1.5946 -0.9027 -1.9667
10260TIP3   OH252194   5.721   6.730   1.440  0.0000  0.4249 -0.1285
10260TIP3    H152195   5.677   6.793   1.384 -1.6586 -0.8172 -0.2769
10260TIP3    H252196   5.779   6.681   1.382 -0.5253  0.2070 -0.4729
10261TIP3   OH252197   2.447   1.802   5.471 -0.1283 -0.9640  0.3244
10261TIP3    H152198   2.502   1.844   5.538  1.4362  0.1724 -1.5612
10261TIP3    H252199   2.489   1.718   5.455 -0.1354 -0.9735  0.3564
10262TIP3   OH252200   3.135   5.573   3.021  0.2016  0.2931 -0.0878
10262TIP3    H152201   3.051   5.549   2.980 -1.1266 -0.5798  2.8941
10262TIP3    H252202   3.192   5.499   3.002 -1.2242 -1.3946  1.7153
10263TIP3   OH252203   3.955   5.013  13.110 -0.6650  0.1624  0.2904
10263TIP3    H152204   3.948   4.955  13.186 -0.0656 -0.4462 -0.1099
10263TIP3    H252205   4.042   4.995  13.075 -0.7835  0.7387 -0.3048
10264TIP3   OH252206   0.607   4.726   5.322  0.6069  0.2157  0.2051
10264TIP3    H152207   0.579   4.805   5.277 -0.0888  1.9681  3.3590
10264TIP3    H252208   0.698   4.714   5.295 -0.0697  0.4452 -2.4002
10265TIP3   OH252209   0.638   4.285  16.334 -0.1545  0.3741 -0.1679
10265TIP3    H152210   0.552   4.263  16.369 -0.7760  1.8253 -0.7304
10265TIP3    H252211   0.656   4.373  16.368  0.4941  0.6405 -1.1710
10266TIP3   OH252212   2.051   0.377   3.532 -0.4842  0.0984 -0.3634
10266TIP3    H152213   2.112   0.421   3.473 -0.1230  1.2002  0.7970
10266TIP3    H252214   2.071   0.284   3.522  0.3559  0.3511 -1.1232
10267TIP3   OH252215   5.777   1.610  11.944 -0.3396  0.1103  0.2425
10267TIP3    H152216   5.739   1.624  11.858 -1.6211 -0.8476  0.6280
10267TIP3    H252217   5.742   1.680  11.999  0.4512  0.7015  0.0148
10268TIP3   OH252218   2.667   5.591  12.375  0.0873 -0.6986 -0.0932
10268TIP3    H152219   2.638   5.568  12.287  1.6449 -1.1786 -0.5035
10268TIP3    H252220   2.681   5.686  12.372  0.2669 -0.7347 -0.4025
10269TIP3   OH252221   1.888   1.712   3.201 -0.6052 -0.2989  0.1515
10269TIP3    H152222   1.794   1.695   3.204 -0.7861  0.7240  1.7007
10269TIP3    H252223   1.907   1.757   3.284  1.2153 -0.3169 -0.2101
10270TIP3   OH252224   5.005   1.029   4.113 -0.0428 -0.4319  0.2354
10270TIP3    H152225   5.043   0.967   4.175  1.2624 -0.0674 -0.1831
10270TIP3    H252226   5.075   1.091   4.094 -1.7112  2.0893  1.7417
10271TIP3   OH252227   0.750   5.693   3.337 -0.4921 -0.1104 -0.2572
10271TIP3    H152228   0.706   5.778   3.342 -2.1568 -0.9839  0.2990
10271TIP3    H252229   0.682   5.632   3.309  0.0024 -1.7415  1.8542
10272TIP3   OH252230   2.525   5.964   5.294  0.1191 -0.3892 -0.8983
10272TIP3    H152231   2.613   5.974   5.258 -0.1173 -0.2756 -1.4540
10272TIP3    H252232   2.489   5.888   5.249 -0.1282 -0.3297 -0.8022
10273TIP3   OH252233   5.628   4.944   1.250 -0.0914 -0.1981 -0.2498
10273TIP3    H152234   5.537   4.959   1.276  1.2002  1.9420  4.1788
10273TIP3    H252235   5.627   4.862   1.201 -4.1891 -1.1189  1.0281
10274TIP3   OH252236   5.805   5.782   0.357 -0.1571 -0.0922  0.8338
10274TIP3    H152237   5.743   5.853   0.373  0.5519  0.3823  1.5239
10274TIP3    H252238   5.760   5.704   0.390 -0.7565  0.1010  0.4855
10275TIP3   OH252239   6.742   0.951   1.606 -0.4217  0.3915  0.1621
10275TIP3    H152240   6.831   0.986   1.617 -0.4983  1.3190 -1.7255
10275TIP3    H252241   6.734   0.884   1.673  1.2406  1.1809  1.2217
10276TIP3   OH252242   4.235   3.831  15.695 -0.3429 -0.4589 -0.1945
10276TIP3    H152243   4.318   3.805  15.735 -1.2179 -2.5546  0.3871
10276TIP3    H252244   4.234   3.785  15.611 -1.2739 -1.1465  0.1802
10277TIP3   OH252245   6.318   2.913  13.215 -0.4810 -0.4332  0.2372
10277TIP3    H152246   6.287   2.833  13.172 -1.3870  0.7909 -1.5154
10277TIP3    H252247   6.242   2.970  13.217  0.6392  1.1674 -0.5049
10278TIP3   OH252248   3.119   1.868  11.668  0.8383  0.2543 -0.2613
10278TIP3    H152249   3.206   1.885  11.631  1.1508  1.1470  0.8110
10278TIP3    H252250   3.091   1.953  11.703 -0.2560 -0.1375 -0.1628
10279TIP3   OH252251   5.948   3.024   0.874 -0.8211  0.4473  0.3014
10279TIP3    H152252   5.888   3.069   0.814  1.2742  1.0991 -1.4370
10279TIP3    H252253   5.991   2.958   0.820 -1.6102 -1.6687  2.0938
10280TIP3   OH252254   0.044   5.857   5.760 -0.1062  0.1574  0.3657
10280TIP3    H152255   0.030   5.884   5.669  1.7484 -0.2629 -0.0686
10280TIP3    H252256   0.087   5.932   5.800  1.4091 -0.6105  0.2114
10281TIP3   OH252257   4.826   1.289   5.725 -0.3147 -0.7842 -0.3793
10281TIP3    H152258   4.912   1.280   5.683  0.4148  0.7803  0.6607
10281TIP3    H252259   4.764   1.259   5.659  0.9757 -1.3486 -1.4005
10282TIP3   OH252260   4.948   0.405   0.347 -0.7222 -0.3683  0.0927
10282TIP3    H152261   4.955   0.481   0.289  1.4360  1.1053  2.0939
10282TIP3    H252262   4.911   0.440   0.428  0.4309 -1.4082  1.0968
10283TIP3   OH252263   5.814   4.309   5.284 -0.4100 -0.4850 -0.1110
10283TIP3    H152264   5.794   4.365   5.208  0.8509 -0.8938 -0.7671
10283TIP3    H252265   5.803   4.367   5.359  2.7013  1.2920 -0.8447
10284TIP3   OH252266   5.515   4.015   1.519 -0.0568 -0.3699  0.5266
10284TIP3    H152267   5.499   3.925   1.547  0.4728 -0.4326  0.6366
10284TIP3    H252268   5.514   4.066   1.601 -3.2791  0.2174  0.2704
10285TIP3   OH252269   0.448   3.570   4.483  0.0137 -0.1504  0.4377
10285TIP3    H152270   0.536   3.607   4.487  0.5885 -1.5579  1.7870
10285TIP3    H252271   0.461   3.476   4.490 -1.5529 -0.4641 -0.3863
10286TIP3   OH252272   0.446   4.403  12.710  0.3582  0.3304  0.2384
10286TIP3    H152273   0.381   4.339  12.683  0.2041  0.4724  0.2689
10286TIP3    H252274   0.400   4.459  12.773  0.8833 -0.3625  1.2584
10287TIP3   OH252275   2.450   2.199  16.023 -0.4380 -0.1761  0.4713
10287TIP3    H152276   2.462   2.173  16.114 -0.7539  0.4265  0.6888
10287TIP3    H252277   2.537   2.220  15.991 -0.2982 -0.6030  0.5631
10288TIP3   OH252278   2.964   2.329  15.565 -0.4811 -0.5389 -0.2061
10288TIP3    H152279   2.871   2.326  15.585 -0.0587 -1.5696  1.9001
10288TIP3    H252280   2.988   2.422  15.569 -0.9652 -0.4581  1.7797
10289TIP3   OH252281   3.424   2.112  11.681 -0.2376 -0.6857 -0.4181
10289TIP3    H152282   3.489   2.139  11.746 -0.5271 -1.0457  0.0271
10289TIP3    H252283   3.422   2.184  11.617 -0.6806  0.1544  0.5139
10290TIP3   OH252284   0.232   1.322   5.804 -0.0139 -0.3012 -0.1926
10290TIP3    H152285   0.201   1.366   5.883  0.6892 -3.4514  2.0297
10290TIP3    H252286   0.246   1.392   5.741 -2.2213  2.2137  1.8855
10291TIP3   OH252287   4.648   1.181  17.042  0.0177 -0.0724  0.1962
10291TIP3    H152288   4.599   1.259  17.065  0.7106  0.0558  1.3148
10291TIP3    H252289   4.737   1.197  17.075  0.4632 -0.8570 -0.5640
10292TIP3   OH252290   6.207   6.644  16.472 -0.4080 -0.4882  0.6580
10292TIP3    H152291   6.257   6.605  16.544  2.3515 -1.6819 -1.7063
10292TIP3    H252292   6.160   6.570  16.433 -2.3498  0.2508  1.4779
10293TIP3   OH252293   2.955   2.020   2.234 -0.0299 -0.0106 -0.2823
10293TIP3    H152294   3.034   1.974   2.263  0.1901 -0.5426 -1.6656
10293TIP3    H252295   2.904   2.033   2.315  0.4389 -1.6455  0.3235
10294TIP3   OH252296   0.675   6.179  15.063  0.7995  0.1650  0.1579
10294TIP3    H152297   0.667   6.125  15.142  0.9035  0.8425  0.6385
10294TIP3    H252298   0.606   6.244  15.071 -0.1381 -0.6381 -1.0374
10295TIP3   OH252299   2.423   6.544   3.230  0.4970 -0.0971  0.0375
10295TIP3    H152300   2.373   6.564   3.151  0.4467  3.6291  0.8462
10295TIP3    H252301   2.513   6.533   3.200  0.3256  0.2819 -0.6295
10296TIP3   OH252302   4.115   1.868   1.192  0.4904  0.0276 -0.1282
10296TIP3    H152303   4.087   1.892   1.280 -0.3807 -1.0116 -0.0954
10296TIP3    H252304   4.091   1.775   1.184 -1.5554  0.6332 -2.2279
10297TIP3   OH252305   0.064   5.803  12.083  0.5610  0.0007 -0.2558
10297TIP3    H152306   0.093   5.873  12.025  2.0215  0.5698  1.0855
10297TIP3    H252307   0.130   5.801  12.153 -0.3460 -1.6155  0.6102
10298TIP3   OH252308   6.396   5.956   0.018  0.4093 -0.2547  0.0616
10298TIP3    H152309   6.406   5.914   0.103  0.1657  0.8957  0.6800
10298TIP3    H252310   6.470   6.016   0.012  0.8742 -0.9054 -0.9014
10299TIP3   OH252311   5.128   3.625   2.389 -0.2184  0.3670 -0.0202
10299TIP3    H152312   5.185   3.650   2.316 -1.7550 -0.5770 -1.6218
10299TIP3    H252313   5.056   3.578   2.348 -0.0346 -2.2067  2.3433
10300TIP3   OH252314   5.742   4.204   3.689  0.2753  0.2699 -0.0577
10300TIP3    H152315   5.672   4.269   3.682 -2.3403 -2.4134 -1.5013
10300TIP3    H252316   5.764   4.183   3.598 -0.3730 -2.1309  0.2758
10301TIP3   OH252317   6.259   2.586  11.117 -0.2696  0.5954  0.2682
10301TIP3    H152318   6.264   2.539  11.200 -0.6035  1.1949  0.6291
10301TIP3    H252319   6.262   2.517  11.051  1.4399  0.1761  0.7194
10302TIP3   OH252320   4.191   0.839   0.513  0.2105 -0.3060  0.2546
10302TIP3    H152321   4.156   0.753   0.537 -0.1287  0.3834  2.4565
10302TIP3    H252322   4.122   0.901   0.540 -0.1788  0.6372 -2.5485
10303TIP3   OH252323   1.779   5.799  14.612  0.2380  0.0763 -0.1784
10303TIP3    H152324   1.684   5.797  14.603 -0.0702  0.8684  2.1315
10303TIP3    H252325   1.795   5.773  14.703  2.4505 -2.7141 -1.2333
10304TIP3   OH252326   2.303   6.554  14.591 -0.3457  0.1269 -0.3393
10304TIP3    H152327   2.303   6.599  14.676 -1.3962 -0.1898 -0.1637
10304TIP3    H252328   2.216   6.569  14.555 -0.4008 -0.9738 -0.7020
10305TIP3   OH252329   3.956   3.780   5.303  0.4965 -0.8755  0.5699
10305TIP3    H152330   4.038   3.755   5.345  0.0416 -0.4762  1.7586
10305TIP3    H252331   3.927   3.857   5.353  0.5227  0.3848 -1.2584
10306TIP3   OH252332   2.468   1.888   0.463  0.6969 -0.6791  0.1933
10306TIP3    H152333   2.482   1.907   0.556 -0.8639  0.8937  0.1667
10306TIP3    H252334   2.404   1.817   0.463  0.3904 -0.4069  0.3378
10307TIP3   OH252335   4.311   6.289  12.681  0.5539 -0.1697  0.6744
10307TIP3    H152336   4.221   6.270  12.655  0.0420  1.1396  1.3657
10307TIP3    H252337   4.364   6.270  12.604 -0.0713 -2.5358  0.7419
10308TIP3   OH252338   5.308   1.806  17.044 -0.3758  0.8313 -0.2594
10308TIP3    H152339   5.315   1.851  17.129 -1.1629 -1.2658  1.0043
10308TIP3    H252340   5.324   1.874  16.979  1.6539  2.2469  1.5804
10309TIP3   OH252341   4.816   5.875   5.439 -0.4536 -0.6001  0.3434
10309TIP3    H152342   4.857   5.790   5.453  0.6592 -0.3092 -0.9874
10309TIP3    H252343   4.741   5.857   5.381  1.5104 -0.3705 -2.4650
10310TIP3   OH252344   5.529   5.896   0.324 -0.3356  0.2655  0.4747
10310TIP3    H152345   5.461   5.850   0.372 -0.4402  0.2029  0.2663
10310TIP3    H252346   5.508   5.882   0.232 -0.4046  0.7802  0.4074
10311TIP3   OH252347   4.758   3.405   5.496  0.5297 -0.0501  0.3322
10311TIP3    H152348   4.766   3.444   5.409  1.9500 -1.6432 -0.3010
10311TIP3    H252349   4.824   3.449   5.549  2.1288 -1.4824 -0.3804
10312TIP3   OH252350   0.028   0.228  16.561  0.2975 -0.1522 -0.9908
10312TIP3    H152351   0.092   0.254  16.495  2.3611 -1.4822  0.3510
10312TIP3    H252352   0.007   0.137  16.540 -0.2684 -0.0850 -0.7455
10313TIP3   OH252353   3.710   3.405   0.972  0.6755 -0.5809  0.1296
10313TIP3    H152354   3.762   3.467   0.919 -0.3909  1.2817  1.1502
10313TIP3    H252355   3.671   3.460   1.040 -0.8617 -2.3124  0.6973
10314TIP3   OH252356   4.373   3.275  14.138 -0.6088  0.3678 -0.5356
10314TIP3    H152357   4.433   3.349  14.126  1.8733 -1.1726  1.2334
10314TIP3    H252358   4.345   3.253  14.049 -0.1553  2.4019 -1.2457
10315TIP3   OH252359   1.130   5.530  15.731  0.0716  0.4769 -0.8528
10315TIP3    H152360   1.105   5.459  15.790 -2.1192  1.8698  0.0378
10315TIP3    H252361   1.222   5.548  15.752  0.4091 -1.4887 -0.5160
10316TIP3   OH252362   4.564   3.907  10.415  0.3910 -0.7473 -0.2102
10316TIP3    H152363   4.587   3.823  10.455  0.5733 -0.0962  1.1065
10316TIP3    H252364   4.617   3.911  10.336 -0.8533 -2.5960 -1.2052
10317TIP3   OH252365   2.580   1.272   0.354 -0.1059 -0.9385 -0.1131
10317TIP3    H152366   2.642   1.337   0.320  0.9685 -1.1873  1.2663
10317TIP3    H252367   2.494   1.312   0.342  0.5878  1.5460  2.1934
10318TIP3   OH252368   0.766   6.631   3.855  0.5441  1.0191  0.0705
10318TIP3    H152369   0.798   6.541   3.856  1.0751  1.2039  0.7556
10318TIP3    H252370   0.846   6.685   3.847  0.1913  1.4180 -0.9616
10319TIP3   OH252371   4.553   4.945   1.108 -0.5290  0.7192  0.6014
10319TIP3    H152372   4.607   4.866   1.105  1.3357  1.8351  2.5806
10319TIP3    H252373   4.481   4.923   1.167 -2.3215 -0.7033 -1.8877
10320TIP3   OH252374   3.131   0.616   2.419 -0.5603  0.2128  0.2638
10320TIP3    H152375   3.050   0.667   2.412  0.0402  0.9973 -1.5247
10320TIP3    H252376   3.188   0.653   2.352  0.9308 -0.9942  0.8215
10321TIP3   OH252377   3.914   4.286   0.399  0.5124 -0.7620 -0.0137
10321TIP3    H152378   3.884   4.377   0.401  4.2126  0.6337  0.7343
10321TIP3    H252379   3.876   4.246   0.477  0.1538  0.6527  0.5691
10322TIP3   OH252380   5.896   3.929  16.028 -0.3412  0.2260 -0.0624
10322TIP3    H152381   5.803   3.949  16.034 -0.0602  1.5150  0.3579
10322TIP3    H252382   5.940   4.004  16.070  0.9421  0.3741 -1.5681
10323TIP3   OH252383   3.389   2.087   3.951  0.2914 -0.4795 -0.4757
10323TIP3    H152384   3.436   2.003   3.955 -0.2111 -0.7600 -0.4358
10323TIP3    H252385   3.440   2.145   4.007  0.2045 -0.9780  0.1305
10324TIP3   OH252386   2.961   2.564  16.814 -0.3604 -0.4745  0.1467
10324TIP3    H152387   2.958   2.598  16.725 -0.2938  0.7071  0.5815
10324TIP3    H252388   2.872   2.575  16.847 -0.3360 -0.7166  0.2971
10325TIP3   OH252389   0.201   0.120   2.839  0.0702 -0.4146 -0.1601
10325TIP3    H152390   0.231   0.211   2.844  0.0495 -0.3390 -1.1792
10325TIP3    H252391   0.196   0.102   2.745 -0.1459 -1.3997  0.0342
10326TIP3   OH252392   0.943   3.357   5.008 -0.3385  0.1514  0.3022
10326TIP3    H152393   0.986   3.273   4.994 -0.0714  0.3399 -0.0110
10326TIP3    H252394   1.011   3.412   5.048  0.2699  0.9783 -1.7330
10327TIP3   OH252395   3.562   5.129  15.605  0.2547 -0.3204  0.2505
10327TIP3    H152396   3.572   5.169  15.692  0.8766 -0.1831  0.1218
10327TIP3    H252397   3.529   5.200  15.550 -0.1136 -0.4000  0.3688
10328TIP3   OH252398   5.356   1.655  14.458  0.1488  0.9311 -0.8193
10328TIP3    H152399   5.404   1.574  14.477  1.6575  2.2286  1.3545
10328TIP3    H252400   5.270   1.641  14.498  0.0727  0.0936 -1.2402
10329TIP3   OH252401   1.645   6.678  12.940 -0.4133  0.5257  0.3251
10329TIP3    H152402   1.714   6.679  12.873  0.5008  0.3436  1.2306
10329TIP3    H252403   1.636   6.770  12.965  2.6677  0.2187  3.2690
10330TIP3   OH252404   2.011   0.374   3.152 -0.4937 -0.0040  0.6311
10330TIP3    H152405   1.948   0.318   3.106 -0.5619 -0.2535  1.0273
10330TIP3    H252406   2.076   0.313   3.187  1.1700  0.3735 -1.5441
10331TIP3   OH252407   3.787   0.103   3.571  0.2483 -0.1686  0.1678
10331TIP3    H152408   3.813   0.041   3.502  0.3096 -0.1213  0.1486
10331TIP3    H252409   3.813   0.189   3.538  0.6294 -0.1857  0.4133
10332TIP3   OH252410   1.383   2.519  15.224 -0.6327 -0.1013  0.5719
10332TIP3    H152411   1.415   2.607  15.204 -0.5182 -0.3771 -0.5671
10332TIP3    H252412   1.401   2.507  15.317  0.4159  0.6412  0.4796
10333TIP3   OH252413   4.626   3.010  13.673 -0.3229 -0.4530  0.0095
10333TIP3    H152414   4.601   3.003  13.765  0.7003  0.6422  0.4072
10333TIP3    H252415   4.553   3.056  13.632 -0.4431 -0.2319  0.4597
10334TIP3   OH252416   4.197   1.967   5.963  0.0883 -0.0284 -0.3939
10334TIP3    H152417   4.156   2.037   6.015 -0.9844 -0.4459 -0.6486
10334TIP3    H252418   4.198   1.891   6.021  2.8838  0.5862  0.5268
10335TIP3   OH252419   3.170   5.435  11.956 -0.0609 -0.0421  0.4681
10335TIP3    H152420   3.261   5.454  11.978  0.3191 -0.4735 -0.6361
10335TIP3    H252421   3.175   5.375  11.881 -1.2515 -0.0566  0.3700
10336TIP3   OH252422   6.389   1.982  13.866 -0.3640 -0.3071  0.4846
10336TIP3    H152423   6.339   1.909  13.828  1.1629 -1.0466 -0.1752
10336TIP3    H252424   6.344   2.060  13.834 -1.2781 -0.9529  0.1533
10337TIP3   OH252425   3.502   3.002  12.110 -0.4510 -0.6613  0.5211
10337TIP3    H152426   3.486   3.011  12.016 -1.5165 -0.0864  0.7438
10337TIP3    H252427   3.556   3.078  12.133  0.3080 -1.1208  0.2697
10338TIP3   OH252428   3.182   6.377   3.241  0.2945  0.0791 -0.2000
10338TIP3    H152429   3.212   6.305   3.296  0.7314 -0.3457 -0.9827
10338TIP3    H252430   3.207   6.456   3.290 -1.5440 -0.2362  1.4121
10339TIP3   OH252431   2.863   0.712   2.584  0.2922 -0.0088  0.3576
10339TIP3    H152432   2.807   0.746   2.514 -0.5945 -1.6946  0.1890
10339TIP3    H252433   2.817   0.734   2.664  0.7132  0.8716  0.3738
10340TIP3   OH252434   6.540   6.242   3.654  0.3414  0.7369 -0.0918
10340TIP3    H152435   6.618   6.192   3.631  0.5989  1.1851 -0.2218
10340TIP3    H252436   6.560   6.331   3.625 -0.8580  0.5510 -1.5793
10341TIP3   OH252437   2.982   1.544  10.970  0.3220  0.4212 -0.2314
10341TIP3    H152438   2.950   1.593  10.893 -1.1501  2.3170  1.4727
10341TIP3    H252439   2.947   1.455  10.957 -0.4408  0.8625 -1.4523
10342TIP3   OH252440   6.109   3.962   1.458 -0.1373 -0.0827  0.2219
10342TIP3    H152441   6.108   3.960   1.362  0.5928 -1.7291  0.2133
10342TIP3    H252442   6.199   3.939   1.481 -0.2765  0.4101  1.3208
10343TIP3   OH252443   5.063   2.758   4.136  0.4568  0.3539 -0.4949
10343TIP3    H152444   4.993   2.735   4.075  0.4711 -0.4834 -0.1963
10343TIP3    H252445   5.105   2.835   4.095  2.0034 -1.5574 -2.8253
10344TIP3   OH252446   6.009   0.937  16.978 -0.1749  0.0076  0.0002
10344TIP3    H152447   5.977   0.848  16.964 -2.0135  0.6970 -0.4356
10344TIP3    H252448   5.977   0.960  17.065  0.5108  0.1673  0.2160
10345TIP3   OH252449   6.536   0.900   3.861 -0.2766 -0.4078  0.1833
10345TIP3    H152450   6.584   0.824   3.825 -0.4560 -0.8234  0.8086
10345TIP3    H252451   6.592   0.933   3.931 -0.8942 -0.9052  0.9290
10346TIP3   OH252452   2.676   4.476   0.397 -0.0966 -0.2510 -0.1719
10346TIP3    H152453   2.757   4.473   0.345  0.3118  1.2693  0.3084
10346TIP3    H252454   2.607   4.493   0.333 -0.0565 -1.6410 -0.5984
10347TIP3   OH252455   4.959   5.205  12.373  0.0700 -0.0093  0.2556
10347TIP3    H152456   4.877   5.161  12.350  0.6112 -1.2371  0.6059
10347TIP3    H252457   5.007   5.209  12.290  0.5934 -1.3720  0.4583
10348TIP3   OH252458   4.380   4.206  13.094  0.5760 -0.7306 -0.2512
10348TIP3    H152459   4.439   4.141  13.132  0.1321 -1.2667 -0.4604
10348TIP3    H252460   4.329   4.238  13.168 -0.7594 -2.2661 -0.4473
10349TIP3   OH252461   5.506   1.172   5.072 -0.1278 -0.3326  0.2640
10349TIP3    H152462   5.494   1.082   5.102 -0.6050 -0.3912 -0.0942
10349TIP3    H252463   5.584   1.168   5.016  0.4201 -0.3327  1.0100
10350TIP3   OH252464   4.062   5.038   0.516 -0.2198 -0.2952  0.3087
10350TIP3    H152465   4.140   4.983   0.505  0.9217  0.5365  3.2993
10350TIP3    H252466   4.062   5.061   0.609 -3.2830  0.9216  0.1169
10351TIP3   OH252467   0.421   3.321  13.742  0.3379 -0.4478 -0.1265
10351TIP3    H152468   0.398   3.414  13.747 -0.5811 -0.6954  0.5061
10351TIP3    H252469   0.475   3.314  13.663 -2.0259  0.1322 -1.9003
10352TIP3   OH252470   4.632   5.808   2.091 -0.2628 -0.6280  0.8006
10352TIP3    H152471   4.629   5.813   1.996 -0.1247  0.8484  0.8474
10352TIP3    H252472   4.616   5.898   2.120  2.1366 -0.5543  2.1090
10353TIP3   OH252473   3.529   1.263   2.459 -0.3071  0.2769 -0.3145
10353TIP3    H152474   3.587   1.317   2.405 -0.2746 -0.3091 -0.8785
10353TIP3    H252475   3.574   1.179   2.465  1.1707  1.1507  3.1014
10354TIP3   OH252476   4.439   4.717   0.835 -0.2607 -0.3064  0.6740
10354TIP3    H152477   4.462   4.669   0.756  0.0580  0.4256  0.3159
10354TIP3    H252478   4.343   4.718   0.836 -0.2704  0.3158 -0.1007
10355TIP3   OH252479   3.578   1.068  16.074 -0.2224 -0.9447 -0.1968
10355TIP3    H152480   3.593   0.974  16.067  2.0846 -0.6289 -0.1278
10355TIP3    H252481   3.652   1.108  16.028 -0.6643  0.8455  0.5686
10356TIP3   OH252482   3.761   0.585  12.632 -0.0610  0.5232  0.1237
10356TIP3    H152483   3.812   0.513  12.594  1.4825  0.9030  1.3575
10356TIP3    H252484   3.722   0.547  12.710  0.6993  0.9816  0.7390
10357TIP3   OH252485   6.658   5.568  11.043 -0.6832  0.2342 -0.1646
10357TIP3    H152486   6.739   5.607  11.011 -1.0383 -0.0046 -1.4179
10357TIP3    H252487   6.662   5.477  11.015 -0.9628 -0.0180  0.5928
10358TIP3   OH252488   3.784   5.558  13.915  0.0835 -0.3252  0.2270
10358TIP3    H152489   3.780   5.647  13.950 -0.1106  0.1382 -0.9117
10358TIP3    H252490   3.694   5.525  13.921  0.2031 -0.5357  0.8723
10359TIP3   OH252491   1.102   0.885   1.252  0.0243  0.1355 -0.1137
10359TIP3    H152492   1.073   0.945   1.321  1.4036  1.3943 -0.5768
10359TIP3    H252493   1.189   0.916   1.228  0.5836 -1.7630 -0.7435
10360TIP3   OH252494   1.775   0.408  16.892  0.3632 -0.4647 -0.0667
10360TIP3    H152495   1.755   0.422  16.985 -1.2390  2.5482 -0.7478
10360TIP3    H252496   1.691   0.418  16.847  1.6356  2.4546 -2.1423
10361TIP3   OH252497   6.495   4.435   0.593  0.1482 -0.0682  0.4598
10361TIP3    H152498   6.566   4.498   0.607  1.5690 -0.6730 -2.9967
10361TIP3    H252499   6.434   4.480   0.536 -0.4298 -0.7799  0.4968
10362TIP3   OH252500   3.384   5.617   4.486 -0.2670 -0.3299  0.0639
10362TIP3    H152501   3.298   5.644   4.454  0.3477 -0.5775 -1.9350
10362TIP3    H252502   3.377   5.523   4.499  0.2820 -0.7477 -2.2757
10363TIP3   OH252503   3.819   0.146   3.111 -0.3603  0.3497 -0.6659
10363TIP3    H152504   3.819   0.204   3.034  1.5313  0.4629 -0.6375
10363TIP3    H252505   3.739   0.169   3.158 -1.1478  0.8522 -2.1683
10364TIP3   OH252506   0.084   6.591  12.146  0.1112 -0.1006  0.2282
10364TIP3    H152507   0.125   6.516  12.189  1.2328  0.4416  0.1374
10364TIP3    H252508   0.002   6.556  12.112  1.1320 -1.6265 -0.8523
10365TIP3   OH252509   3.510   3.319  11.993 -0.0157  0.1750 -0.2171
10365TIP3    H152510   3.602   3.301  12.010  0.1544  0.3669 -0.9166
10365TIP3    H252511   3.467   3.234  12.005  0.8070 -0.8849 -3.7084
10366TIP3   OH252512   6.553   4.529  15.502 -0.3015 -0.0452 -0.0460
10366TIP3    H152513   6.501   4.609  15.490 -1.6452 -0.2845  3.0521
10366TIP3    H252514   6.628   4.557  15.555 -0.4353 -0.6886  0.5004
10367TIP3   OH252515   5.573   5.278   1.326  0.0864  0.3810 -0.2062
10367TIP3    H152516   5.619   5.254   1.245  0.0015 -0.1087 -0.1106
10367TIP3    H252517   5.528   5.360   1.304  0.3609  0.4468 -0.5409
10368TIP3   OH252518   1.717   5.219  11.816  0.2860 -0.1378  0.5843
10368TIP3    H152519   1.728   5.124  11.821 -0.7006 -0.2616  0.7456
10368TIP3    H252520   1.803   5.255  11.835  0.6680 -1.0024  0.5265
10369TIP3   OH252521   1.099   6.445  16.460  0.2405  0.1285  0.2239
10369TIP3    H152522   1.078   6.353  16.477 -1.1038  0.2892 -0.4178
10369TIP3    H252523   1.112   6.483  16.547  2.9371 -1.0885  0.4461
10370TIP3   OH252524   0.263   2.551   4.648  0.5544  0.3819 -0.4772
10370TIP3    H152525   0.228   2.497   4.577 -0.1237  0.2961 -0.0880
10370TIP3    H252526   0.204   2.626   4.653  0.5439  0.3445  0.0488
10371TIP3   OH252527   3.018   5.281   0.458  0.1164  0.0036  0.1115
10371TIP3    H152528   2.925   5.302   0.462  0.5129  2.5053 -1.8436
10371TIP3    H252529   3.053   5.336   0.389  2.8018 -2.0015 -0.3038
10372TIP3   OH252530   1.778   3.208  13.116  0.1345  0.6153 -0.1437
10372TIP3    H152531   1.820   3.123  13.104 -1.6427 -0.1594 -1.3875
10372TIP3    H252532   1.758   3.212  13.209  0.5592 -0.1840 -0.0104
10373TIP3   OH252533   0.387   6.712   4.536  0.1656 -0.2224  0.4634
10373TIP3    H152534   0.382   6.752   4.623  3.1685 -0.1142  0.6943
10373TIP3    H252535   0.461   6.652   4.541  0.9583  0.3682 -2.2053
10374TIP3   OH252536   5.653   5.459   1.621  0.7365 -0.0143 -0.3385
10374TIP3    H152537   5.667   5.426   1.710  2.6372  1.2266 -0.1275
10374TIP3    H252538   5.666   5.553   1.628 -0.2436  0.2482 -1.7415
10375TIP3   OH252539   2.996   1.866  14.802 -0.2770 -0.6109 -0.6035
10375TIP3    H152540   2.978   1.932  14.735 -2.4508  0.5196  0.9670
10375TIP3    H252541   2.957   1.786  14.769 -0.3445 -0.3464 -1.1807
10376TIP3   OH252542   2.992   3.614   6.237  0.2665 -0.2284 -0.4916
10376TIP3    H152543   2.972   3.707   6.247 -0.6953  0.0137 -3.6521
10376TIP3    H252544   3.016   3.585   6.326 -0.9308  2.6338  0.8964
10377TIP3   OH252545   6.256   0.843   1.168 -0.4203  0.2898  0.2207
10377TIP3    H152546   6.236   0.766   1.221  0.6978  0.3189  0.7229
10377TIP3    H252547   6.352   0.847   1.167 -0.4427  0.9737 -0.8313
10378TIP3   OH252548   0.857   5.693   1.527  0.2878  0.0005 -0.2792
10378TIP3    H152549   0.868   5.788   1.522 -1.5947  0.2666 -0.1925
10378TIP3    H252550   0.919   5.658   1.463  0.8006  1.2934 -0.5208
10379TIP3   OH252551   0.744   6.798  16.546  0.1491  0.7221  0.3458
10379TIP3    H152552   0.657   6.759  16.544  0.8079 -0.8202 -0.6074
10379TIP3    H252553   0.785   6.768  16.465  1.0272  2.7515 -0.0112
10380TIP3   OH252554   2.481   0.910   2.653  0.0700 -0.9532 -0.4283
10380TIP3    H152555   2.538   0.986   2.644 -0.7856 -0.4068 -1.5043
10380TIP3    H252556   2.534   0.845   2.700  0.7831  0.3155  0.5705
10381TIP3   OH252557   4.554   4.019  13.257  0.0736  0.0297 -0.1842
10381TIP3    H152558   4.557   4.100  13.308 -1.3863 -1.5996  2.7806
10381TIP3    H252559   4.630   3.969  13.286 -0.9908 -1.0843  0.8106
10382TIP3   OH252560   2.310   2.592  16.065  0.3796 -0.4681  0.1808
10382TIP3    H152561   2.262   2.510  16.054 -2.4286  1.0698  0.0139
10382TIP3    H252562   2.289   2.620  16.154  0.1269  0.7371 -0.2365
10383TIP3   OH252563   5.203   5.518  12.162 -0.5972 -0.3751  0.0026
10383TIP3    H152564   5.217   5.425  12.143 -0.4270 -0.3207 -0.1387
10383TIP3    H252565   5.234   5.564  12.084 -1.0227 -0.2163 -0.0751
10384TIP3   OH252566   6.196   5.343   4.340  0.4380  0.3541 -0.4880
10384TIP3    H152567   6.284   5.361   4.373 -0.1815  2.9586 -0.0708
10384TIP3    H252568   6.210   5.308   4.252  1.8887  1.1434 -0.5940
10385TIP3   OH252569   0.830   1.959  12.258  0.0170  0.3162  0.4730
10385TIP3    H152570   0.876   1.981  12.339  0.8371  1.7590 -0.3323
10385TIP3    H252571   0.896   1.968  12.190 -1.5911  3.5466 -0.8753
10386TIP3   OH252572   5.910   0.475   5.404 -0.7724 -0.5249 -0.3156
10386TIP3    H152573   5.926   0.519   5.321 -2.1058 -0.6500 -0.6587
10386TIP3    H252574   5.903   0.382   5.382 -1.6986 -0.5032 -0.1666
10387TIP3   OH252575   4.890   3.363   0.788  0.0191  0.3414  0.0827
10387TIP3    H152576   4.931   3.334   0.869 -0.1473  0.4166  0.1957
10387TIP3    H252577   4.934   3.313   0.719  1.4075  1.5715  0.0372
10388TIP3   OH252578   4.391   1.939  11.424 -0.2093  0.3511 -0.0450
10388TIP3    H152579   4.311   1.902  11.387 -0.7110  1.1058  0.2439
10388TIP3    H252580   4.370   1.951  11.517  0.1486  0.7751 -0.0163
10389TIP3   OH252581   4.835   0.916   1.153  0.4254 -0.6670  0.1993
10389TIP3    H152582   4.916   0.966   1.143  0.7928 -0.9850  1.3875
10389TIP3    H252583   4.809   0.893   1.064  1.1186  0.2622 -0.2522
10390TIP3   OH252584   2.127   4.800  15.163  0.0180  0.4804 -0.0519
10390TIP3    H152585   2.211   4.764  15.134  0.2968  2.1615 -1.5303
10390TIP3    H252586   2.099   4.856  15.090 -0.9511  2.2725  1.6041
10391TIP3   OH252587   4.864   2.849   4.333  0.1349 -0.3078 -0.4325
10391TIP3    H152588   4.943   2.812   4.294 -1.2680 -1.7466 -2.0462
10391TIP3    H252589   4.890   2.937   4.361  2.1796 -0.5963 -1.2700
10392TIP3   OH252590   0.645   4.919  15.604 -0.6706 -0.5382  0.4217
10392TIP3    H152591   0.583   4.954  15.668 -1.7046  0.2058 -0.9486
10392TIP3    H252592   0.596   4.852  15.557  0.2554 -1.4670  0.7488
10393TIP3   OH252593   6.771   3.712   3.131 -0.7618  0.2767 -0.0217
10393TIP3    H152594   6.736   3.625   3.153 -1.7648  0.1116 -2.0528
10393TIP3    H252595   6.818   3.699   3.049  0.4068  1.3822  0.4475
10394TIP3   OH252596   1.744   6.554  12.496 -0.2433 -0.1937 -0.0754
10394TIP3    H152597   1.681   6.611  12.540 -0.2497 -1.0404  1.0649
10394TIP3    H252598   1.830   6.591  12.516 -0.1662 -1.2323  1.7312
10395TIP3   OH252599   6.747   1.230   1.895  0.2503 -0.0258  0.7607
10395TIP3    H152600   6.694   1.285   1.837  0.7825  0.5747  0.8371
10395TIP3    H252601   6.683   1.177   1.943 -0.2418  0.1826  0.3421
10396TIP3   OH252602   4.754   0.300   5.626  0.0199  0.0715 -0.6238
10396TIP3    H152603   4.734   0.360   5.554 -1.9708 -0.8391 -0.8861
10396TIP3    H252604   4.671   0.288   5.672  0.8532 -0.7981  0.7387
10397TIP3   OH252605   1.315   3.689   5.189 -0.5496  0.0227 -0.1088
10397TIP3    H152606   1.233   3.639   5.195 -0.1001 -0.6939  0.3010
10397TIP3    H252607   1.316   3.742   5.269  0.4081 -1.6294  1.0585
10398TIP3   OH252608   0.023   4.943   0.833 -0.3478  0.1894 -0.0573
10398TIP3    H152609  -0.057   4.890   0.838  1.1633 -2.1521  0.6050
10398TIP3    H252610   0.050   4.954   0.924 -1.2407  3.3011 -0.0337
10399TIP3   OH252611   1.556   5.376  11.972 -0.2298 -0.3200  0.2748
10399TIP3    H152612   1.507   5.311  12.022  1.4887 -2.1875 -0.3429
10399TIP3    H252613   1.626   5.327  11.930  1.6235  2.0488  0.3611
10400TIP3   OH252614   0.459   1.016   4.655 -0.3066  0.0065  0.3985
10400TIP3    H152615   0.415   1.062   4.726  0.2139  0.6311  0.3256
10400TIP3    H252616   0.551   1.036   4.667 -0.1177 -0.6538  0.0947
10401TIP3   OH252617   5.363   5.095   0.036 -0.1301 -0.0799 -0.4494
10401TIP3    H152618   5.338   5.184   0.008  2.2647  0.5391 -0.7979
10401TIP3    H252619   5.407   5.058  -0.040  1.0631 -0.6395  0.4881
10402TIP3   OH252620   6.062   4.972   1.346 -0.6932  0.3806 -0.4776
10402TIP3    H152621   6.093   4.935   1.263 -1.9393  0.0709 -0.8285
10402TIP3    H252622   6.140   4.978   1.401 -0.1947 -1.3739 -0.9378
10403TIP3   OH252623   3.354   6.689   2.885 -0.1438 -0.0756 -0.0733
10403TIP3    H152624   3.385   6.678   2.975  0.8314 -0.5534 -0.4547
10403TIP3    H252625   3.397   6.769   2.854 -0.0958 -0.1782 -0.2735
10404TIP3   OH252626   0.103   5.263  14.413 -0.0179  0.2566 -0.2881
10404TIP3    H152627   0.150   5.223  14.486  2.5043  1.8724 -0.8932
10404TIP3    H252628   0.161   5.334  14.383 -1.1308 -0.0486 -3.5791
10405TIP3   OH252629   5.934   4.304  13.011  0.2005  0.0276  0.3676
10405TIP3    H152630   5.962   4.226  13.059  0.8093 -1.0397 -1.6111
10405TIP3    H252631   5.843   4.285  12.986  0.7247 -0.6483 -1.1588
10406TIP3   OH252632   2.885   5.330  14.150 -0.3860 -0.5045 -0.3750
10406TIP3    H152633   2.974   5.296  14.151 -0.4796 -0.8127 -1.2418
10406TIP3    H252634   2.882   5.393  14.222  0.6190 -0.2534 -0.5345
10407TIP3   OH252635   1.049   6.183  11.332  0.4087 -0.0849 -0.2196
10407TIP3    H152636   0.989   6.138  11.272 -0.2108  2.2028 -1.4379
10407TIP3    H252637   0.992   6.242  11.381  1.3454  0.3014  0.4146
10408TIP3   OH252638   3.753   2.881  12.352 -0.3352 -0.0440 -0.3018
10408TIP3    H152639   3.768   2.904  12.444 -0.5981 -0.7651 -0.0731
10408TIP3    H252640   3.725   2.963  12.311  0.4114  0.4265  0.1132
10409TIP3   OH252641   0.357   2.009   2.604 -0.2717 -0.2660  0.5391
10409TIP3    H152642   0.434   2.062   2.626  0.4611 -1.3885  0.7899
10409TIP3    H252643   0.392   1.921   2.590 -1.5204 -0.8034  0.6588
10410TIP3   OH252644   0.295   1.285  12.645  0.4412  0.8863 -0.0679
10410TIP3    H152645   0.339   1.368  12.624  0.9043  0.6370 -0.0947
10410TIP3    H252646   0.365   1.230  12.681  0.0387  0.6670  0.3797
10411TIP3   OH252647   0.980   4.449  13.878 -0.6401  0.5234  0.1935
10411TIP3    H152648   0.969   4.365  13.922 -0.4436  0.5349  0.2661
10411TIP3    H252649   0.901   4.498  13.899 -0.3241  0.7161  0.9566
10412TIP3   OH252650   2.955   4.785  16.631  0.6802  0.5327 -0.0338
10412TIP3    H152651   3.003   4.864  16.609 -0.5770  2.0183  2.1216
10412TIP3    H252652   3.010   4.713  16.599  1.6000  2.2365 -2.5507
10413TIP3   OH252653   5.934   3.511   3.849  0.1455 -0.1396 -0.0040
10413TIP3    H152654   5.864   3.473   3.796 -0.0918  1.1237 -0.6406
10413TIP3    H252655   5.930   3.605   3.831  1.2882  0.0951  0.8101
10414TIP3   OH252656   1.198   2.608  11.628 -0.5236 -1.2604  0.0286
10414TIP3    H152657   1.215   2.682  11.571 -0.1131  0.4960  2.2663
10414TIP3    H252658   1.245   2.535  11.588  0.6893  0.1478 -1.2337
10415TIP3   OH252659   2.960   5.972  14.048  0.6728 -0.2656  0.4107
10415TIP3    H152660   2.893   6.025  14.005 -0.9972 -0.8583  2.1792
10415TIP3    H252661   3.038   6.029  14.049 -0.0784  0.8419 -0.7232
10416TIP3   OH252662   6.707   3.354   0.962  0.0460 -0.3458 -0.0579
10416TIP3    H152663   6.678   3.414   0.894 -1.1886 -0.2981  0.5008
10416TIP3    H252664   6.784   3.397   1.000 -0.4316  0.5679 -0.0989
10417TIP3   OH252665   1.537   3.402   4.760 -0.9394 -0.1627 -0.0475
10417TIP3    H152666   1.534   3.475   4.698 -2.4061  0.9158  1.2263
10417TIP3    H252667   1.470   3.341   4.730 -0.1154 -0.7449 -0.7702
10418TIP3   OH252668   4.819   1.830   0.878  0.2082 -0.0472  0.1673
10418TIP3    H152669   4.891   1.802   0.821  0.2516 -2.2971  1.2147
10418TIP3    H252670   4.842   1.919   0.904  1.4970  0.0732 -1.2313
10419TIP3   OH252671   5.183   1.772  10.673  0.0911  0.3915  0.0551
10419TIP3    H152672   5.112   1.710  10.688 -0.7419  1.2783 -0.1479
10419TIP3    H252673   5.139   1.854  10.649  1.1851  0.8778 -0.3580
10420TIP3   OH252674   5.580   2.847   1.875 -0.2837 -0.0676 -0.0286
10420TIP3    H152675   5.574   2.752   1.882 -3.7759  0.1376  1.8177
10420TIP3    H252676   5.513   2.870   1.811  0.4340  1.2029 -0.3486
10421TIP3   OH252677   0.498   2.336   0.080 -0.2890 -1.0925 -0.5357
10421TIP3    H152678   0.574   2.336   0.138 -0.5638 -1.4711 -0.1622
10421TIP3    H252679   0.452   2.254   0.101  0.6577 -2.2610 -2.6841
10422TIP3   OH252680   1.098   3.414  14.036  0.1388 -0.2789 -0.1501
10422TIP3    H152681   1.041   3.414  13.960  1.6106  1.4817 -1.3462
10422TIP3    H252682   1.120   3.322  14.050 -2.5422 -0.9651  0.1004
10423TIP3   OH252683   1.023   2.899   4.101  0.4788 -0.3126 -0.9384
10423TIP3    H152684   1.092   2.835   4.088 -0.5690 -2.5573  2.7445
10423TIP3    H252685   0.967   2.891   4.024  2.1888 -1.3490 -2.1285
10424TIP3   OH252686   1.131   6.438  14.371  0.4609  0.7343  0.2632
10424TIP3    H152687   1.206   6.385  14.343 -0.0460 -0.1146  0.4888
10424TIP3    H252688   1.167   6.526  14.383  1.7804  0.0180  1.9056
10425TIP3   OH252689   2.297   6.647  16.485 -0.2451 -0.5575 -0.0389
10425TIP3    H152690   2.331   6.713  16.547  0.0613 -0.3962 -0.3745
10425TIP3    H252691   2.316   6.563  16.527 -0.2172 -0.4424  0.1800
10426TIP3   OH252692   2.691   5.632   5.221 -0.0704 -0.4492  0.9852
10426TIP3    H152693   2.629   5.579   5.272 -1.8546  1.5543  1.0394
10426TIP3    H252694   2.734   5.688   5.286 -0.1845  0.0425  0.6463
10427TIP3   OH252695   3.533   1.097   4.331 -0.2424  0.1107  0.2486
10427TIP3    H152696   3.564   1.028   4.272  0.2367 -0.0348  0.6668
10427TIP3    H252697   3.523   1.174   4.275 -0.6763 -0.2619 -0.1996
10428TIP3   OH252698   2.075   0.844   0.728 -0.0480  0.9710  0.2613
10428TIP3    H152699   2.100   0.832   0.636  0.5072  0.9887  0.4025
10428TIP3    H252700   1.981   0.860   0.726  0.1120  1.8675 -0.3789
10429TIP3   OH252701   5.932   1.036  11.858 -0.2122  0.2751  0.6300
10429TIP3    H152702   5.896   1.006  11.775 -0.9839 -0.6634  1.2909
10429TIP3    H252703   6.026   1.020  11.851 -0.3245 -0.1482  0.0890
10430TIP3   OH252704   6.084   4.815  11.373 -0.1976 -0.5388  0.1875
10430TIP3    H152705   6.067   4.898  11.417 -0.7252  0.4443 -1.7612
10430TIP3    H252706   6.053   4.748  11.435  1.2172  0.5920  2.2500
10431TIP3   OH252707   1.202   6.773   3.303 -1.2101 -0.7558 -0.7872
10431TIP3    H152708   1.184   6.704   3.367 -2.8495 -1.1420 -1.6211
10431TIP3    H252709   1.160   6.851   3.340 -0.8575 -0.6132 -0.6819
10432TIP3   OH252710   3.195   2.380   3.810 -0.0114 -0.1350  0.6420
10432TIP3    H152711   3.174   2.466   3.776  1.8027  0.7483  1.6070
10432TIP3    H252712   3.124   2.360   3.871 -0.4380  0.6645  0.4118
10433TIP3   OH252713   2.501   0.850  12.408  0.4286 -0.1786  0.3382
10433TIP3    H152714   2.406   0.836  12.402  0.4772 -1.0718  1.3470
10433TIP3    H252715   2.518   0.921  12.347 -0.8396 -0.2460 -0.1385
10434TIP3   OH252716   3.947   4.121   0.916 -0.0060 -0.3340  0.1885
10434TIP3    H152717   3.918   4.207   0.944 -0.4944 -0.6986  0.8268
10434TIP3    H252718   3.898   4.104   0.836  0.5696  0.2433 -0.2978
10435TIP3   OH252719   3.442   4.056  14.336  0.0929  1.0081 -0.2780
10435TIP3    H152720   3.517   4.088  14.385 -0.0115  0.9804 -0.0969
10435TIP3    H252721   3.371   4.052  14.400  0.0450  0.6417 -0.3496
10436TIP3   OH252722   3.053   1.792  13.535  0.3636  0.2779  0.1207
10436TIP3    H152723   2.960   1.780  13.554 -0.0043 -0.3897 -1.8503
10436TIP3    H252724   3.094   1.805  13.621 -1.4262 -0.2437  1.1011
10437TIP3   OH252725   4.267   6.216   6.327 -0.2533  0.1987  0.0870
10437TIP3    H152726   4.222   6.268   6.393  0.3901 -0.3754  1.0002
10437TIP3    H252727   4.299   6.140   6.374  0.8506  0.1276 -0.7406
10438TIP3   OH252728   0.480   3.710   3.771 -0.2555  0.2657 -0.1751
10438TIP3    H152729   0.450   3.774   3.707  0.0589  2.9825  2.1471
10438TIP3    H252730   0.430   3.631   3.753 -0.0917  0.8399 -3.7306
10439TIP3   OH252731   1.976   4.940   4.843 -0.0885 -0.1760  0.0840
10439TIP3    H152732   1.939   5.006   4.901 -0.1858 -0.2172  0.0709
10439TIP3    H252733   1.979   4.860   4.896  3.0160  0.5388  1.1380
10440TIP3   OH252734   2.723   0.332   4.958  0.2778  0.1575 -0.5503
10440TIP3    H152735   2.806   0.286   4.969 -0.9763 -2.3332 -0.7019
10440TIP3    H252736   2.697   0.314   4.867 -0.6961  0.3747 -0.3300
10441TIP3   OH252737   6.492   3.168   3.694 -0.5969 -0.5892 -0.1637
10441TIP3    H152738   6.481   3.252   3.651  0.4150  0.0911  0.8420
10441TIP3    H252739   6.553   3.119   3.639  0.5385  0.1990  0.3688
10442TIP3   OH252740   0.791   5.455  16.513 -0.3371  0.5826 -0.3435
10442TIP3    H152741   0.709   5.448  16.464 -1.9947  1.6858  2.0974
10442TIP3    H252742   0.775   5.522  16.578  2.4766  0.6755  0.4009
10443TIP3   OH252743   6.477   2.192  16.561 -0.0132  1.0556  0.0044
10443TIP3    H152744   6.449   2.147  16.641  2.9428 -0.6610  0.2486
10443TIP3    H252745   6.530   2.265  16.593  2.4606 -0.5138 -0.2115
10444TIP3   OH252746   1.043   0.677  12.245  0.2676  0.0653  0.0865
10444TIP3    H152747   1.067   0.706  12.333  0.2520  2.4753 -0.6331
10444TIP3    H252748   1.125   0.648  12.206  0.3360 -0.6716  0.7632
10445TIP3   OH252749   6.631   2.030   0.553 -0.0914  0.3392  0.1161
10445TIP3    H152750   6.713   2.072   0.526 -0.5232  0.5021 -0.9487
10445TIP3    H252751   6.569   2.101   0.563  0.0643  0.3008  1.6693
10446TIP3   OH252752   4.026   1.063   2.365  0.5756 -0.3198 -0.6991
10446TIP3    H152753   3.997   1.025   2.447  1.4603 -0.6936 -0.5536
10446TIP3    H252754   4.121   1.056   2.367  0.5553 -2.2403 -2.6346
10447TIP3   OH252755   3.801   1.812   4.161 -0.2618  0.1558 -0.0964
10447TIP3    H152756   3.836   1.877   4.223 -1.4368  1.0388 -0.3451
10447TIP3    H252757   3.878   1.759   4.138  0.2749 -0.0650  1.9239
10448TIP3   OH252758   3.869   5.406   3.215 -0.3372  0.1458  0.3051
10448TIP3    H152759   3.865   5.478   3.152  0.6464  0.6046  0.7404
10448TIP3    H252760   3.779   5.371   3.218 -1.0878  1.9931  0.8171
10449TIP3   OH252761   5.990   4.904   0.017 -0.0634 -0.4005 -0.0926
10449TIP3    H152762   6.048   4.848   0.067 -0.2503 -0.9493 -0.4717
10449TIP3    H252763   5.904   4.862   0.025 -0.2228 -0.1186 -0.3055
10450TIP3   OH252764   2.843   2.769  15.793  1.1167  0.0964  0.1052
10450TIP3    H152765   2.923   2.742  15.839  1.1927 -0.3228 -0.2549
10450TIP3    H252766   2.828   2.698  15.729  0.8668  0.5318 -0.3255
10451TIP3   OH252767   3.696   5.638   1.659  0.1149  0.7506  0.2974
10451TIP3    H152768   3.602   5.617   1.660 -0.0731  1.5689  0.5405
10451TIP3    H252769   3.706   5.708   1.724  1.0856 -0.0777  1.0722
10452TIP3   OH252770   4.978   6.633  15.643 -0.2049 -0.0476 -0.0643
10452TIP3    H152771   5.034   6.710  15.632  1.3627 -1.4040 -2.0271
10452TIP3    H252772   5.032   6.570  15.690 -0.1880 -1.2233 -1.6062
10453TIP3   OH252773   3.304   3.277  11.105 -0.2426  0.0336 -0.2587
10453TIP3    H152774   3.293   3.326  11.023 -2.3222  1.5697  0.8349
10453TIP3    H252775   3.295   3.344  11.173 -0.3970 -1.4843  1.2570
10454TIP3   OH252776   0.466   1.624   5.300  0.0375 -0.6010 -0.0473
10454TIP3    H152777   0.388   1.646   5.250 -1.2007 -1.1465  1.5515
10454TIP3    H252778   0.440   1.635   5.391  2.4467  1.2163  0.5386
10455TIP3   OH252779   0.214   1.518  13.226  0.1275  0.8006 -0.4190
10455TIP3    H152780   0.170   1.533  13.143  0.2435  0.9863 -0.4463
10455TIP3    H252781   0.176   1.436  13.259  0.3737  0.5108 -0.8431
10456TIP3   OH252782   0.736   3.791   4.433  0.0015 -0.1105  0.1345
10456TIP3    H152783   0.668   3.858   4.425  1.8309  1.8879  0.1503
10456TIP3    H252784   0.778   3.811   4.517  2.2436  0.4343 -1.0398
10457TIP3   OH252785   4.933   5.545  10.824  0.4564 -0.0105  0.3482
10457TIP3    H152786   5.023   5.513  10.823  1.1135  1.6759 -1.6786
10457TIP3    H252787   4.897   5.519  10.739 -0.0584  1.6237  0.0298
10458TIP3   OH252788   5.660   6.430  13.785 -0.4074 -0.0841  0.0625
10458TIP3    H152789   5.659   6.520  13.818  0.5447 -0.1486  0.3016
10458TIP3    H252790   5.622   6.436  13.698 -1.4313  0.3594  0.5259
10459TIP3   OH252791   2.306   0.124  11.999  0.0922 -0.1743  0.5084
10459TIP3    H152792   2.357   0.066  11.942  0.9994 -0.1682  1.2929
10459TIP3    H252793   2.323   0.091  12.088  1.9790  2.2682  1.1424
10460TIP3   OH252794   2.548   0.963   1.634  0.2330 -0.2656 -0.1473
10460TIP3    H152795   2.565   0.924   1.720 -0.0178 -0.7115 -0.2947
10460TIP3    H252796   2.573   1.055   1.644 -1.5286  0.1439  0.9547
10461TIP3   OH252797   2.524   6.098   4.002 -0.1263 -0.6465  0.0387
10461TIP3    H152798   2.469   6.093   3.923 -0.0979 -1.6438  0.0582
10461TIP3    H252799   2.529   6.191   4.022 -0.3269 -0.3889 -1.0073
10462TIP3   OH252800   4.521   3.829  11.804  0.2644  0.1781 -0.1434
10462TIP3    H152801   4.564   3.764  11.859 -0.7194 -0.0976  0.3228
10462TIP3    H252802   4.591   3.888  11.777  1.1198 -0.8827 -0.3120
10463TIP3   OH252803   3.093   0.978   3.356  0.2449 -0.1134 -0.6241
10463TIP3    H152804   3.123   0.979   3.447 -0.0588  1.1536 -0.5192
10463TIP3    H252805   3.142   1.049   3.314  0.8856 -1.1255 -1.6369
10464TIP3   OH252806   4.838   3.123  11.534 -0.2748 -0.5552  0.4643
10464TIP3    H152807   4.879   3.164  11.458 -1.1396 -2.9975 -1.4672
10464TIP3    H252808   4.744   3.135  11.519 -0.4523 -0.8796  1.2725
10465TIP3   OH252809   0.109   3.569   4.917  0.0115  0.5895  0.4747
10465TIP3    H152810   0.154   3.491   4.948 -0.3698 -0.5654 -1.6500
10465TIP3    H252811   0.119   3.566   4.822 -1.7848  2.0173  0.1793
10466TIP3   OH252812   1.559   6.544   4.295 -0.0262 -0.0028 -0.2783
10466TIP3    H152813   1.653   6.559   4.291  0.1891 -0.8929  0.9089
10466TIP3    H252814   1.534   6.567   4.385 -0.7191 -0.9131 -0.2226
10467TIP3   OH252815   5.346   4.920  11.889 -0.3769  0.1777 -0.1434
10467TIP3    H152816   5.390   4.949  11.809  2.2893  1.8939  1.8026
10467TIP3    H252817   5.305   4.999  11.924 -0.2941 -0.2366  0.9173
10468TIP3   OH252818   0.363   4.619  13.286  0.3035 -0.1506 -0.4556
10468TIP3    H152819   0.291   4.559  13.306  0.8889 -1.7447 -2.7107
10468TIP3    H252820   0.333   4.667  13.208  0.6417  1.1403  0.1706
10469TIP3   OH252821   6.811   0.313   0.592 -0.1234 -0.3327  0.4211
10469TIP3    H152822   6.822   0.240   0.654 -0.2525  1.2460  2.4209
10469TIP3    H252823   6.891   0.314   0.541  0.0028 -1.6961  0.5599
10470TIP3   OH252824   4.280   1.125   1.569  0.1379  0.0167  0.4381
10470TIP3    H152825   4.239   1.182   1.504  1.4197 -1.1403 -1.5378
10470TIP3    H252826   4.209   1.098   1.627 -0.5319  3.3484  1.3212
10471TIP3   OH252827   2.572   2.119   0.119  0.7881  0.3856  0.2579
10471TIP3    H152828   2.505   2.060   0.085 -0.0158  0.1497  2.1161
10471TIP3    H252829   2.547   2.206   0.086 -0.0956  0.2106  0.4377
10472TIP3   OH252830   6.045   3.810   0.194  0.3265 -0.2150 -0.9297
10472TIP3    H152831   6.130   3.766   0.186 -0.3284 -1.3340 -2.2830
10472TIP3    H252832   6.061   3.900   0.165  1.3607  0.0388  0.3440
10473TIP3   OH252833   3.619   2.264   5.066  0.1386  0.6891 -0.4249
10473TIP3    H152834   3.541   2.269   5.121  1.0947  1.1667  0.9306
10473TIP3    H252835   3.661   2.181   5.091 -0.4552 -0.1168 -1.9267
10474TIP3   OH252836   0.709   5.967   4.761  0.1994  0.2206  0.2742
10474TIP3    H152837   0.699   5.872   4.773 -2.8339  0.5597  1.1878
10474TIP3    H252838   0.683   5.982   4.670 -0.2129  0.2726  0.3999
10475TIP3   OH252839   1.213   1.283  15.741  0.2867 -0.4616 -0.1406
10475TIP3    H152840   1.241   1.369  15.708  1.5332 -0.4608  0.8583
10475TIP3    H252841   1.118   1.286  15.737  0.3331  0.5500 -1.1606
10476TIP3   OH252842   0.486   2.246  16.694  0.0655 -0.4458  0.0830
10476TIP3    H152843   0.542   2.317  16.727  0.2127 -0.6070  0.1796
10476TIP3    H252844   0.427   2.289  16.632  1.1762 -0.4982 -1.0561
10477TIP3   OH252845   0.650   2.771   3.815  0.2619 -0.2542  0.4488
10477TIP3    H152846   0.703   2.847   3.840  1.1526 -1.2477  1.7175
10477TIP3    H252847   0.588   2.760   3.887 -0.6565 -0.0474 -0.2871
10478TIP3   OH252848   0.048   4.005  16.198  0.0403  0.0879  0.0693
10478TIP3    H152849   0.025   4.097  16.191  0.4092  0.0767 -1.8069
10478TIP3    H252850   0.141   4.001  16.173 -0.0309 -0.8054 -0.1204
10479TIP3   OH252851   4.853   1.835   0.482  0.5654  0.2612  0.7172
10479TIP3    H152852   4.844   1.903   0.549  0.8802  0.6572  0.3660
10479TIP3    H252853   4.824   1.754   0.525 -1.5106  0.8881  0.6199
10480TIP3   OH252854   1.898   4.288   2.451  0.1799 -0.1041  0.0919
10480TIP3    H152855   1.987   4.284   2.485  0.4280  0.4037 -0.4849
10480TIP3    H252856   1.846   4.238   2.514  1.1027 -1.6584 -0.3353
10481TIP3   OH252857   5.416   0.432  16.942  0.1346 -0.2012  0.2734
10481TIP3    H152858   5.374   0.396  16.864 -2.9239 -1.1707  2.2024
10481TIP3    H252859   5.356   0.499  16.973  1.7834  0.8735  1.2872
10482TIP3   OH252860   1.461   2.181  16.348  0.4601 -0.2457 -0.0408
10482TIP3    H152861   1.456   2.120  16.421 -1.0433 -0.2428 -0.1065
10482TIP3    H252862   1.554   2.201  16.339  0.6607 -0.1614  1.9215
10483TIP3   OH252863   4.239   0.396  14.339  0.0192  0.2417  0.2279
10483TIP3    H152864   4.178   0.323  14.328 -0.8506  0.8555  0.8120
10483TIP3    H252865   4.301   0.367  14.406  0.8449 -0.6699 -0.8974
10484TIP3   OH252866   5.148   0.493   1.835 -0.1263 -0.5328  0.2115
10484TIP3    H152867   5.242   0.479   1.835  0.4952  2.5633  1.8759
10484TIP3    H252868   5.138   0.588   1.821 -3.0255 -0.8471 -0.5597
10485TIP3   OH252869   0.599   4.468  11.156  0.2831  0.2783 -0.4617
10485TIP3    H152870   0.648   4.477  11.075 -1.7687  0.9407 -1.6871
10485TIP3    H252871   0.598   4.374  11.174  2.3527  0.2813 -0.1172
10486TIP3   OH252872   2.670   5.627  16.240  0.1120 -0.1575 -0.5892
10486TIP3    H152873   2.621   5.544  16.243  1.7358 -1.2429 -2.2252
10486TIP3    H252874   2.602   5.695  16.239 -1.2646 -1.3637  1.7132
10487TIP3   OH252875   6.813   4.153  14.184  0.3130 -0.0027  0.2420
10487TIP3    H152876   6.856   4.201  14.113  1.1327  0.1225  0.8180
10487TIP3    H252877   6.872   4.162  14.259 -0.5656 -0.0923  0.9612
10488TIP3   OH252878   2.233   2.963   1.802  0.4584  0.3955 -0.2007
10488TIP3    H152879   2.247   3.036   1.862 -0.7313  0.1490  0.3965
10488TIP3    H252880   2.151   2.923   1.831  0.2032 -0.1293 -1.5837
10489TIP3   OH252881   2.870   5.314   3.925 -0.1425 -0.3401  0.1925
10489TIP3    H152882   2.925   5.383   3.889 -0.7942  0.4893  0.7336
10489TIP3    H252883   2.852   5.256   3.851  0.3347  0.1288 -0.2951
10490TIP3   OH252884   6.594   6.540   0.109  0.6192 -0.0155  0.4308
10490TIP3    H152885   6.608   6.503   0.196 -0.4284 -1.7475 -0.0917
10490TIP3    H252886   6.681   6.543   0.070  0.8050 -1.7220  0.6208
10491TIP3   OH252887   0.869   3.331   2.440  0.0076  0.2237  0.2035
10491TIP3    H152888   0.808   3.366   2.505  0.2573  1.4196 -0.1749
10491TIP3    H252889   0.956   3.356   2.473  0.0951  1.8398 -1.0897
10492TIP3   OH252890   5.121   6.413   5.685 -0.0205 -0.4894  0.4298
10492TIP3    H152891   5.209   6.429   5.650 -0.1322  0.2289  0.4775
10492TIP3    H252892   5.130   6.424   5.779 -0.4073  0.7763  0.3370
10493TIP3   OH252893   2.839   5.189   2.823 -0.3095  0.2436 -0.3116
10493TIP3    H152894   2.780   5.222   2.890 -0.7587 -1.7248  0.3061
10493TIP3    H252895   2.925   5.223   2.848 -0.6554  0.4832  0.5880
10494TIP3   OH252896   1.580   4.902   0.788 -0.6042 -0.6218  0.0930
10494TIP3    H152897   1.654   4.945   0.830  0.3707 -0.6687 -1.5101
10494TIP3    H252898   1.511   4.968   0.786 -0.4211 -0.3880  1.0535
10495TIP3   OH252899   4.247   0.159   5.472 -0.2013  0.0666  0.0829
10495TIP3    H152900   4.267   0.253   5.475  1.1439 -0.1372 -1.0642
10495TIP3    H252901   4.231   0.141   5.379 -0.4415 -0.8487  0.2877
10496TIP3   OH252902   4.153   0.172  17.070  0.6828  0.3801 -0.3251
10496TIP3    H152903   4.058   0.159  17.063  0.5661 -0.4214  1.9130
10496TIP3    H252904   4.173   0.240  17.005 -1.0577 -0.8702 -2.3052
10497TIP3   OH252905   5.794   3.255   1.127 -0.4318 -0.3519  0.4946
10497TIP3    H152906   5.887   3.272   1.144 -0.4785  0.8019 -0.2363
10497TIP3    H252907   5.792   3.171   1.081  0.3363 -0.0298 -0.1532
10498TIP3   OH252908   0.808   6.330   6.201  0.0434  0.3254  0.4302
10498TIP3    H152909   0.754   6.360   6.274 -1.2530 -1.8863  0.5001
10498TIP3    H252910   0.880   6.281   6.242 -0.3620 -0.4208  0.2782
10499TIP3   OH252911   1.218   4.524  14.539  0.5794 -0.6348  0.4506
10499TIP3    H152912   1.161   4.601  14.545 -1.2637 -1.9212  0.2230
10499TIP3    H252913   1.235   4.500  14.630  1.1213 -0.0023  0.5222
10500TIP3   OH252914   3.564   3.080  13.893 -0.2244  0.1586 -0.2046
10500TIP3    H152915   3.632   3.103  13.956 -1.7339 -0.0147  1.5740
10500TIP3    H252916   3.482   3.101  13.937 -1.4329 -2.0298 -1.2469
10501TIP3   OH252917   4.139   4.073   2.422  0.3765 -0.3726 -0.5936
10501TIP3    H152918   4.225   4.044   2.389  1.1349 -0.1585  1.0794
10501TIP3    H252919   4.151   4.165   2.443  0.1745 -0.6728  0.9510
10502TIP3   OH252920   2.652   1.087   2.011 -0.0490 -0.4755  0.1425
10502TIP3    H152921   2.606   1.156   1.962  0.0922 -0.4120  0.0979
10502TIP3    H252922   2.647   1.010   1.955  0.0210 -0.4310  0.0751
10503TIP3   OH252923   1.956   4.351   5.272 -0.2039 -0.1662  0.2027
10503TIP3    H152924   1.959   4.438   5.312  0.2939  0.4633 -1.1352
10503TIP3    H252925   1.916   4.295   5.339 -3.3056  1.6706  0.0364
10504TIP3   OH252926   2.677   6.751  15.092 -0.6211 -0.0916  0.1117
10504TIP3    H152927   2.754   6.797  15.060 -1.1575  0.5680 -0.2722
10504TIP3    H252928   2.646   6.700  15.017  0.0177 -1.1648  0.5593
10505TIP3   OH252929   0.681   4.275  15.919 -0.3471  0.5168 -0.2352
10505TIP3    H152930   0.675   4.369  15.938 -1.2652  0.1088  1.8139
10505TIP3    H252931   0.667   4.269  15.825 -0.0093  2.4500 -0.4582
10506TIP3   OH252932   3.818   0.498  16.742  0.4820 -0.0237 -0.4491
10506TIP3    H152933   3.743   0.538  16.786  2.5915  2.2673  1.3611
10506TIP3    H252934   3.864   0.571  16.701  3.6301 -0.6515  1.6033
10507TIP3   OH252935   1.726   2.121  12.961  0.2842 -0.0267 -0.1111
10507TIP3    H152936   1.752   2.172  12.884 -1.5837  2.3295  0.6927
10507TIP3    H252937   1.720   2.031  12.929  1.7121  0.5162 -2.1360
10508TIP3   OH252938   2.741   6.386   5.795 -0.7699 -0.4010 -0.0357
10508TIP3    H152939   2.674   6.428   5.742  0.1884 -0.6628 -1.5250
10508TIP3    H252940   2.773   6.455   5.852  1.3308  1.2902 -2.9590
10509TIP3   OH252941   0.270   0.715  17.018 -0.1261 -0.1419 -0.4576
10509TIP3    H152942   0.217   0.794  17.030 -0.5973 -0.2913 -1.4184
10509TIP3    H252943   0.205   0.646  17.004  0.2769 -0.7543  0.5890
10510TIP3   OH252944   3.291   4.052  14.541  0.4741  0.7529 -0.2346
10510TIP3    H152945   3.199   4.042  14.515  0.4927  0.6585 -0.2639
10510TIP3    H252946   3.286   4.095  14.627  0.4050  0.8069 -0.2650
10511TIP3   OH252947   2.094   3.212   0.746 -0.6425  0.0303 -0.2346
10511TIP3    H152948   2.176   3.244   0.784 -0.5255 -0.3245 -0.1801
10511TIP3    H252949   2.117   3.188   0.657 -0.5892 -0.4436 -0.0983
10512TIP3   OH252950   3.233   2.926  11.192 -0.2270 -0.4987 -0.2326
10512TIP3    H152951   3.273   2.989  11.251 -0.4698 -0.1828 -0.3997
10512TIP3    H252952   3.236   2.968  11.106  1.5398 -1.5904 -0.7536
10513TIP3   OH252953   2.993   6.560   3.625 -0.8045 -0.1930  0.1323
10513TIP3    H152954   3.027   6.530   3.540 -0.5651  0.7638 -0.1294
10513TIP3    H252955   3.062   6.538   3.687 -1.2171 -1.3955  0.1760
10514TIP3   OH252956   2.535   2.519  14.921  0.1500  0.0163 -0.5391
10514TIP3    H152957   2.454   2.479  14.954  0.6520 -0.2506  0.4213
10514TIP3    H252958   2.587   2.445  14.888  0.1094  0.1562 -0.9202
10515TIP3   OH252959   0.105   4.666  10.901  0.3739  0.6074 -0.2432
10515TIP3    H152960   0.083   4.759  10.898  0.6387  0.6946  0.2730
10515TIP3    H252961   0.091   4.634  10.812 -1.4855  0.7243 -0.0366
10516TIP3   OH252962   6.784   2.873  15.726 -0.3659  0.1290 -0.0694
10516TIP3    H152963   6.764   2.914  15.642  0.3275 -0.4006 -0.5101
10516TIP3    H252964   6.874   2.900  15.745 -0.4334  0.0453  0.3874
10517TIP3   OH252965   5.411   6.068   3.493  0.4431  0.2779  0.5177
10517TIP3    H152966   5.490   6.071   3.546  1.5900  2.4196 -1.1239
10517TIP3    H252967   5.438   6.030   3.410  0.4671  3.1079 -0.9184
10518TIP3   OH252968   1.702   2.572   1.975  0.2862  0.5451 -0.0740
10518TIP3    H152969   1.778   2.523   2.009 -0.9503 -0.5916  1.1700
10518TIP3    H252970   1.626   2.520   2.001 -0.9595  1.8558 -0.9486
10519TIP3   OH252971   0.602   3.562  14.367 -0.3311 -0.4936 -0.1246
10519TIP3    H152972   0.638   3.543  14.454 -0.4456 -0.3949 -0.0543
10519TIP3    H252973   0.561   3.481  14.340 -1.0523 -0.2789  0.2883
10520TIP3   OH252974   1.383   2.639  12.590  0.4837  0.1745 -0.0205
10520TIP3    H152975   1.410   2.729  12.609  0.0324  0.2382  0.3348
10520TIP3    H252976   1.360   2.639  12.498 -3.4714  1.4818  0.7569
10521TIP3   OH252977   2.190   5.011  11.308 -0.4077 -0.3850 -0.0226
10521TIP3    H152978   2.192   5.061  11.226 -0.2864  0.0217  0.2250
10521TIP3    H252979   2.258   4.945  11.298  0.7239  0.6744  0.3758
10522TIP3   OH252980   1.907   2.700  16.191 -0.0890  0.0825  0.2493
10522TIP3    H152981   1.862   2.688  16.107 -1.9265  0.9023  1.0540
10522TIP3    H252982   1.898   2.615  16.235 -0.0674 -0.0323  0.0329
10523TIP3   OH252983   0.225   4.292   2.854  0.3188  0.3922 -0.2693
10523TIP3    H152984   0.250   4.349   2.781 -0.2391  1.4768  0.3707
10523TIP3    H252985   0.131   4.277   2.842  0.8000 -2.1896 -1.6385
10524TIP3   OH252986   2.948   6.592  10.810  0.6045  0.3355 -0.8349
10524TIP3    H152987   3.010   6.603  10.738  1.4395  1.3249  0.0143
10524TIP3    H252988   2.999   6.610  10.889 -0.2037 -1.0817  0.0611
10525TIP3   OH252989   0.005   0.378   5.230 -0.7240  0.1058 -0.0275
10525TIP3    H152990  -0.028   0.289   5.221  0.7736 -0.7837  2.4351
10525TIP3    H252991  -0.042   0.414   5.305  0.6117  0.3788  0.7047
10526TIP3   OH252992   6.766   1.826  14.136  0.4206  0.2609 -0.0194
10526TIP3    H152993   6.706   1.897  14.159  1.1488  1.6271 -2.0401
10526TIP3    H252994   6.753   1.814  14.042  0.5017 -2.1787  0.1994
10527TIP3   OH252995   1.469   3.880  11.153  0.5851 -0.2889 -0.3098
10527TIP3    H152996   1.504   3.942  11.216  0.8974  0.0623 -0.8212
10527TIP3    H252997   1.454   3.800  11.203 -1.7148  0.7596  0.8290
10528TIP3   OH252998   0.990   4.975   2.118  0.2134 -0.0498 -0.2253
10528TIP3    H152999   0.972   4.881   2.118 -0.9834  0.1691  0.3708
10528TIP3    H253000   0.948   5.008   2.197 -1.3480  1.3389 -1.5759
10529TIP3   OH253001   5.897   0.037  11.916 -0.0068 -0.3263 -0.2491
10529TIP3    H153002   5.852   0.043  11.832  0.6558  0.6385 -0.5594
10529TIP3    H253003   5.827   0.037  11.981 -0.4882  1.7738 -0.6855
10530TIP3   OH253004   4.094   5.462  13.147 -0.1079 -0.1867  0.3404
10530TIP3    H153005   4.031   5.428  13.084 -0.5708 -0.0433  0.7203
10530TIP3    H253006   4.042   5.512  13.209  0.4187  0.1850  0.4924
10531TIP3   OH253007   4.022   1.312  15.924  0.0263 -0.0438 -0.4609
10531TIP3    H153008   4.039   1.402  15.896  0.5509 -0.3760 -1.2399
10531TIP3    H253009   4.053   1.309  16.015  1.1321  0.2549 -0.8149
10532TIP3   OH253010   3.619   0.986   5.096  0.2512 -0.8696 -0.7094
10532TIP3    H153011   3.549   0.954   5.153  0.6645  0.9032  0.9184
10532TIP3    H253012   3.678   0.912   5.086 -0.3328 -1.5157  0.3838
10533TIP3   OH253013   4.753   2.810   1.093  0.5798 -0.5526  0.2516
10533TIP3    H153014   4.845   2.787   1.106  0.1897 -1.2269  2.1483
10533TIP3    H253015   4.739   2.886   1.149  0.3776  0.6500 -1.3813
10534TIP3   OH253016   4.295   5.519  14.729 -0.2874 -0.9185  0.5506
10534TIP3    H153017   4.236   5.508  14.654  0.8422 -0.4124 -0.4458
10534TIP3    H253018   4.377   5.478  14.701  0.2670 -0.4114  1.3765
10535TIP3   OH253019   4.513   1.904  11.092 -0.2322  0.5345  0.4100
10535TIP3    H153020   4.534   1.866  11.178 -0.1913 -2.1737 -0.7011
10535TIP3    H253021   4.599   1.917  11.051 -0.2572 -2.7796 -0.9805
10536TIP3   OH253022   6.484   2.321   2.815  0.2168 -0.4623 -0.4717
10536TIP3    H153023   6.404   2.367   2.791 -0.3914 -0.6287  1.0904
10536TIP3    H253024   6.460   2.229   2.816  0.6184 -0.5737 -0.6432
10537TIP3   OH253025   4.486   3.427  15.840 -0.8632 -0.6159  0.0843
10537TIP3    H153026   4.565   3.465  15.879 -0.0703  0.6243 -2.4610
10537TIP3    H253027   4.443   3.382  15.912  0.7157  1.0191  2.2061
10538TIP3   OH253028   4.527   5.760   3.928  0.0203  0.1695 -0.2553
10538TIP3    H153029   4.550   5.803   3.846  1.9857 -0.1920  0.0505
10538TIP3    H253030   4.456   5.813   3.964 -0.8758  0.3402 -2.1561
10539TIP3   OH253031   1.440   1.090   3.003 -0.0683  0.4218 -0.0960
10539TIP3    H153032   1.400   1.060   3.085  0.7592  0.8390  0.4706
10539TIP3    H253033   1.514   1.031   2.989  1.8937  2.3806  1.2998
10540TIP3   OH253034   2.789   6.800  11.937  0.1835 -0.3321  0.4307
10540TIP3    H153035   2.864   6.846  11.901 -0.8784  1.4521  0.3530
10540TIP3    H253036   2.764   6.738  11.869  0.8838 -0.1104 -0.0400
10541TIP3   OH253037   1.382   0.089   3.583  0.1436  0.2524  0.5399
10541TIP3    H153038   1.447   0.128   3.641  0.3433  1.1856 -0.2782
10541TIP3    H253039   1.332   0.164   3.551 -0.4523 -0.3255  0.0989
10542TIP3   OH253040   5.159   1.079   4.750  0.2188  0.3147  0.2015
10542TIP3    H153041   5.157   1.063   4.656 -1.5506 -1.3770  0.4518
10542TIP3    H253042   5.088   1.142   4.765 -0.7677 -0.8485  0.5756
10543TIP3   OH253043   2.238   5.710  12.659 -0.4498 -0.1674  0.0001
10543TIP3    H153044   2.303   5.778  12.640 -0.1770 -0.3464  0.2815
10543TIP3    H253045   2.270   5.668  12.739  0.1991 -1.5975 -0.9650
10544TIP3   OH253046   5.254   0.387   1.304 -0.3277 -0.5087 -0.0335
10544TIP3    H153047   5.322   0.321   1.293 -0.0354  0.0572 -1.9984
10544TIP3    H253048   5.294   0.454   1.359 -0.2181 -1.3737  0.9704
10545TIP3   OH253049   3.737   0.493  15.252  0.1939 -0.2011 -0.3709
10545TIP3    H153050   3.798   0.426  15.283 -0.4845 -1.5949 -1.9051
10545TIP3    H253051   3.689   0.520  15.331  0.7071 -1.2771  0.3403
10546TIP3   OH253052   2.711   1.444   1.448  0.2987 -0.0121 -0.7026
10546TIP3    H153053   2.653   1.438   1.372  0.9655  1.1216 -1.3339
10546TIP3    H253054   2.782   1.384   1.430  0.3723  0.1343 -0.9004
10547TIP3   OH253055   3.970   4.704   0.485  0.1591 -0.3211 -0.4697
10547TIP3    H153056   4.008   4.790   0.500  0.2597 -0.3630 -0.4829
10547TIP3    H253057   3.905   4.718   0.417 -0.6536 -0.0341  0.3432
10548TIP3   OH253058   5.250   0.839   3.432 -0.2298 -0.8194 -0.0933
10548TIP3    H153059   5.179   0.822   3.494 -1.9485  0.6665 -1.5194
10548TIP3    H253060   5.233   0.928   3.401  1.7210 -0.7889 -1.2507
10549TIP3   OH253061   0.821   6.767   4.999 -1.1418  0.7842  0.3979
10549TIP3    H153062   0.913   6.783   4.978 -0.0843 -2.9893  1.3106
10549TIP3    H253063   0.802   6.826   5.072  0.5612  1.5658  0.2603
10550TIP3   OH253064   5.830   2.515   2.952 -0.3392  0.3824 -0.4779
10550TIP3    H153065   5.791   2.541   3.036  1.1923 -0.3623  0.5115
10550TIP3    H253066   5.770   2.448   2.918 -3.4848  3.7581 -2.3073
10551TIP3   OH253067   5.318   0.046   0.417 -0.1718 -0.0386 -0.4677
10551TIP3    H153068   5.319   0.099   0.337 -0.5271 -1.9190 -1.7819
10551TIP3    H253069   5.394   0.076   0.466 -0.5229  1.8776 -0.9996
10552TIP3   OH253070   4.551   5.026   0.099 -0.2887  0.4778  0.3436
10552TIP3    H153071   4.644   5.047   0.085 -0.0636 -0.0908  0.9108
10552TIP3    H253072   4.552   4.958   0.166 -1.2657  3.1825  3.3534
10553TIP3   OH253073   2.197   1.669  12.431  0.5625 -0.0828  0.0058
10553TIP3    H153074   2.204   1.586  12.383  1.4494 -0.8355  1.3686
10553TIP3    H253075   2.262   1.662  12.501 -1.8297  0.1783  2.4492
10554TIP3   OH253076   5.502   0.971   4.449  0.6389 -0.1331 -0.3075
10554TIP3    H153077   5.418   1.003   4.482 -0.1481 -0.4436 -1.9211
10554TIP3    H253078   5.567   1.029   4.490 -0.4903  1.2649 -0.4021
10555TIP3   OH253079   1.416   6.744  13.626 -0.1375 -0.3709  0.3514
10555TIP3    H153080   1.327   6.722  13.652 -0.3798  1.0685  0.8478
10555TIP3    H253081   1.470   6.674  13.663 -0.8447 -0.1140  1.9530
10556TIP3   OH253082   5.763   4.309   1.641 -0.4205 -0.2999 -0.4409
10556TIP3    H153083   5.828   4.242   1.624 -1.1104 -1.4953  1.2634
10556TIP3    H253084   5.687   4.260   1.673 -0.9569  1.2799  0.8248
10557TIP3   OH253085   2.357   5.684  11.398  0.4678  0.2191 -0.4123
10557TIP3    H153086   2.317   5.598  11.400 -0.3192  0.5613 -0.9432
10557TIP3    H253087   2.392   5.696  11.486 -1.1331  0.1479  0.2727
10558TIP3   OH253088   6.597   1.087   2.184 -1.0770 -0.5110  0.0884
10558TIP3    H153089   6.602   1.090   2.089  1.1210 -0.8768  0.1332
10558TIP3    H253090   6.647   1.163   2.213 -1.9368 -0.2589  0.9714
10559TIP3   OH253091   5.700   1.045   6.260 -0.0316 -0.2359 -0.4744
10559TIP3    H153092   5.680   1.023   6.351  0.6190 -1.7751 -0.6780
10559TIP3    H253093   5.774   1.105   6.266  0.1763 -0.5304  0.0071
10560TIP3   OH253094   0.173   5.329  16.337 -0.6774 -1.1393  0.0739
10560TIP3    H153095   0.103   5.286  16.288 -1.5035 -0.7587  0.8792
10560TIP3    H253096   0.253   5.284  16.310 -1.2211 -1.5521 -0.9015
10561TIP3   OH253097   1.424   3.418  17.033 -0.0136  0.0628 -0.5413
10561TIP3    H153098   1.518   3.426  17.013 -0.0697  2.0314 -0.2582
10561TIP3    H253099   1.418   3.343  17.092  1.3898 -0.0818 -0.5509
10562TIP3   OH253100   0.248   5.594   5.114  0.0403 -0.4045  0.8985
10562TIP3    H153101   0.197   5.665   5.152 -0.9918 -0.3826 -0.4850
10562TIP3    H253102   0.338   5.627   5.115 -0.3337  0.6729  0.8550
10563TIP3   OH253103   5.437   5.421   3.736 -0.2864 -0.3263  0.1704
10563TIP3    H153104   5.345   5.412   3.761  0.0499  0.0943  1.6208
10563TIP3    H253105   5.446   5.513   3.710 -0.1643 -0.2486  0.4903
10564TIP3   OH253106   1.419   4.094   4.944  0.0496  0.4293  0.4888
10564TIP3    H153107   1.447   4.119   4.856  2.6592 -0.4070  0.9653
10564TIP3    H253108   1.439   4.170   4.998 -1.4903  0.9182  0.4105
10565TIP3   OH253109   3.546   1.612   2.865  0.1168  0.1051 -0.1163
10565TIP3    H153110   3.582   1.681   2.921  1.1772  0.5263 -1.2772
10565TIP3    H253111   3.536   1.537   2.924  0.2249  0.8325  0.8635
10566TIP3   OH253112   4.367   2.304   4.863  0.1091 -0.6828 -0.0148
10566TIP3    H153113   4.421   2.382   4.852  1.7691 -1.6840  0.7261
10566TIP3    H253114   4.360   2.266   4.776  0.2706 -0.3398 -0.1764
10567TIP3   OH253115   3.366   4.807   2.747 -0.2019 -0.0557 -1.0643
10567TIP3    H153116   3.302   4.807   2.676  0.8007 -0.8891 -2.0136
10567TIP3    H253117   3.450   4.826   2.704  0.3900 -0.3291 -0.0685
10568TIP3   OH253118   1.828   2.670   2.961  0.0672 -0.0856 -0.2689
10568TIP3    H153119   1.847   2.751   2.913 -2.1582  0.5586 -0.2093
10568TIP3    H253120   1.820   2.603   2.894  1.4421 -0.1682 -0.3635
10569TIP3   OH253121   2.514   5.662  13.720  0.2850 -0.4001 -0.2167
10569TIP3    H153122   2.457   5.736  13.742  0.3246 -0.5933  0.5592
10569TIP3    H253123   2.584   5.666  13.785  0.1094 -1.3193  0.0365
10570TIP3   OH253124   0.633   5.886   4.500  0.8725  0.2374 -0.0889
10570TIP3    H153125   0.583   5.902   4.421 -0.9049 -1.7590  0.5293
10570TIP3    H253126   0.605   5.799   4.529  1.1976  1.0048  2.8948
10571TIP3   OH253127   4.942   4.598   4.127  0.6182  0.0193 -0.1467
10571TIP3    H153128   4.853   4.576   4.154  0.4814  1.7863  0.9501
10571TIP3    H253129   4.931   4.667   4.061  1.1684  0.4408  0.1904
10572TIP3   OH253130   2.483   1.851  11.615 -0.1521  0.3480  0.2309
10572TIP3    H153131   2.536   1.772  11.621 -0.9278 -0.2537 -0.5728
10572TIP3    H253132   2.487   1.875  11.522  0.3822  1.4773  0.5274
10573TIP3   OH253133   2.399   4.781  13.836  0.4683 -0.1284 -0.8906
10573TIP3    H153134   2.385   4.791  13.742  1.4656  0.4252 -0.9898
10573TIP3    H253135   2.391   4.686  13.851  0.1623 -0.2073 -1.5025
10574TIP3   OH253136   5.616   4.718  16.292 -0.3562  0.4109 -0.0389
10574TIP3    H153137   5.540   4.663  16.277 -1.1551  1.5486 -0.2873
10574TIP3    H253138   5.685   4.658  16.320 -1.0179 -0.7759 -0.9173
10575TIP3   OH253139   4.046   6.551   0.636 -0.3030 -0.0665  0.1965
10575TIP3    H153140   3.987   6.625   0.623  1.3988  1.1010 -1.5202
10575TIP3    H253141   3.989   6.475   0.649 -2.1192  1.2237  0.0565
10576TIP3   OH253142   6.165   5.165   1.837 -0.4731 -0.2254 -0.1319
10576TIP3    H153143   6.242   5.163   1.781  0.8865  0.7727  1.5875
10576TIP3    H253144   6.093   5.193   1.780  0.6470 -0.1599 -1.5415
10577TIP3   OH253145   4.577   6.162   3.915 -0.4139  0.4607 -0.1511
10577TIP3    H153146   4.652   6.102   3.917  0.8063  1.9536  1.2366
10577TIP3    H253147   4.612   6.245   3.947 -2.0696  1.9174 -1.8824
10578TIP3   OH253148   3.537   2.254  11.471 -0.2439  0.0605  0.1536
10578TIP3    H153149   3.577   2.328  11.517  1.7637  0.2111 -1.6821
10578TIP3    H253150   3.587   2.246  11.390 -2.1690 -1.6194 -0.9687
10579TIP3   OH253151   1.088   1.825  15.133 -0.2045  0.9390  0.2697
10579TIP3    H153152   1.162   1.885  15.142 -0.8132  1.7175  0.0658
10579TIP3    H253153   1.014   1.871  15.172 -1.1279  1.1340 -1.6147
10580TIP3   OH253154   0.266   0.724   2.666 -0.0605  0.0435 -0.4579
10580TIP3    H153155   0.351   0.715   2.623  0.7506  1.9891  0.5996
10580TIP3    H253156   0.205   0.742   2.594  0.6123 -0.3353 -1.1345
10581TIP3   OH253157   1.998   0.264  11.172  0.1010  0.3417  0.0190
10581TIP3    H153158   1.913   0.222  11.160  0.0190  0.7751 -1.0963
10581TIP3    H253159   1.998   0.336  11.108  0.6894  1.3218  1.0985
10582TIP3   OH253160   1.362   4.713   4.308  0.0666  0.2908 -0.4159
10582TIP3    H153161   1.312   4.640   4.344  0.0188  0.1282 -0.8190
10582TIP3    H253162   1.331   4.723   4.218  2.0792 -1.0264 -1.3267
10583TIP3   OH253163   4.369   6.633   5.805 -0.0830 -0.2879  0.4055
10583TIP3    H153164   4.433   6.563   5.809 -0.8835 -1.0205  0.9539
10583TIP3    H253165   4.285   6.588   5.794 -0.6572  0.5488  1.1936
10584TIP3   OH253166   6.159   0.796  15.398 -0.4596 -0.3787  0.1819
10584TIP3    H153167   6.237   0.741  15.389 -1.1686 -1.2883 -0.6405
10584TIP3    H253168   6.108   0.778  15.319 -1.8352 -0.3298  1.0265
10585TIP3   OH253169   6.348   4.798  11.974 -0.0820  0.3159 -0.1757
10585TIP3    H153170   6.400   4.726  12.009  1.2603  2.1182  1.7865
10585TIP3    H253171   6.403   4.836  11.906  0.1891  0.8461  0.3378
10586TIP3   OH253172   0.803   1.470  14.526  0.1957  0.2404 -0.4713
10586TIP3    H153173   0.805   1.435  14.437 -0.9544  1.3111 -0.9338
10586TIP3    H253174   0.737   1.539  14.524  0.9621  1.0613  0.9318
10587TIP3   OH253175   4.598   0.085   4.421 -0.5336  0.1279  0.5809
10587TIP3    H153176   4.512   0.086   4.464 -0.8785  2.2174 -0.0368
10587TIP3    H253177   4.584   0.133   4.340  1.3640  1.0310  0.7488
10588TIP3   OH253178   2.593   6.758  11.467 -0.3025  0.3932 -0.1008
10588TIP3    H153179   2.523   6.800  11.417  0.6510  0.2774 -1.5987
10588TIP3    H253180   2.664   6.747  11.404  0.9011  0.0893  1.2623
10589TIP3   OH253181   0.079   0.506  16.629 -1.0518  0.0373  0.0794
10589TIP3    H153182   0.078   0.494  16.724 -1.5398  0.4000  0.1271
10589TIP3    H253183   0.037   0.427  16.595 -0.7424 -0.1604  0.1603
10590TIP3   OH253184   5.759   5.099   0.592  0.2616 -0.3132 -0.1220
10590TIP3    H153185   5.668   5.072   0.583  0.1513  0.4119 -1.5019
10590TIP3    H253186   5.791   5.052   0.669 -1.1543 -0.8888  0.1412
10591TIP3   OH253187   1.332   1.068  12.767 -0.2219 -0.2552 -0.0736
10591TIP3    H153188   1.355   1.155  12.734  0.6285 -0.8083 -0.9949
10591TIP3    H253189   1.290   1.025  12.692 -1.9647 -0.1579  0.8040
10592TIP3   OH253190   5.388   4.136   5.117  0.0994 -0.2725  0.1651
10592TIP3    H153191   5.424   4.223   5.134 -1.5702  0.1659  1.7305
10592TIP3    H253192   5.390   4.092   5.201 -2.2183 -0.4708  0.1957
10593TIP3   OH253193   2.673   6.735   3.811  0.9290 -0.2999 -0.4963
10593TIP3    H153194   2.693   6.688   3.730  1.1922 -1.5666  0.2711
10593TIP3    H253195   2.752   6.785   3.830  1.1604 -0.6243 -0.6031
10594TIP3   OH253196   2.709   5.363  12.632  0.6559  0.4978  0.1866
10594TIP3    H153197   2.669   5.283  12.667  0.4214  0.5737  0.0945
10594TIP3    H253198   2.692   5.359  12.538  1.3575  0.2545  0.0620
10595TIP3   OH253199   3.913   0.378   3.478 -0.2254  0.2052  0.4196
10595TIP3    H153200   3.986   0.360   3.418  0.5705  0.5421  1.2636
10595TIP3    H253201   3.873   0.458   3.444  0.7554  0.8767  0.8008
10596TIP3   OH253202   3.135   6.279  14.934  0.7178 -0.0576 -0.2665
10596TIP3    H153203   3.056   6.299  14.884  0.5599  0.3743  0.1546
10596TIP3    H253204   3.160   6.362  14.974  1.9647  0.0528 -1.2156
10597TIP3   OH253205   0.793   2.175  15.078 -0.4441  0.5694  0.0784
10597TIP3    H153206   0.861   2.237  15.106  1.3588 -0.6732 -1.3369
10597TIP3    H253207   0.820   2.092  15.116 -1.4841  0.1504 -0.0837
10598TIP3   OH253208   4.189   2.214  11.564 -0.7281  0.0052 -0.1800
10598TIP3    H153209   4.243   2.256  11.631 -0.0461  1.5883 -1.6414
10598TIP3    H253210   4.105   2.259  11.570 -0.8706 -0.2866  0.0217
10599TIP3   OH253211   5.300   5.538   3.405 -0.4988 -0.1562 -0.0369
10599TIP3    H153212   5.288   5.507   3.315  1.1384  0.1385 -0.3798
10599TIP3    H253213   5.391   5.568   3.409 -0.7147  0.4040  1.5533
10600TIP3   OH253214   0.353   2.934   0.320  0.1217  0.3115  0.1884
10600TIP3    H153215   0.434   2.962   0.276 -0.0207 -0.5408 -0.6549
10600TIP3    H253216   0.296   2.906   0.248  0.0513 -1.5763  0.9286
10601TIP3   OH253217   0.972   3.255  11.234  0.8126 -0.5145 -0.1240
10601TIP3    H153218   1.021   3.305  11.299  0.4732  0.7556 -0.8289
10601TIP3    H253219   1.034   3.241  11.163  1.2120 -1.9828  0.4726
10602TIP3   OH253220   2.670   0.778  14.920  0.1723  0.4578  0.4430
10602TIP3    H153221   2.753   0.755  14.960  1.1691  2.8290 -0.0380
10602TIP3    H253222   2.604   0.757  14.986  1.4891  1.5784  2.2277
10603TIP3   OH253223   2.699   3.224  15.085  0.1185 -0.1769 -0.0848
10603TIP3    H153224   2.776   3.172  15.112 -0.0830 -0.2093  0.4510
10603TIP3    H253225   2.629   3.194  15.143  0.4011  1.8769  1.4646
10604TIP3   OH253226   4.924   4.990  14.679 -0.1538  0.1640 -0.1073
10604TIP3    H153227   4.846   5.013  14.628  1.3201  3.9921 -0.9626
10604TIP3    H253228   4.891   4.983  14.769 -1.6998  0.2677 -0.6254
10605TIP3   OH253229   1.946   6.409  15.106  0.6644 -0.7186  0.0117
10605TIP3    H153230   1.971   6.456  15.026 -0.7185 -1.4748 -0.9009
10605TIP3    H253231   1.946   6.317  15.082 -0.2213 -0.9324  0.7450
10606TIP3   OH253232   5.388   1.965   4.600 -0.4824 -0.0524 -0.3367
10606TIP3    H153233   5.434   1.949   4.518  0.1134  0.0633 -0.0305
10606TIP3    H253234   5.445   1.928   4.667  0.9846  3.1976  0.4158
10607TIP3   OH253235   0.558   6.215  12.359 -0.0120  0.3643  0.2262
10607TIP3    H153236   0.587   6.225  12.268 -1.1232  0.2157 -0.1608
10607TIP3    H253237   0.501   6.138  12.357  1.8980 -1.1681  1.5505
10608TIP3   OH253238   5.957   1.802  11.672 -0.0903 -0.2949  0.3026
10608TIP3    H153239   5.870   1.840  11.656  1.0263  1.6637 -1.7927
10608TIP3    H253240   5.972   1.745  11.597 -0.8335 -3.4198  2.3417
10609TIP3   OH253241   5.359   6.174   1.267  0.1891  0.0398  0.3820
10609TIP3    H153242   5.404   6.091   1.253 -1.7817 -0.9876 -0.1748
10609TIP3    H253243   5.272   6.150   1.298 -0.8846  1.8426 -1.0036
10610TIP3   OH253244   1.356   4.924  15.945  0.0649 -0.3590 -0.1290
10610TIP3    H153245   1.264   4.901  15.933  0.2081 -0.5100 -0.9853
10610TIP3    H253246   1.365   5.010  15.905  0.0649  0.1560  0.9376
10611TIP3   OH253247   3.744   1.207   6.467 -0.1370 -0.2229  0.2274
10611TIP3    H153248   3.760   1.222   6.560 -2.2859  0.3217  0.5710
10611TIP3    H253249   3.787   1.280   6.423 -0.6504  0.5536  0.9730
10612TIP3   OH253250   2.461   0.527  11.203  0.0377 -0.6667 -0.1081
10612TIP3    H153251   2.443   0.449  11.151 -0.5821 -0.6399  0.0541
10612TIP3    H253252   2.406   0.595  11.163  0.0519 -0.4876  0.1760
10613TIP3   OH253253   3.224   4.930  13.106 -0.1472  0.4149 -0.2550
10613TIP3    H153254   3.295   4.907  13.167 -0.5373  1.2973  0.5745
10613TIP3    H253255   3.147   4.938  13.162 -0.5870  0.9122 -0.9230
10614TIP3   OH253256   6.512   6.155  13.685  0.5062  0.6889 -0.4306
10614TIP3    H153257   6.556   6.224  13.736  0.6695 -1.0858  2.0401
10614TIP3    H253258   6.461   6.107  13.751  0.2797 -1.4536 -2.0855
10615TIP3   OH253259   0.923   0.304  10.699 -0.7534  0.5009  0.2273
10615TIP3    H153260   0.828   0.307  10.705 -1.0209 -1.0477 -2.2632
10615TIP3    H253261   0.943   0.219  10.661  1.7630  0.2057  1.9222
10616TIP3   OH253262   6.203   5.825  10.728 -0.1114 -0.1272 -0.0592
10616TIP3    H153263   6.264   5.847  10.799 -1.1890  0.5278  0.6865
10616TIP3    H253264   6.257   5.826  10.649  0.9430 -0.0377  0.6453
10617TIP3   OH253265   0.460   4.359   2.612 -0.1821  0.1225 -0.2818
10617TIP3    H153266   0.378   4.409   2.612  0.3282  0.9749  0.3768
10617TIP3    H253267   0.467   4.325   2.523 -1.5906 -0.5397 -0.1762
10618TIP3   OH253268   2.677   3.800  12.827  0.1003 -0.4219 -0.3033
10618TIP3    H153269   2.593   3.796  12.873 -0.2576  0.9565 -0.7917
10618TIP3    H253270   2.716   3.883  12.857  0.5950 -0.3138 -1.2333
10619TIP3   OH253271   5.778   1.507  12.576 -0.2785  0.5519  0.4206
10619TIP3    H153272   5.752   1.579  12.633 -0.0507  1.0171 -0.0518
10619TIP3    H253273   5.697   1.461  12.557 -0.8839  2.2528 -1.4088
10620TIP3   OH253274   4.616   1.108  15.899 -0.2654 -0.3179  0.2543
10620TIP3    H153275   4.626   1.130  15.806 -0.3358  3.1902  0.9190
10620TIP3    H253276   4.522   1.096  15.910 -0.3724  0.2477  0.0241
10621TIP3   OH253277   0.606   0.418   0.765 -0.1052  0.2447  0.0697
10621TIP3    H153278   0.689   0.380   0.794  0.1359  0.9903  0.3621
10621TIP3    H253279   0.569   0.351   0.707  1.0445  0.2026 -0.6624
10622TIP3   OH253280   4.300   0.884   0.148 -0.0337  0.2393 -0.3929
10622TIP3    H153281   4.279   0.957   0.206 -1.2103 -0.5145  0.1643
10622TIP3    H253282   4.216   0.843   0.129  0.6571 -1.4069 -0.1186
10623TIP3   OH253283   1.901   1.105   5.690 -0.4470  0.2763  0.7282
10623TIP3    H153284   1.829   1.137   5.744  1.6984  1.0157  3.3773
10623TIP3    H253285   1.952   1.183   5.668 -2.3363  0.3963 -4.5022
10624TIP3   OH253286   0.024   0.987   3.366 -0.5458  0.6744  0.4633
10624TIP3    H153287   0.013   0.910   3.309 -2.2412  0.0470  1.5489
10624TIP3    H253288   0.118   1.000   3.370 -0.3444  1.2324 -3.0565
10625TIP3   OH253289   2.486   1.549   2.111  0.3350  0.2193 -0.3269
10625TIP3    H153290   2.451   1.476   2.059  0.6030 -1.6495  1.9393
10625TIP3    H253291   2.446   1.627   2.072 -1.1450 -1.2392 -1.9482
10626TIP3   OH253292   5.028   0.938  12.150 -0.3966  0.3400 -0.3945
10626TIP3    H153293   5.075   0.949  12.067  0.8941  2.1106  0.5233
10626TIP3    H253294   5.047   0.848  12.175 -0.4206 -0.0834 -1.7689
10627TIP3   OH253295   5.312   3.323   0.091  0.4495 -0.2283  0.2593
10627TIP3    H153296   5.337   3.370   0.171 -0.0131 -1.4947  1.1687
10627TIP3    H253297   5.353   3.237   0.099 -1.4699 -1.2086  0.2632
10628TIP3   OH253298   1.635   5.580   5.715 -0.1042 -0.2154  0.2555
10628TIP3    H153299   1.630   5.631   5.796  0.5219  1.2017 -0.5596
10628TIP3    H253300   1.714   5.527   5.724 -1.6550 -2.4177  1.8319
10629TIP3   OH253301   3.549   2.705   2.654  0.0017 -0.2254  0.1861
10629TIP3    H153302   3.618   2.673   2.596  0.9918  0.4815  0.9302
10629TIP3    H253303   3.473   2.718   2.597  0.9350  0.4190 -0.9579
10630TIP3   OH253304   1.598   4.010   6.008 -0.3841  0.7293  0.6541
10630TIP3    H153305   1.645   3.957   6.073 -2.2987  0.6264  2.0250
10630TIP3    H253306   1.583   4.093   6.053 -3.5475 -0.0376  1.2421
10631TIP3   OH253307   1.769   0.938   5.517 -0.1689  0.0361 -0.1973
10631TIP3    H153308   1.826   0.867   5.486 -0.3652 -0.3068  0.2316
10631TIP3    H253309   1.824   0.986   5.579 -0.1750  0.0106 -0.1720
10632TIP3   OH253310   6.552   2.053   4.409 -0.5956  0.2240  0.3627
10632TIP3    H153311   6.593   2.116   4.350  0.0895 -2.1270 -1.8819
10632TIP3    H253312   6.589   1.968   4.382 -2.4542 -1.3095  2.3073
10633TIP3   OH253313   2.458   6.515   6.084  0.2569 -0.4425  0.5543
10633TIP3    H153314   2.368   6.503   6.114 -0.0445 -0.8759 -0.4674
10633TIP3    H253315   2.511   6.502   6.162 -0.5336 -0.6815  1.0708
10634TIP3   OH253316   3.499   1.377  13.971 -0.3460  0.0197  0.1286
10634TIP3    H153317   3.543   1.338  13.895  0.1967  1.4594 -0.3197
10634TIP3    H253318   3.547   1.342  14.047 -0.4619 -0.8938 -0.2036
10635TIP3   OH253319   0.359   2.884  15.428 -0.4384 -0.5335 -0.6947
10635TIP3    H153320   0.323   2.863  15.514 -0.2428 -0.1945 -0.5263
10635TIP3    H253321   0.312   2.963  15.400  1.7312  1.3290  0.5628
10636TIP3   OH253322   5.219   3.151   5.587 -0.1218 -0.6193  0.0678
10636TIP3    H153323   5.223   3.083   5.654  1.3156 -1.2182 -0.5963
10636TIP3    H253324   5.165   3.220   5.627 -1.6134 -2.1092  0.7536
10637TIP3   OH253325   0.542   5.929  12.945  0.0420  0.0374 -0.0287
10637TIP3    H153326   0.523   5.999  12.882  1.7495  0.0521 -0.5590
10637TIP3    H253327   0.575   5.975  13.022  0.9756 -0.1549 -0.3042
10638TIP3   OH253328   1.414   5.073  16.533  0.0580  0.1660 -0.2133
10638TIP3    H153329   1.457   5.158  16.539  1.6521 -0.5711 -0.6587
10638TIP3    H253330   1.339   5.088  16.475 -1.5716  1.9281  2.1131
10639TIP3   OH253331   5.977   5.176   4.472 -0.6963  0.3137 -0.2850
10639TIP3    H153332   6.018   5.100   4.430  2.6748  0.6904  1.8848
10639TIP3    H253333   6.036   5.248   4.452 -0.5256  1.0609  2.4994
10640TIP3   OH253334   4.402   5.390  16.749 -0.2444 -0.0835 -0.3055
10640TIP3    H153335   4.480   5.376  16.804 -0.5089 -0.3732  0.0011
10640TIP3    H253336   4.346   5.447  16.801 -0.6622 -0.6682 -0.1109
10641TIP3   OH253337   4.912   5.967   1.844 -0.5308 -0.2206 -0.4303
10641TIP3    H153338   4.836   5.909   1.832 -0.3315 -0.6323  0.2260
10641TIP3    H253339   4.882   6.052   1.812 -1.2303 -0.4113 -0.3127
10642TIP3   OH253340   2.678   6.152  12.287  0.6859  0.1384 -0.3638
10642TIP3    H153341   2.590   6.132  12.255  0.0024 -0.0293  1.5253
10642TIP3    H253342   2.664   6.195  12.371  2.3673  1.8954 -0.9225
10643TIP3   OH253343   1.720   5.763  12.579 -0.2558  0.2186  0.4829
10643TIP3    H153344   1.815   5.755  12.575  0.0477  2.4238  1.4930
10643TIP3    H253345   1.695   5.789  12.490 -0.0692 -1.3260 -0.0454
10644TIP3   OH253346   3.225   2.445  11.588 -0.0639 -0.0175 -0.1902
10644TIP3    H153347   3.298   2.450  11.649 -0.4073 -0.3825  0.2661
10644TIP3    H253348   3.260   2.398  11.512  0.4256  0.6258 -0.3669
10645TIP3   OH253349   1.681   4.040  13.587  0.0809  0.5017  0.5704
10645TIP3    H153350   1.694   4.001  13.673  2.5062 -0.0455  0.0142
10645TIP3    H253351   1.669   3.966  13.528  1.6998  0.6645 -0.0260
10646TIP3   OH253352   6.571   2.836   3.869  0.3120 -0.6616 -0.0230
10646TIP3    H153353   6.648   2.891   3.859  0.0866 -0.4228 -0.4769
10646TIP3    H253354   6.564   2.820   3.963  0.3746  0.0877  0.1093
10647TIP3   OH253355   5.541   2.500   3.816  0.0247  0.1684  0.2007
10647TIP3    H153356   5.612   2.500   3.880  1.6915 -1.3411 -1.5253
10647TIP3    H253357   5.582   2.525   3.733 -1.6849  0.3051 -0.6668
10648TIP3   OH253358   0.441   1.128  11.177  0.2669 -0.0715  0.0369
10648TIP3    H153359   0.524   1.102  11.138  0.1542 -1.2672  0.5413
10648TIP3    H253360   0.389   1.162  11.104  0.7147 -0.5848 -0.5231
10649TIP3   OH253361   4.877   5.846   3.709  0.3902 -0.0491 -0.0045
10649TIP3    H153362   4.810   5.891   3.761  0.5204  0.1880 -0.0376
10649TIP3    H253363   4.911   5.778   3.767  1.2859  0.8965  0.6223
10650TIP3   OH253364   6.735   2.664   0.360  0.4175  0.6046 -0.1378
10650TIP3    H153365   6.739   2.760   0.358  1.1205  0.5993  0.4451
10650TIP3    H253366   6.773   2.636   0.277  3.1771  0.8000  0.9545
10651TIP3   OH253367   4.403   2.142   0.023  0.6229  0.1455  0.1841
10651TIP3    H153368   4.437   2.231   0.026 -0.4977  0.5691  1.1796
10651TIP3    H253369   4.475   2.087   0.055  1.5215  0.6034 -0.9765
10652TIP3   OH253370   3.403   5.330   4.909  0.4319  0.5605  0.0546
10652TIP3    H153371   3.324   5.333   4.854 -0.2366  1.3045  1.0076
10652TIP3    H253372   3.370   5.306   4.996  1.4323 -0.3086  0.2073
10653TIP3   OH253373   6.162   0.497  14.285 -0.5565  0.1503 -0.7573
10653TIP3    H153374   6.191   0.500  14.376  1.2712 -0.2665 -1.2778
10653TIP3    H253375   6.135   0.586  14.265  2.4271  1.1827 -0.7729
10654TIP3   OH253376   0.912   0.469   3.800 -0.5197  0.2405  0.3247
10654TIP3    H153377   0.953   0.427   3.725 -0.6669 -1.1186  0.9712
10654TIP3    H253378   0.917   0.562   3.781  0.3754 -0.0271 -0.8823
10655TIP3   OH253379   0.799   1.437  10.982  0.6842  0.1896 -0.2718
10655TIP3    H153380   0.821   1.344  10.979 -0.3192 -0.1009  0.8091
10655TIP3    H253381   0.781   1.461  10.891 -0.7170 -1.0913 -0.3626
10656TIP3   OH253382   0.983   3.858   3.736  0.0711 -0.0445 -1.0192
10656TIP3    H153383   0.996   3.856   3.830  1.2346  2.8766 -1.0156
10656TIP3    H253384   0.891   3.882   3.725 -0.4956 -1.9364 -0.7118
10657TIP3   OH253385   5.026   6.203   5.508  0.3317 -0.1307  0.5722
10657TIP3    H153386   4.964   6.223   5.438  1.7424 -2.9536 -1.6930
10657TIP3    H253387   5.055   6.289   5.540 -0.3782  1.3218 -2.3520
10658TIP3   OH253388   5.140   2.295  11.381  0.1046 -0.7859 -0.1717
10658TIP3    H153389   5.175   2.384  11.381  0.8352 -1.0514 -1.3979
10658TIP3    H253390   5.117   2.279  11.473  0.1974  0.5632  0.1127
10659TIP3   OH253391   3.638   1.361   0.316 -0.4221 -0.2662 -0.1387
10659TIP3    H153392   3.586   1.442   0.315  0.4848  0.3511  0.7569
10659TIP3    H253393   3.701   1.374   0.387  0.6310 -1.2065 -0.8698
10660TIP3   OH253394   0.750   5.539   0.812  0.0300 -0.4661  0.2127
10660TIP3    H153395   0.830   5.560   0.860 -0.1685  1.4085 -0.1884
10660TIP3    H253396   0.748   5.443   0.809  2.0613 -0.5610  0.5278
10661TIP3   OH253397   5.416   0.587  12.573  0.0093  0.3684 -0.3717
10661TIP3    H153398   5.363   0.581  12.494  1.1412  0.3220 -1.1601
10661TIP3    H253399   5.372   0.531  12.637 -0.3730 -0.4214 -1.3018
10662TIP3   OH253400   3.438   3.894  16.957 -0.2193 -0.1698  0.5336
10662TIP3    H153401   3.409   3.817  17.007 -0.4266  0.9997  2.3163
10662TIP3    H253402   3.521   3.919  16.999 -0.2432  0.6743  0.0842
10663TIP3   OH253403   5.284   4.652   1.161  0.5200 -0.9202 -0.3996
10663TIP3    H153404   5.235   4.610   1.232  1.2264 -0.8820  0.1229
10663TIP3    H253405   5.353   4.590   1.139  1.2555 -0.2736  0.0248
10664TIP3   OH253406   4.825   6.529  10.704  0.1523 -0.1610 -0.0599
10664TIP3    H153407   4.799   6.448  10.659  0.9994 -0.8099  0.5653
10664TIP3    H253408   4.748   6.555  10.754 -0.1407 -0.5825 -0.2854
10665TIP3   OH253409   6.149   6.405   0.147 -0.3873  0.3629 -0.3611
10665TIP3    H153410   6.195   6.331   0.106  0.7857  0.8505  0.0309
10665TIP3    H253411   6.107   6.450   0.073 -0.4028 -0.2059 -0.7071
10666TIP3   OH253412   6.413   1.668   3.999 -0.0594  0.0236 -0.3890
10666TIP3    H153413   6.481   1.607   4.027  2.1971  2.5771  0.1029
10666TIP3    H253414   6.370   1.696   4.080  1.8944  2.2753 -0.0210
10667TIP3   OH253415   3.760   3.381  15.013  0.0486 -0.0372  0.6196
10667TIP3    H153416   3.813   3.460  15.025  1.6730 -1.0691  0.4655
10667TIP3    H253417   3.733   3.384  14.921  0.5390  0.0733  0.4786
10668TIP3   OH253418   2.208   2.191   4.852 -0.6209 -0.3873 -0.1668
10668TIP3    H153419   2.184   2.269   4.802 -1.7609 -1.7604 -1.8779
10668TIP3    H253420   2.299   2.175   4.829 -0.3881  0.4258  0.1767
10669TIP3   OH253421   2.117   6.357  13.847  0.0557 -0.2049 -0.1289
10669TIP3    H153422   2.136   6.315  13.931 -1.7021  0.5957  0.7175
10669TIP3    H253423   2.054   6.299  13.804 -1.8428  1.0828  0.7424
10670TIP3   OH253424   5.265   4.887  10.647  0.6663 -0.5957  0.5313
10670TIP3    H153425   5.202   4.849  10.709  0.1640  0.0654  0.4324
10670TIP3    H253426   5.301   4.811  10.600 -0.6086 -0.9386  0.0676
10671TIP3   OH253427   4.335   3.702   0.050  0.2556 -0.0923  0.2553
10671TIP3    H153428   4.392   3.779   0.042 -0.3117  0.4301  1.0357
10671TIP3    H253429   4.302   3.687  -0.039 -0.2108  1.0382  0.2193
10672TIP3   OH253430   2.905   3.747   0.478  0.4014  0.0971  0.1974
10672TIP3    H153431   2.847   3.820   0.457  0.8137 -0.0428 -1.5400
10672TIP3    H253432   2.903   3.692   0.400  0.8829 -1.2381  1.1000
10673TIP3   OH253433   6.631   3.223   2.484  0.1258 -0.0011  0.0426
10673TIP3    H153434   6.551   3.239   2.533 -0.2882  1.6727 -1.0981
10673TIP3    H253435   6.603   3.171   2.408  0.4668 -1.0650  0.6257
10674TIP3   OH253436   5.347   2.494   6.488 -0.1550  0.3223  0.2456
10674TIP3    H153437   5.295   2.543   6.424  1.5721  1.7437 -0.1352
10674TIP3    H253438   5.382   2.561   6.546  0.4217 -0.7086  1.1101
10675TIP3   OH253439   2.793   4.238   2.615 -0.0655 -0.2621  0.2220
10675TIP3    H153440   2.833   4.237   2.701 -1.2627 -0.6165  0.8001
10675TIP3    H253441   2.808   4.151   2.580  0.9348  0.0619 -0.1952
10676TIP3   OH253442   5.127   1.466  11.491 -0.0370  0.0867  0.5057
10676TIP3    H153443   5.205   1.416  11.466 -0.4824 -1.0244  1.2245
10676TIP3    H253444   5.094   1.421  11.569  0.3097  2.3536  2.0519
10677TIP3   OH253445   4.665   4.736   5.250  0.1959 -0.0234 -0.1721
10677TIP3    H153446   4.583   4.784   5.238 -0.2450 -0.4745  0.8606
10677TIP3    H253447   4.645   4.671   5.318  0.4994 -2.2931 -2.1114
10678TIP3   OH253448   0.522   2.997  16.420 -0.2580 -0.4476 -0.1011
10678TIP3    H153449   0.442   2.982  16.370  1.4127 -0.9551 -2.8650
10678TIP3    H253450   0.522   2.927  16.486 -2.7207  0.4526  0.9912
10679TIP3   OH253451   2.883   1.256   1.288 -0.0168 -0.4176  0.2942
10679TIP3    H153452   2.855   1.175   1.246  0.1433 -0.3098 -0.0240
10679TIP3    H253453   2.865   1.324   1.223  1.9871 -0.4668 -0.3760
10680TIP3   OH253454   3.164   4.647   2.113 -0.7808  0.9636  0.9787
10680TIP3    H153455   3.243   4.599   2.138 -0.1183  1.8290  0.6005
10680TIP3    H253456   3.140   4.612   2.027  0.9653  2.7411 -0.3267
10681TIP3   OH253457   3.057   5.130   2.019 -0.2323  0.2897 -0.0698
10681TIP3    H153458   3.141   5.101   1.985 -0.1826  2.0549 -1.6003
10681TIP3    H253459   3.005   5.050   2.026  0.5672 -0.4607 -2.0901
10682TIP3   OH253460   0.300   4.015  14.378 -0.3667  0.3267 -0.2027
10682TIP3    H153461   0.392   4.000  14.401 -0.5236  0.6857  0.6934
10682TIP3    H253462   0.281   3.948  14.312  1.0292  1.3889 -1.7546
10683TIP3   OH253463   5.219   2.734  16.678 -0.2008  0.1440  0.5065
10683TIP3    H153464   5.290   2.670  16.686 -0.4677  0.0219  2.3916
10683TIP3    H253465   5.226   2.788  16.756  0.0828  2.5602 -1.1075
10684TIP3   OH253466   2.971   0.221   5.013 -0.0962 -0.2124  0.7805
10684TIP3    H153467   2.988   0.250   4.923 -0.4059 -0.0826  0.7650
10684TIP3    H253468   3.047   0.168   5.035 -0.6118 -1.2943  0.0006
10685TIP3   OH253469   2.605   1.170  16.642  0.1430  0.2099  0.5841
10685TIP3    H153470   2.543   1.143  16.710 -0.4225 -0.4495 -0.1654
10685TIP3    H253471   2.641   1.087  16.609  1.5371  0.5886  1.1027
10686TIP3   OH253472   2.420   3.547  16.933  0.5092 -0.1868 -0.0414
10686TIP3    H153473   2.379   3.576  16.852 -0.1226 -1.2554 -0.1152
10686TIP3    H253474   2.461   3.626  16.968 -1.7911  1.0328  0.1446
10687TIP3   OH253475   3.884   6.477  16.652 -0.3012  0.1348 -0.0636
10687TIP3    H153476   3.858   6.385  16.658  1.1224 -0.4655 -1.8780
10687TIP3    H253477   3.906   6.502  16.741 -1.0610 -1.1867  0.5212
10688TIP3   OH253478   6.339   1.061  15.498  1.2631 -0.7077  0.4192
10688TIP3    H153479   6.283   0.984  15.494  1.0883 -0.5339 -0.7177
10688TIP3    H253480   6.287   1.125  15.547 -0.2036 -0.0552 -1.8255
10689TIP3   OH253481   4.709   0.107   1.255  0.3475  0.0962  0.2848
10689TIP3    H153482   4.631   0.068   1.216  0.0784 -0.2211  1.1090
10689TIP3    H253483   4.757   0.144   1.181 -0.5150  0.1741 -0.2552
10690TIP3   OH253484   2.996   6.390  15.156 -0.1824  0.3218 -0.0747
10690TIP3    H153485   2.963   6.410  15.068 -1.3255  1.0687  0.5122
10690TIP3    H253486   2.919   6.390  15.212 -0.2177 -4.5300  0.2834
10691TIP3   OH253487   3.132   1.369   6.113  0.2354  0.1694 -0.3077
10691TIP3    H153488   3.133   1.419   6.194  3.1839 -1.2967  0.6964
10691TIP3    H253489   3.054   1.313   6.121 -0.4717  1.2611  0.6950
10692TIP3   OH253490   3.589   6.214   6.116 -0.6523 -0.5473  0.1157
10692TIP3    H153491   3.523   6.262   6.066  0.1874  0.0565 -0.4308
10692TIP3    H253492   3.542   6.182   6.193 -1.6178 -0.2625 -0.3452
10693TIP3   OH253493   1.245   3.538  16.662  0.2140 -0.0685 -0.0645
10693TIP3    H153494   1.268   3.487  16.739 -0.9408 -2.7913 -1.3696
10693TIP3    H253495   1.309   3.609  16.659  1.6246 -1.1608  2.1670
10694TIP3   OH253496   0.217   3.331  16.895  0.0952 -0.3806  0.0201
10694TIP3    H153497   0.220   3.250  16.845 -1.2449 -0.3089 -0.2066
10694TIP3    H253498   0.134   3.329  16.941  0.3116  0.5868  0.4948
10695TIP3   OH253499   4.978   6.632  16.801 -0.7085 -0.2931  0.2410
10695TIP3    H153500   4.959   6.569  16.731  2.6765 -0.4082 -0.7612
10695TIP3    H253501   4.995   6.579  16.878  1.3649 -0.6609 -0.4085
10696TIP3   OH253502   6.158   1.833   5.573 -0.0603 -0.9454  0.1700
10696TIP3    H153503   6.125   1.835   5.663 -1.3099 -1.7983 -0.2457
10696TIP3    H253504   6.113   1.905   5.529 -0.5212 -1.3962 -0.1098
10697TIP3   OH253505   3.250   4.446   4.617 -0.0391 -0.4858  0.3214
10697TIP3    H153506   3.346   4.449   4.620  0.0120 -1.6385  0.2831
10697TIP3    H253507   3.222   4.469   4.705  0.2504  0.1145  0.2673
10698TIP3   OH253508   3.358   3.561  14.194  0.2966 -0.0811  0.4218
10698TIP3    H153509   3.379   3.516  14.111 -0.2937 -1.8875  1.1954
10698TIP3    H253510   3.399   3.647  14.185 -0.5102  0.1286 -2.1218
10699TIP3   OH253511   1.766   5.107  15.550  0.3968 -0.0712 -0.0163
10699TIP3    H153512   1.723   5.025  15.575  0.7632 -0.6189 -1.1450
10699TIP3    H253513   1.859   5.087  15.553  0.4791 -0.4999 -2.7307
10700TIP3   OH253514   4.182   3.437  14.728  0.0309 -0.5262  0.1068
10700TIP3    H153515   4.152   3.396  14.646  0.4215  0.8119 -0.7279
10700TIP3    H253516   4.245   3.374  14.764 -1.2505 -1.8358  0.1945
10701TIP3   OH253517   2.021   2.338  13.934  0.6178 -0.2372 -1.1397
10701TIP3    H153518   1.954   2.273  13.956 -0.4531  0.5899 -1.8578
10701TIP3    H253519   2.061   2.360  14.018  0.1538 -0.9084 -0.7280
10702TIP3   OH253520   4.632   5.341   2.113 -0.1479  0.6228 -0.0187
10702TIP3    H153521   4.581   5.377   2.185  0.2447 -0.3820  0.7892
10702TIP3    H253522   4.691   5.413   2.087 -0.1355  0.9202  0.8130
10703TIP3   OH253523   1.627   5.877  12.343 -0.0685 -0.0783  0.2862
10703TIP3    H153524   1.551   5.934  12.358 -0.8080 -1.1429  0.8009
10703TIP3    H253525   1.605   5.828  12.263  0.3915  0.0976  0.0494
10704TIP3   OH253526   1.853   6.412  17.002  0.2617  0.9030  0.6451
10704TIP3    H153527   1.820   6.355  17.071 -0.0190 -0.3775 -0.5118
10704TIP3    H253528   1.845   6.500  17.038  0.1106  0.2815  2.2310
10705TIP3   OH253529   2.045   1.683  14.018 -0.3985 -0.1616 -0.3314
10705TIP3    H153530   2.028   1.772  14.050 -2.0627 -0.5346 -0.0812
10705TIP3    H253531   1.972   1.631  14.052  1.4798 -2.0458  1.0997
10706TIP3   OH253532   1.919   2.938  16.313 -0.1364  0.0642 -0.3564
10706TIP3    H153533   1.922   2.854  16.267 -2.1483  0.0452 -0.5347
10706TIP3    H253534   1.986   2.932  16.380  1.0927 -0.9158 -1.6171
10707TIP3   OH253535   0.161   3.005  17.069  0.3990 -0.5156  0.0908
10707TIP3    H153536   0.194   2.933  17.122  0.4829 -0.5100  0.0470
10707TIP3    H253537   0.066   3.000  17.078  0.3858 -0.8517 -0.1963
10708TIP3   OH253538   5.764   2.774   4.904 -0.4249  0.2215  0.0556
10708TIP3    H153539   5.758   2.680   4.889 -1.3544  0.1585  0.7296
10708TIP3    H253540   5.852   2.786   4.941 -0.6977 -0.5535  1.0193
10709TIP3   OH253541   4.455   1.563  11.271  0.0153 -0.6169  0.3259
10709TIP3    H153542   4.531   1.514  11.242 -1.3512 -1.7067 -1.6629
10709TIP3    H253543   4.407   1.583  11.191 -1.2628  0.9643  1.4211
10710TIP3   OH253544   5.812   0.769   3.375 -0.8145  0.0516 -0.5791
10710TIP3    H153545   5.734   0.803   3.331 -0.8349  1.4169  0.4351
10710TIP3    H253546   5.841   0.841   3.432 -1.0850 -1.7623  2.0175
10711TIP3   OH253547   5.137   4.841   1.278  0.2740 -0.6229 -0.2265
10711TIP3    H153548   5.055   4.865   1.235  1.2448  1.8606 -0.8877
10711TIP3    H253549   5.189   4.799   1.209  1.6903  3.0395 -1.6760
10712TIP3   OH253550   2.665   6.520   1.798 -0.3004  0.1421 -0.3110
10712TIP3    H153551   2.677   6.427   1.779  0.2117  0.2918 -0.7111
10712TIP3    H253552   2.738   6.542   1.855 -1.7387 -0.2774  1.8516
10713TIP3   OH253553   4.064   1.932   1.996  0.3956  0.1345 -0.3416
10713TIP3    H153554   4.040   1.909   2.086 -1.2735  2.4358 -0.0987
10713TIP3    H253555   3.988   1.980   1.963  1.2010 -0.1398 -2.8091
10714TIP3   OH253556   1.460   2.426   0.378  0.3549  0.5703  0.6150
10714TIP3    H153557   1.509   2.348   0.402 -0.7176 -0.2623  0.1932
10714TIP3    H253558   1.406   2.398   0.304  0.6554  1.9819 -0.1654
10715TIP3   OH253559   1.627   3.855  13.397  0.3623  0.3646 -0.3712
10715TIP3    H153560   1.711   3.830  13.358  0.2610  1.3200 -1.2548
10715TIP3    H253561   1.564   3.845  13.326 -0.5260 -1.4971  0.5990
10716TIP3   OH253562   4.479   2.799  16.003  0.4458  0.4074  0.6615
10716TIP3    H153563   4.418   2.787  16.076 -0.5015  1.6125  0.1091
10716TIP3    H253564   4.493   2.894  15.999  2.1139  0.1910  0.5511
10717TIP3   OH253565   1.874   6.449  14.667 -0.9050 -0.1953  0.1416
10717TIP3    H153566   1.926   6.378  14.704 -1.1935 -0.0865  0.7546
10717TIP3    H253567   1.785   6.414  14.661 -1.2501  0.4378  1.3681
10718TIP3   OH253568   1.360   6.542  12.398 -0.1228 -0.4021 -0.0094
10718TIP3    H153569   1.312   6.541  12.314 -1.0200 -0.1523  0.4834
10718TIP3    H253570   1.452   6.537  12.373 -0.2435  1.9346 -1.1163
10719TIP3   OH253571   5.892   6.643   6.137  0.1208  0.0819 -0.2904
10719TIP3    H153572   5.957   6.690   6.188 -1.8079  0.3434  2.0764
10719TIP3    H253573   5.895   6.553   6.170  0.8242 -0.4825 -1.7920
10720TIP3   OH253574   1.463   1.588  14.069  0.4007  0.7604 -0.0778
10720TIP3    H153575   1.483   1.538  14.148 -0.6606 -0.9021 -0.8144
10720TIP3    H253576   1.431   1.672  14.101  0.2562  0.2186  1.2458
10721TIP3   OH253577   3.082   1.260  14.005 -0.3044  0.5157  1.1900
10721TIP3    H153578   3.137   1.193  14.046  1.4308  0.0063 -1.6959
10721TIP3    H253579   2.998   1.216  13.989  0.4543 -0.6505  0.3173
10722TIP3   OH253580   3.049   2.129  15.915  0.1389  0.1829 -0.4927
10722TIP3    H153581   2.984   2.084  15.969  0.9078 -1.6222 -1.0262
10722TIP3    H253582   3.133   2.102  15.950  0.6481  1.3865 -0.7186
10723TIP3   OH253583   5.030   3.158   1.855 -0.3713 -0.1519 -0.4720
10723TIP3    H153584   4.953   3.180   1.908 -0.7368 -2.7902  0.2716
10723TIP3    H253585   5.097   3.134   1.919 -0.2664 -1.7322 -1.1101
10724TIP3   OH253586   1.372   3.161  12.523 -0.2490  0.0153 -0.0311
10724TIP3    H153587   1.289   3.181  12.479  0.0906  0.5653 -0.4218
10724TIP3    H253588   1.432   3.137  12.453  0.4117  1.2883  0.0766
10725TIP3   OH253589   4.916   5.186   0.687 -0.6760 -0.5279  0.2396
10725TIP3    H153590   4.967   5.262   0.661  1.1465 -1.6332  0.4134
10725TIP3    H253591   4.871   5.159   0.607 -2.1552  1.2665  0.3975
10726TIP3   OH253592   0.268   3.221   5.643 -0.1775  0.3654  0.0936
10726TIP3    H153593   0.297   3.310   5.662  0.8538 -0.4247  2.6666
10726TIP3    H253594   0.324   3.193   5.570 -0.6545  1.8368 -0.8919
10727TIP3   OH253595   0.052   0.258  12.789 -0.3719  0.4416  0.5530
10727TIP3    H153596   0.006   0.337  12.819  0.8118  1.3498  0.0753
10727TIP3    H253597   0.046   0.197  12.862 -2.3978  0.4720  0.4737
10728TIP3   OH253598   5.305   0.470  13.781 -0.3980  0.0343  0.2739
10728TIP3    H153599   5.364   0.522  13.836 -1.6070  0.4573  1.2227
10728TIP3    H253600   5.337   0.484  13.692  0.2918  1.1062  0.6626
10729TIP3   OH253601   4.423   0.375  16.692  0.4414  0.1532  0.3279
10729TIP3    H153602   4.466   0.371  16.607 -2.2718 -0.9991 -1.1300
10729TIP3    H253603   4.408   0.468  16.708  0.1500  0.3336 -0.9339
10730TIP3   OH253604   3.901   6.392  12.019 -0.0222  0.0284 -0.9113
10730TIP3    H153605   3.844   6.326  12.059 -1.8010  0.6013 -2.3532
10730TIP3    H253606   3.941   6.437  12.093 -1.7773 -0.1466  0.2053
10731TIP3   OH253607   2.808   0.026   3.362  0.0251  0.0426 -0.5857
10731TIP3    H153608   2.845   0.049   3.447 -0.3192  0.9162 -0.6597
10731TIP3    H253609   2.798   0.109   3.317 -0.7610 -0.3090 -1.0862
10732TIP3   OH253610   0.658   4.191  12.704 -0.2461  0.0137 -0.4155
10732TIP3    H153611   0.602   4.269  12.713 -0.7457 -0.5207  1.5564
10732TIP3    H253612   0.614   4.124  12.756  0.0265 -1.7103 -2.2989
10733TIP3   OH253613   4.274   5.546   1.335  0.1666 -0.0892  0.4776
10733TIP3    H153614   4.229   5.538   1.251 -0.0496  0.5740  0.5208
10733TIP3    H253615   4.213   5.509   1.399 -0.2065  0.5386  0.4969
10734TIP3   OH253616   6.260   3.353  15.394  0.1373  0.0591  0.5696
10734TIP3    H153617   6.317   3.402  15.336 -0.4487  0.6146  0.4503
10734TIP3    H253618   6.271   3.262  15.368 -1.9133  0.4301 -2.1170
10735TIP3   OH253619   3.413   4.400   3.710 -0.4373 -0.2043 -0.5789
10735TIP3    H153620   3.498   4.403   3.752 -0.6442 -1.3871 -0.0448
10735TIP3    H253621   3.364   4.472   3.750 -0.6611 -1.3396  1.3241
10736TIP3   OH253622   6.200   5.111   2.328 -0.3410 -0.0013  0.4553
10736TIP3    H153623   6.232   5.163   2.401 -2.1021  1.2625  0.3830
10736TIP3    H253624   6.221   5.020   2.352  0.0750  0.4748  2.0150
10737TIP3   OH253625   6.397   4.710  11.654 -0.8564 -0.2893 -0.0588
10737TIP3    H153626   6.386   4.640  11.718 -1.6869  0.7871  1.0390
10737TIP3    H253627   6.492   4.722  11.647 -0.7269 -1.2254  0.0599
10738TIP3   OH253628   2.438   6.269   6.723  0.2960 -0.3865  0.6549
10738TIP3    H153629   2.521   6.316   6.723 -0.8664  1.8745 -0.6911
10738TIP3    H253630   2.380   6.321   6.779 -0.9255 -0.3648 -0.5485
10739TIP3   OH253631   6.014   0.791   4.458 -0.1135  0.4062 -0.1873
10739TIP3    H153632   6.067   0.744   4.394 -1.4603 -1.3877 -0.0547
10739TIP3    H253633   5.945   0.833   4.405  0.1066  0.8415 -0.1319
10740TIP3   OH253634   4.787   2.442   2.382  0.2424  0.2390  0.1035
10740TIP3    H153635   4.826   2.459   2.468 -0.3273 -1.6548  0.7883
10740TIP3    H253636   4.859   2.407   2.330  0.0924 -0.7185  0.5247
10741TIP3   OH253637   6.231   5.383   3.570 -0.6091  0.2249  0.3889
10741TIP3    H153638   6.283   5.454   3.606 -1.0876  0.0054  1.5619
10741TIP3    H253639   6.152   5.380   3.625 -1.8550  0.5121 -1.2954
10742TIP3   OH253640   5.541   6.497  16.588  0.5853 -0.1543  0.3272
10742TIP3    H153641   5.499   6.582  16.597  0.5033 -0.0284 -1.0544
10742TIP3    H253642   5.590   6.502  16.506 -1.3186 -2.1820 -1.0728
10743TIP3   OH253643   2.698   1.985  14.393 -0.4585  0.3042  0.5307
10743TIP3    H153644   2.631   1.955  14.455 -1.1133  1.2007  0.2829
10743TIP3    H253645   2.753   1.908  14.378 -0.8954 -0.2027  1.4389
10744TIP3   OH253646   3.960   5.771   4.498  1.0883  0.2612  0.0231
10744TIP3    H153647   3.933   5.836   4.564 -0.4926 -0.5424  0.2244
10744TIP3    H253648   4.031   5.723   4.540  1.1434  0.7714  0.5323
10745TIP3   OH253649   0.552   0.864   2.631 -0.0258 -0.1331 -0.1362
10745TIP3    H153650   0.622   0.819   2.677 -0.2944 -1.0487 -0.5971
10745TIP3    H253651   0.531   0.807   2.557  0.3297  1.2412 -1.3563
10746TIP3   OH253652   4.201   6.000  16.889 -0.1311 -0.2031 -0.8516
10746TIP3    H153653   4.279   5.965  16.845  0.8570  0.1879  0.5079
10746TIP3    H253654   4.150   6.040  16.819  0.9748 -0.3407 -1.7647
10747TIP3   OH253655   3.246   2.124   3.743 -0.1902  0.0355 -0.0120
10747TIP3    H153656   3.292   2.100   3.823 -0.7029 -1.1949 -0.0614
10747TIP3    H253657   3.220   2.215   3.757  1.1219  0.3525  0.5364
10748TIP3   OH253658   6.417   3.746  10.870 -0.3558 -0.1531  0.0961
10748TIP3    H153659   6.464   3.750  10.787  1.4882 -2.4037  0.9130
10748TIP3    H253660   6.382   3.834  10.882  0.4068  0.5896 -2.4263
10749TIP3   OH253661   4.370   0.267   2.796 -0.2023 -0.1081 -0.2817
10749TIP3    H153662   4.341   0.319   2.871 -1.1341  0.2178 -0.8430
10749TIP3    H253663   4.444   0.316   2.760  0.6103 -0.5625  0.7490
10750TIP3   OH253664   3.710   2.084  16.113 -0.0210  0.7355 -0.1926
10750TIP3    H153665   3.762   2.130  16.048  1.7417 -1.8415 -0.7563
10750TIP3    H253666   3.683   2.003  16.070 -1.0125  0.1306  1.4582
10751TIP3   OH253667   4.272   2.853  10.346  0.0457  0.0482 -0.0854
10751TIP3    H153668   4.284   2.889  10.434  1.6272 -1.2769  0.3005
10751TIP3    H253669   4.218   2.775  10.359  2.7626 -1.9195  0.2626
10752TIP3   OH253670   2.625   3.329  16.723  0.2759 -0.1223  0.7620
10752TIP3    H153671   2.554   3.378  16.765  0.6727  0.5517  0.6695
10752TIP3    H253672   2.700   3.344  16.780  0.5564 -0.0997  0.3860
10753TIP3   OH253673   5.612   1.276  14.917  0.1301 -0.6757  0.0551
10753TIP3    H153674   5.667   1.314  14.986  0.0015 -1.1620  0.4278
10753TIP3    H253675   5.525   1.311  14.934  0.6288  1.5877 -1.6306
10754TIP3   OH253676   2.317   0.228   0.888  0.0318  0.3503  0.1067
10754TIP3    H153677   2.290   0.240   0.979 -2.1723  0.9031 -0.5701
10754TIP3    H253678   2.237   0.202   0.842  1.4238 -1.5320 -1.4170
10755TIP3   OH253679   0.366   1.136  13.861  0.8760 -0.4344 -0.1071
10755TIP3    H153680   0.440   1.187  13.894  1.6806 -2.4118  1.3231
10755TIP3    H253681   0.407   1.071  13.804  0.0031 -0.3179 -0.8839
10756TIP3   OH253682   0.639   1.691   2.056  0.2297 -0.0815  0.4239
10756TIP3    H153683   0.663   1.611   2.103  2.6341  0.1452 -0.2896
10756TIP3    H253684   0.686   1.686   1.973 -4.1486 -0.6530 -2.3975
10757TIP3   OH253685   1.731   5.780   3.261  0.0057 -0.9026 -0.2472
10757TIP3    H153686   1.747   5.775   3.356  0.2757  1.1977 -0.1496
10757TIP3    H253687   1.816   5.804   3.224 -0.0752 -1.8122 -1.0567
10758TIP3   OH253688   4.054   0.518   2.724  0.8076  0.1886 -0.5122
10758TIP3    H153689   4.130   0.459   2.728  1.2895  0.6396 -2.1061
10758TIP3    H253690   4.008   0.491   2.644  0.2089  0.9816 -0.4437
10759TIP3   OH253691   5.278   1.740   3.759 -0.4015  0.2640 -0.1415
10759TIP3    H153692   5.220   1.791   3.817  0.6541  2.7600 -1.1459
10759TIP3    H253693   5.366   1.768   3.783  0.1542 -0.1758 -1.5846
10760TIP3   OH253694   4.339   4.447   3.373 -0.4191 -0.1285  0.2105
10760TIP3    H153695   4.375   4.378   3.318 -0.9718  1.1269 -1.8163
10760TIP3    H253696   4.326   4.405   3.458  1.8028 -1.7481 -0.1632
10761TIP3   OH253697   0.923   6.404   0.301 -0.1555 -0.3111  0.3533
10761TIP3    H153698   0.829   6.421   0.312  0.1716  1.8029  0.4041
10761TIP3    H253699   0.962   6.431   0.384  0.5633 -0.4544  0.0677
10762TIP3   OH253700   2.229   6.561   3.696 -0.0463  0.6932 -0.3028
10762TIP3    H153701   2.210   6.476   3.735  1.3452  0.8799  0.8910
10762TIP3    H253702   2.309   6.546   3.645 -0.3283  1.0821 -0.8699
10763TIP3   OH253703   0.383   6.021  13.935  0.3860 -0.0923  0.5827
10763TIP3    H153704   0.356   6.099  13.984 -1.0750  0.5918 -1.1756
10763TIP3    H253705   0.314   5.957  13.952  1.7859 -1.2281  2.3464
10764TIP3   OH253706   1.490   4.954   2.032  0.1289 -0.2910  0.8222
10764TIP3    H153707   1.477   5.006   2.111 -0.3754 -2.1324  2.0236
10764TIP3    H253708   1.523   5.016   1.967  0.3456  1.3243  2.4033
10765TIP3   OH253709   2.201   4.045  17.237  0.1115 -0.1130 -0.2535
10765TIP3    H153710   2.240   4.117  17.287 -0.6234  0.5706 -0.6532
10765TIP3    H253711   2.110   4.042  17.265 -0.0315 -0.4491 -0.7392
10766TIP3   OH253712   6.211   2.016   1.375  0.4227  0.1307  0.2847
10766TIP3    H153713   6.127   2.041   1.412  0.8552 -0.9671  2.1125
10766TIP3    H253714   6.273   2.081   1.409  0.4835  0.4251 -0.3576
10767TIP3   OH253715   6.445   1.882  13.273  0.5794 -0.4260  0.0213
10767TIP3    H153716   6.477   1.847  13.356  2.9249  1.2533 -0.0922
10767TIP3    H253717   6.398   1.962  13.296  0.6369 -0.3215 -0.2187
10768TIP3   OH253718   1.515   2.513   0.772 -0.0530  0.4046 -0.1584
10768TIP3    H153719   1.525   2.589   0.715  2.3469  1.1522  1.1164
10768TIP3    H253720   1.453   2.541   0.839  1.4562  1.6524  0.8004
10769TIP3   OH253721   0.666   2.331   2.711 -0.3177 -0.5940 -0.1689
10769TIP3    H153722   0.718   2.315   2.789  0.5799 -1.3911 -0.9052
10769TIP3    H253723   0.575   2.327   2.741 -0.0351 -2.5685  0.5608
10770TIP3   OH253724   1.826   6.340  16.386 -0.6964  0.4363 -0.3880
10770TIP3    H153725   1.901   6.328  16.444  0.2085 -2.1041 -1.9248
10770TIP3    H253726   1.758   6.376  16.443  0.8640  0.3392  1.6745
10771TIP3   OH253727   0.562   5.328   3.675  0.1570  0.0501 -0.2632
10771TIP3    H153728   0.571   5.276   3.755 -0.2803 -2.6564 -1.8681
10771TIP3    H253729   0.650   5.364   3.660  1.1917 -2.3596 -0.4247
10772TIP3   OH253730   3.648   4.760   3.073 -0.3576  0.2366 -0.2138
10772TIP3    H153731   3.579   4.697   3.093  0.7026 -0.6404  0.7969
10772TIP3    H253732   3.705   4.715   3.011 -0.4868  0.8251 -0.7723
10773TIP3   OH253733   0.014   5.813  10.699  0.0521  0.4314 -0.2139
10773TIP3    H153734   0.073   5.857  10.638 -0.7124  1.7540 -0.0436
10773TIP3    H253735  -0.054   5.878  10.717  0.0087 -0.0946  1.6917
10774TIP3   OH253736   3.326   1.887  16.510  0.0022  0.3549  0.1611
10774TIP3    H153737   3.388   1.915  16.442 -1.5161 -0.0701 -1.4963
10774TIP3    H253738   3.354   1.798  16.532 -1.4319 -0.8741 -2.4974
10775TIP3   OH253739   2.435   3.921  11.441 -0.5445 -0.8786  0.1714
10775TIP3    H153740   2.381   3.870  11.381  1.0100 -0.6936 -1.4666
10775TIP3    H253741   2.502   3.961  11.385 -0.2813  1.0120  1.7515
10776TIP3   OH253742   4.877   3.641  16.186  0.5139  0.5147  0.4183
10776TIP3    H153743   4.881   3.552  16.223 -0.3396  1.5299  3.2288
10776TIP3    H253744   4.964   3.678  16.203  0.6222  0.4912 -0.0604
10777TIP3   OH253745   3.561   1.371   1.085 -0.2559 -0.4194 -0.1113
10777TIP3    H153746   3.560   1.291   1.137  0.2471  0.4850  1.3651
10777TIP3    H253747   3.481   1.366   1.032 -0.9964 -1.2147  1.0288
10778TIP3   OH253748   5.515   0.536   5.067  0.2415  0.4514 -0.3632
10778TIP3    H153749   5.568   0.545   4.988 -1.0315 -0.2141 -1.3430
10778TIP3    H253750   5.471   0.620   5.077  0.8972  0.7512  0.0149
10779TIP3   OH253751   3.233   4.180   2.903 -0.1030  0.4614 -0.4067
10779TIP3    H153752   3.178   4.257   2.915  1.4189  1.5260  0.1610
10779TIP3    H253753   3.299   4.187   2.973 -1.3409 -2.7083  1.2796
10780TIP3   OH253754   3.826   5.025   0.045  0.0213  0.4877  0.1358
10780TIP3    H153755   3.905   5.025   0.098 -0.2824 -0.2138  0.5981
10780TIP3    H253756   3.761   5.072   0.097 -0.7095 -1.4538  1.0905
10781TIP3   OH253757   3.790   0.324   5.212  0.6389 -0.1941 -0.4954
10781TIP3    H153758   3.731   0.265   5.165  0.2519 -0.3378  0.1582
10781TIP3    H253759   3.799   0.284   5.299  0.2977  0.7559 -0.0130
10782TIP3   OH253760   0.173   6.715   0.260  0.1276 -0.0025  0.1126
10782TIP3    H153761   0.114   6.647   0.292  0.9810  0.0184  1.8271
10782TIP3    H253762   0.126   6.797   0.277  0.8011  0.0451  1.9491
10783TIP3   OH253763   0.450   3.557  15.030 -0.4378  0.6517 -0.4975
10783TIP3    H153764   0.528   3.608  15.008  0.0918 -0.7048 -2.0351
10783TIP3    H253765   0.391   3.572  14.956 -0.9850  0.4375 -0.1026
10784TIP3   OH253766   3.895   1.866   2.786  0.1744 -0.1783 -0.4290
10784TIP3    H153767   3.937   1.806   2.724  1.2303 -0.4808  0.5542
10784TIP3    H253768   3.877   1.813   2.863 -1.1513  0.1913 -0.4671
10785TIP3   OH253769   6.237   1.820  13.488 -0.5524 -0.3409 -0.4838
10785TIP3    H153770   6.197   1.808  13.573 -2.4487 -0.0256 -1.2788
10785TIP3    H253771   6.201   1.902  13.455 -1.2845 -1.3190 -2.3134
10786TIP3   OH253772   1.158   1.731  17.195 -0.0129 -0.3729  0.1028
10786TIP3    H153773   1.164   1.780  17.113 -0.9079 -1.2181 -0.4708
10786TIP3    H253774   1.119   1.648  17.171 -0.4105 -0.5792  1.4175
10787TIP3   OH253775   0.236   1.211  16.352 -0.3400 -0.0293 -0.1565
10787TIP3    H153776   0.235   1.306  16.358 -0.5689 -0.0363 -0.0801
10787TIP3    H253777   0.143   1.186  16.345 -0.2449 -0.1828 -1.0852
10788TIP3   OH253778   6.184   5.978  11.024  0.0280 -0.5858 -0.9917
10788TIP3    H153779   6.213   5.930  11.102 -1.3058 -0.6575 -0.5140
10788TIP3    H253780   6.248   5.954  10.956  1.6633  0.0594  0.2456
10789TIP3   OH253781   5.483   0.918   4.761  0.5984  0.0459 -0.3603
10789TIP3    H153782   5.486   0.830   4.721  0.4273  0.1484 -0.5956
10789TIP3    H253783   5.408   0.915   4.820  0.6095  0.0246 -0.3468
10790TIP3   OH253784   4.567   5.960   5.305 -0.3690  0.5027  0.2473
10790TIP3    H153785   4.556   6.043   5.258 -0.9578 -0.5999 -1.6864
10790TIP3    H253786   4.509   5.899   5.259  2.0762 -1.6582 -0.1947
10791TIP3   OH253787   0.629   1.023  12.942 -0.2771 -0.1598 -0.1520
10791TIP3    H153788   0.601   1.075  13.017 -0.4604  1.0133 -1.0095
10791TIP3    H253789   0.702   1.072  12.904  2.3522 -2.5803  1.3793
10792TIP3   OH253790   4.320   6.709  11.411 -0.1934 -0.3739 -0.3806
10792TIP3    H153791   4.367   6.792  11.422  1.8667 -1.1856 -2.2455
10792TIP3    H253792   4.245   6.730  11.357 -0.3757  0.4751  0.1895
10793TIP3   OH253793   0.275   3.726  10.726  0.2114  0.3046 -0.6170
10793TIP3    H153794   0.356   3.721  10.675  0.0060  0.6355 -0.9829
10793TIP3    H253795   0.205   3.719  10.661 -0.0516  1.2235 -0.4478
10794TIP3   OH253796   1.995   2.591   2.344 -0.1388  0.6249  0.0401
10794TIP3    H153797   2.057   2.657   2.377  0.4887 -0.5204  1.2711
10794TIP3    H253798   2.051   2.518   2.316 -0.8173  0.6016 -1.3174
10795TIP3   OH253799   5.155   0.238   4.546 -0.6796 -0.1538 -0.0966
10795TIP3    H153800   5.172   0.276   4.632  1.1822  1.2728 -1.0055
10795TIP3    H253801   5.061   0.222   4.545 -1.1719  2.1272  1.3136
10796TIP3   OH253802   3.376   5.977  16.103 -0.1050 -0.1489 -1.2044
10796TIP3    H153803   3.419   5.966  16.018  1.0378  2.2419 -1.0134
10796TIP3    H253804   3.420   6.052  16.142 -1.9425  0.0183  0.6795
10797TIP3   OH253805   0.076   1.687   0.517  0.3606 -0.4379  0.2778
10797TIP3    H153806   0.019   1.733   0.579  2.1295  0.7464  1.1284
10797TIP3    H253807   0.020   1.622   0.476 -1.2703 -0.2154  2.0094
10798TIP3   OH253808   2.037   4.136  12.329  0.0891 -0.0413 -0.5298
10798TIP3    H153809   1.999   4.050  12.348 -0.8742  0.3225 -0.7458
10798TIP3    H253810   2.103   4.148  12.397  0.3363 -1.0119 -0.5840
10799TIP3   OH253811   1.785   2.087  15.473  0.6381 -0.3601  0.1658
10799TIP3    H153812   1.760   2.159  15.531  1.1728  0.1370 -0.2027
10799TIP3    H253813   1.788   2.126  15.386  0.4273 -0.9552 -0.1140
10800TIP3   OH253814   0.064   6.130   1.836 -0.0681  0.0666 -0.1904
10800TIP3    H153815   0.000   6.072   1.795  1.6762 -2.0047 -0.1687
10800TIP3    H253816   0.127   6.150   1.766  1.2303 -0.9692  0.6262
10801TIP3   OH253817   6.335   6.658   6.154  0.7736  0.4001 -0.0494
10801TIP3    H153818   6.411   6.715   6.159 -0.0363  1.4896  0.2033
10801TIP3    H253819   6.303   6.651   6.244  1.7178 -1.6951  0.1736
10802TIP3   OH253820   5.636   6.114   3.644 -0.3408  0.2614  0.4527
10802TIP3    H153821   5.679   6.032   3.667  2.8396  1.6442  0.0646
10802TIP3    H253822   5.665   6.176   3.711  2.3146  2.3732 -2.3039
10803TIP3   OH253823   2.125   0.851   2.549  0.4995 -0.6640  0.3741
10803TIP3    H153824   2.175   0.888   2.622 -0.2306 -0.1797  0.6364
10803TIP3    H253825   2.149   0.758   2.548  1.2823 -0.4690  0.5879
10804TIP3   OH253826   2.240   1.213  12.704  0.2908 -0.4017 -0.1251
10804TIP3    H153827   2.157   1.175  12.676 -1.2944  2.2548  0.6014
10804TIP3    H253828   2.301   1.139  12.706 -1.8986 -2.3644 -1.1645
10805TIP3   OH253829   3.925   2.330   5.648 -0.5179 -0.9743  0.4311
10805TIP3    H153830   3.927   2.415   5.692 -1.1895 -0.1830 -0.9876
10805TIP3    H253831   3.863   2.278   5.698 -2.2244  0.3229 -0.2268
10806TIP3   OH253832   1.005   3.413  16.624 -0.2260 -0.2939 -0.4570
10806TIP3    H153833   1.088   3.432  16.667 -0.3729 -1.0163  0.1766
10806TIP3    H253834   0.949   3.379  16.694 -1.2055  0.6045 -0.7827
10807TIP3   OH253835   4.743   0.944  13.055 -0.0481  0.1206 -0.8718
10807TIP3    H153836   4.817   1.001  13.036  1.1845 -1.6528 -1.5398
10807TIP3    H253837   4.776   0.881  13.119 -0.9926 -0.6650 -1.1364
10808TIP3   OH253838   6.449   6.070   4.047  0.3368  0.1710 -0.4296
10808TIP3    H153839   6.421   5.999   4.106  2.8379  0.3490  1.1171
10808TIP3    H253840   6.461   6.146   4.104  2.8703  0.3502 -1.0699
10809TIP3   OH253841   4.059   5.800   1.687  0.3411  0.4248 -0.0208
10809TIP3    H153842   4.036   5.842   1.604  1.7266  0.9576 -0.1698
10809TIP3    H253843   4.153   5.782   1.679  0.1806 -0.9446  0.8211
10810TIP3   OH253844   3.299   3.082  12.274 -0.0502 -0.1594 -0.7044
10810TIP3    H153845   3.271   3.109  12.186  1.2703  0.6460 -0.9030
10810TIP3    H253846   3.363   3.013  12.258 -0.7382 -0.9061 -0.3105
10811TIP3   OH253847   1.704   6.214  15.313 -0.1441  0.1293 -0.1955
10811TIP3    H153848   1.686   6.123  15.290  0.0311  0.1564 -0.4427
10811TIP3    H253849   1.656   6.266  15.248 -1.9518  0.2567  1.1585
10812TIP3   OH253850   2.480   3.112  15.224 -0.0944 -0.2432  0.2798
10812TIP3    H153851   2.417   3.169  15.266 -1.3169  0.5075 -2.3568
10812TIP3    H253852   2.462   3.025  15.259 -1.7348  0.1729  0.5155
10813TIP3   OH253853   0.564   2.779  10.251 -0.0281 -0.3379  0.3871
10813TIP3    H153854   0.658   2.798  10.249 -0.2631  0.8976 -0.5020
10813TIP3    H253855   0.544   2.744  10.164 -0.5197  0.1773  0.2807
10814TIP3   OH253856   6.607   5.118  12.426 -0.2426 -0.4533 -0.5232
10814TIP3    H153857   6.553   5.194  12.449  2.9149  1.8459 -0.0823
10814TIP3    H253858   6.614   5.122  12.331  0.3814  0.2016 -0.4596
10815TIP3   OH253859   3.875   5.742  14.706  0.2600  0.3153  0.0250
10815TIP3    H153860   3.856   5.833  14.681 -1.5194  0.2943  1.1154
10815TIP3    H253861   3.792   5.697  14.692  1.5224 -1.5507 -2.0363
10816TIP3   OH253862   0.021   6.639   5.246 -0.3207  0.1041 -0.1784
10816TIP3    H153863   0.065   6.724   5.245  1.7189 -0.8999 -0.6586
10816TIP3    H253864   0.030   6.605   5.157  0.4349 -1.3450  0.4180
10817TIP3   OH253865   3.467   4.084   5.700  0.2461 -0.1598 -0.0833
10817TIP3    H153866   3.432   4.165   5.739  1.3868  1.1643 -1.6729
10817TIP3    H253867   3.410   4.067   5.626  0.2492 -0.6118  0.0152
10818TIP3   OH253868   2.974   6.065  13.417 -0.5779  0.5004 -0.1946
10818TIP3    H153869   3.008   6.017  13.493 -0.7173 -0.2065 -0.5754
10818TIP3    H253870   2.944   6.149  13.454 -0.8428  0.0824  0.5752
10819TIP3   OH253871   6.555   2.121   1.455 -0.4765  0.1961  0.2255
10819TIP3    H153872   6.468   2.150   1.481  0.2125  0.9477  1.8417
10819TIP3    H253873   6.612   2.195   1.474  0.9355 -1.2200  1.8903
10820TIP3   OH253874   3.369   5.041  14.290  0.7707  0.0430 -0.3415
10820TIP3    H153875   3.366   4.999  14.376 -1.3331  0.1828 -0.2889
10820TIP3    H253876   3.415   5.124  14.306  0.7705 -0.1150  0.5576
10821TIP3   OH253877   6.724   2.977   0.377  0.2700  0.1763  0.4489
10821TIP3    H153878   6.633   2.983   0.408  0.6559  0.6883  1.5303
10821TIP3    H253879   6.775   3.020   0.445  1.3262 -0.0406 -0.1895
10822TIP3   OH253880   6.161   3.605  17.123 -0.3883  0.1471  0.3420
10822TIP3    H153881   6.100   3.560  17.181 -1.7988  0.5991 -0.7417
10822TIP3    H253882   6.131   3.582  17.034  1.6332 -0.4442 -0.2517
10823TIP3   OH253883   6.665   5.047  13.177 -0.2006  0.4314  0.5497
10823TIP3    H153884   6.649   4.992  13.100 -2.2489 -0.8826  1.8173
10823TIP3    H253885   6.655   4.987  13.251  0.5105  1.9145  1.8960
10824TIP3   OH253886   0.497   1.453  10.305  0.6839  0.3635 -0.1262
10824TIP3    H153887   0.579   1.412  10.276 -0.2038 -0.9873 -0.8091
10824TIP3    H253888   0.499   1.444  10.401  0.1887 -1.9918 -0.2885
10825TIP3   OH253889   3.157   1.842  16.992 -0.6102  0.4219 -0.0109
10825TIP3    H153890   3.148   1.798  16.908  0.9514 -0.9247  0.4749
10825TIP3    H253891   3.078   1.819  17.040 -1.1971  0.6478 -0.8458
10826TIP3   OH253892   1.234   6.533   4.641  0.5299  0.8536 -0.3454
10826TIP3    H153893   1.201   6.516   4.729 -0.1746  0.2132 -0.7232
10826TIP3    H253894   1.247   6.628   4.638  2.6331  0.6934  1.1491
10827TIP3   OH253895   0.491   1.819   3.680 -0.0380  0.0437  0.2316
10827TIP3    H153896   0.542   1.770   3.615  2.4913 -0.7622  2.6045
10827TIP3    H253897   0.429   1.754   3.715  1.8588 -0.9809  1.8716
10828TIP3   OH253898   4.134   4.574  16.069 -0.1431  0.9747 -0.6674
10828TIP3    H153899   4.195   4.537  16.132  0.1746  2.1949 -0.2247
10828TIP3    H253900   4.171   4.550  15.983  0.2117  0.5360 -0.3951
10829TIP3   OH253901   4.257   4.249  16.914 -0.2134  0.0062 -0.2486
10829TIP3    H153902   4.198   4.297  16.972 -0.4661  0.3067 -0.7527
10829TIP3    H253903   4.342   4.292  16.926  0.2656 -1.2759  1.5113
10830TIP3   OH253904   3.438   0.846  16.983  0.2776  1.0031  0.1105
10830TIP3    H153905   3.351   0.807  16.979  0.2890  0.6966  1.8955
10830TIP3    H253906   3.423   0.934  17.020  0.4738  1.9874 -2.0089
10831TIP3   OH253907   5.267   4.734  15.398 -0.2914  1.0852 -0.6290
10831TIP3    H153908   5.297   4.672  15.465 -0.2075 -0.3145 -1.9136
10831TIP3    H253909   5.173   4.740  15.411 -1.2029 -2.9725 -3.2154
10832TIP3   OH253910   2.799   2.640  11.188  0.3752  0.0361 -0.2011
10832TIP3    H153911   2.873   2.608  11.137  0.4751  1.2869 -0.8769
10832TIP3    H253912   2.734   2.569  11.184  0.1823  0.2951 -2.4884
10833TIP3   OH253913   2.475   1.249   3.518  0.0434 -0.7240 -0.1001
10833TIP3    H153914   2.513   1.304   3.450  1.9851 -2.2423 -0.3308
10833TIP3    H253915   2.475   1.305   3.596  1.9523 -0.3412 -0.3296
10834TIP3   OH253916   6.603   6.673   5.428  0.1821  0.1561 -0.1608
10834TIP3    H153917   6.680   6.676   5.372 -0.7845  1.4230 -1.4985
10834TIP3    H253918   6.637   6.676   5.517  1.7431 -1.5365 -0.6507
10835TIP3   OH253919   6.120   2.356  14.470  0.6415  0.2867  1.0190
10835TIP3    H153920   6.028   2.331  14.475  0.5884  0.5675  1.5408
10835TIP3    H253921   6.152   2.316  14.389  0.5918 -1.6016  1.8767
10836TIP3   OH253922   3.013   4.488  16.841 -0.0620  0.0308 -0.0577
10836TIP3    H153923   3.055   4.539  16.772  2.5229  0.6178  1.7762
10836TIP3    H253924   2.992   4.553  16.909  0.8026 -0.9386  1.1846
10837TIP3   OH253925   0.264   5.605  11.693 -0.3242 -0.3145 -0.0441
10837TIP3    H153926   0.341   5.596  11.750 -1.3708  1.1750  1.7039
10837TIP3    H253927   0.293   5.665  11.624  0.0682  0.3213  0.6562
10838TIP3   OH253928   4.203   0.137   3.497  0.6766  0.0221 -0.1524
10838TIP3    H153929   4.264   0.064   3.499  0.2320 -0.3446  0.7037
10838TIP3    H253930   4.130   0.107   3.443 -0.7378 -1.2334  2.2634
10839TIP3   OH253931   0.350   6.443   4.761  0.1525  0.3378 -0.3835
10839TIP3    H153932   0.298   6.429   4.682 -0.5395  1.8331 -0.2304
10839TIP3    H253933   0.441   6.439   4.730 -0.0696 -0.6492 -0.9525
10840TIP3   OH253934   3.084   2.247   5.564  0.1540  0.0568 -0.3910
10840TIP3    H153935   3.006   2.256   5.619  0.7049 -2.5137  0.9974
10840TIP3    H253936   3.154   2.289   5.614 -0.0414  0.9827 -0.8933
10841TIP3   OH253937   2.025   6.248  12.762  0.6056 -0.2962  0.2587
10841TIP3    H153938   2.051   6.233  12.671 -0.8033 -2.2426  0.1170
10841TIP3    H253939   1.948   6.305  12.756 -0.3208 -1.5208  0.0970
10842TIP3   OH253940   5.544   2.335  14.973 -0.5106 -0.2588  0.4018
10842TIP3    H153941   5.580   2.247  14.963 -0.8748 -0.3200 -0.4072
10842TIP3    H253942   5.584   2.386  14.902 -2.2032 -0.4003 -0.7052
10843TIP3   OH253943   1.467   1.409  13.876 -0.0459  0.0087 -0.0848
10843TIP3    H153944   1.518   1.397  13.796  0.4059 -1.8741  0.4295
10843TIP3    H253945   1.509   1.482  13.921  0.9842 -0.2309 -0.6197
10844TIP3   OH253946   0.588   0.169   4.543  0.0684 -0.1542  0.2289
10844TIP3    H153947   0.634   0.113   4.606 -0.5817 -0.4781  0.4336
10844TIP3    H253948   0.504   0.187   4.585  0.2990  1.0459  0.1870
10845TIP3   OH253949   1.682   2.558  15.384 -0.6417  0.2372  0.1217
10845TIP3    H153950   1.648   2.634  15.430 -4.0915 -0.1882 -1.4375
10845TIP3    H253951   1.710   2.592  15.298  3.3223  0.5743  1.3192
10846TIP3   OH253952   3.626   4.873   3.988  0.0574 -0.3524 -0.0878
10846TIP3    H153953   3.556   4.936   4.005  0.2660 -0.6983  2.6576
10846TIP3    H253954   3.581   4.795   3.956 -0.7039 -0.1482  0.4502
10847TIP3   OH253955   0.799   1.005   0.031  0.1416 -0.1647 -0.1788
10847TIP3    H153956   0.798   1.017  -0.064 -2.0378 -1.2930 -0.3445
10847TIP3    H253957   0.884   1.042   0.058  0.8382  0.1519 -2.5318
10848TIP3   OH253958   2.906   0.133  16.726  0.2111 -0.3871 -0.5923
10848TIP3    H153959   2.842   0.073  16.686 -1.6783  1.7690 -1.0216
10848TIP3    H253960   2.944   0.179  16.652  0.7889 -0.2423 -0.2062
10849TIP3   OH253961   0.359   5.974   5.347 -0.5222  0.1192 -0.7591
10849TIP3    H153962   0.372   6.021   5.429 -2.0864 -0.7286  0.0319
10849TIP3    H253963   0.387   6.034   5.279  2.6939  0.1440  0.4437
10850TIP3   OH253964   5.910   3.397  12.539 -1.0694 -0.9141  0.0456
10850TIP3    H153965   5.830   3.345  12.539 -0.6626 -1.6282 -1.8767
10850TIP3    H253966   5.960   3.363  12.614 -1.1894 -2.7431 -0.6380
10851TIP3   OH253967   2.664   0.703   5.898  0.6211  0.1522  0.3252
10851TIP3    H153968   2.695   0.764   5.831  0.1698  1.3132  1.1360
10851TIP3    H253969   2.713   0.728   5.977  0.2722 -0.3907  0.7188
10852TIP3   OH253970   0.608   1.906  12.101  0.6258 -0.4185  0.4228
10852TIP3    H153971   0.640   1.852  12.029  0.6991  0.0262  0.1174
10852TIP3    H253972   0.684   1.918  12.158  0.8202  0.0200  0.0802
10853TIP3   OH253973   3.120   0.734   5.395 -0.0819 -0.1877 -0.5826
10853TIP3    H153974   3.144   0.807   5.452  2.8408 -1.1812 -0.3401
10853TIP3    H253975   3.131   0.767   5.306 -1.7077  0.4961 -0.5492
10854TIP3   OH253976   0.187   4.344   4.950  0.1806  0.0662 -0.0785
10854TIP3    H153977   0.097   4.313   4.953  1.0483 -2.6580  0.2558
10854TIP3    H253978   0.206   4.372   5.040 -0.8906  2.6689 -0.5744
10855TIP3   OH253979   5.644   3.369   5.924  0.2407 -0.0627  0.3690
10855TIP3    H153980   5.578   3.344   5.859  0.1312 -1.6214  1.0351
10855TIP3    H253981   5.701   3.292   5.931  0.1208 -0.0210  2.2594
10856TIP3   OH253982   1.811   4.939  16.504  0.2601 -0.3198 -0.3706
10856TIP3    H153983   1.896   4.904  16.475  0.2205 -1.2671  0.5862
10856TIP3    H253984   1.747   4.888  16.455  0.2216  1.0434 -1.8068
10857TIP3   OH253985   4.423   4.326  14.881 -0.2487  0.2675  0.2878
10857TIP3    H153986   4.479   4.300  14.954  0.1664  1.1807  0.2985
10857TIP3    H253987   4.334   4.325  14.918 -0.1741 -0.4678  0.4628
10858TIP3   OH253988   2.518   1.294   1.867 -0.0520  0.1264  0.0258
10858TIP3    H153989   2.435   1.272   1.824 -0.2044  0.5021  0.1209
10858TIP3    H253990   2.551   1.369   1.818  1.3597 -1.3630 -1.4508
10859TIP3   OH253991   6.140   0.628   1.289 -0.3303 -0.0115  0.7309
10859TIP3    H153992   6.132   0.551   1.233 -1.5191  1.5853 -1.4634
10859TIP3    H253993   6.050   0.658   1.302  0.1190  1.1245  1.3883
10860TIP3   OH253994   4.794   6.607  13.026 -0.0526 -0.3196  0.0824
10860TIP3    H153995   4.872   6.647  12.987 -0.6399  0.6358 -0.1366
10860TIP3    H253996   4.790   6.520  12.986  0.6915 -0.2397 -0.1842
10861TIP3   OH253997   3.850   0.157   1.087 -0.4677 -0.5394 -0.0594
10861TIP3    H153998   3.819   0.218   1.021 -0.8439 -1.3010 -0.6028
10861TIP3    H253999   3.770   0.120   1.125 -0.2492 -1.4729 -0.4853
10862TIP3   OH254000   6.272   0.482   3.975 -0.1391 -0.2170 -0.6889
10862TIP3    H154001   6.339   0.545   4.000 -0.4512  0.5078 -1.6534
10862TIP3    H254002   6.309   0.397   3.999 -0.1872  0.3749  1.7100
10863TIP3   OH254003   1.533   5.582   2.826  0.2854 -0.4314 -0.3023
10863TIP3    H154004   1.570   5.667   2.852  0.9065 -0.7039 -0.2757
10863TIP3    H254005   1.606   5.521   2.834 -0.4690 -1.2176  0.9340
10864TIP3   OH254006   4.534   3.473  12.272  0.0160 -0.5827  0.0336
10864TIP3    H154007   4.494   3.544  12.222  1.0754  0.2698  0.3433
10864TIP3    H254008   4.469   3.451  12.339 -0.0425  0.6156  0.3891
10865TIP3   OH254009   5.705   1.949   5.788 -0.1236 -0.2306 -0.2203
10865TIP3    H154010   5.788   1.928   5.744  1.0171  0.5660  1.4211
10865TIP3    H254011   5.685   1.872   5.840  0.4076  0.1210  0.5260
10866TIP3   OH254012   5.044   2.248  16.291  0.1301  0.5758 -0.0847
10866TIP3    H154013   5.003   2.209  16.368  0.0999  1.9309  0.6247
10866TIP3    H254014   5.037   2.181  16.223 -1.0035 -0.1650  0.7238
10867TIP3   OH254015   0.185   5.815   2.593 -0.4940  0.5052 -0.0191
10867TIP3    H154016   0.095   5.825   2.562 -0.0768  2.4472 -0.7466
10867TIP3    H254017   0.238   5.809   2.513  0.2823  2.4389  0.2691
10868TIP3   OH254018   6.630   3.395   5.893  0.4971  0.1760  0.3535
10868TIP3    H154019   6.655   3.350   5.974  0.1079 -1.6639 -0.4770
10868TIP3    H254020   6.711   3.398   5.841  0.3588 -0.2571  0.1089
10869TIP3   OH254021   4.137   0.156  13.930 -0.0742  0.0918  0.1316
10869TIP3    H154022   4.042   0.164  13.938 -0.1111  0.7496 -0.7215
10869TIP3    H254023   4.170   0.239  13.965  0.3644 -1.0555  2.6422
10870TIP3   OH254024   6.005   4.057  15.719  0.0078 -0.1962  0.6750
10870TIP3    H154025   5.964   3.979  15.757  0.7175 -1.2297 -0.6090
10870TIP3    H254026   6.049   4.099  15.793 -0.4830 -0.9395  1.4108
10871TIP3   OH254027   0.102   5.604   2.960  0.0121  0.3615 -0.6645
10871TIP3    H154028   0.161   5.609   2.885 -0.4812 -1.6904 -1.2551
10871TIP3    H254029   0.035   5.541   2.933 -2.3231  2.3630  0.0796
10872TIP3   OH254030   4.439   2.915  11.988 -0.2386  0.7468  0.4411
10872TIP3    H154031   4.434   2.989  12.048  1.2934  1.9466 -0.7983
10872TIP3    H254032   4.397   2.947  11.908  0.1639  0.1733 -0.0039
10873TIP3   OH254033   6.102   5.483   0.260  0.1405  0.5256 -0.1039
10873TIP3    H154034   6.008   5.499   0.259  0.1743  0.7568 -1.0449
10873TIP3    H254035   6.140   5.571   0.268  0.2866  0.7309 -2.3049
10874TIP3   OH254036   3.143   4.929  13.567 -0.2943  0.1341  0.9341
10874TIP3    H154037   3.100   5.013  13.587  0.6549  0.9218 -0.1761
10874TIP3    H254038   3.123   4.914  13.474  1.9975  0.6750  0.3041
10875TIP3   OH254039   3.708   1.317  10.599 -0.1609 -0.4320 -1.2506
10875TIP3    H154040   3.704   1.409  10.572 -1.3177 -0.7845 -2.3872
10875TIP3    H254041   3.768   1.316  10.673 -0.9250  1.3960 -0.5579
10876TIP3   OH254042   6.374   4.745   4.718  0.4297  0.2717  0.1386
10876TIP3    H154043   6.344   4.673   4.775 -0.3859  0.6318  0.1855
10876TIP3    H254044   6.368   4.823   4.773  0.8590  0.4414 -0.0554
10877TIP3   OH254045   6.536   4.427   0.240  0.1033  0.1404  0.3788
10877TIP3    H154046   6.508   4.516   0.220 -0.4779 -0.2093 -0.4316
10877TIP3    H254047   6.543   4.384   0.154 -0.0453 -0.7172  0.7815
10878TIP3   OH254048   5.257   4.869  15.957  0.5476 -0.3960  0.5218
10878TIP3    H154049   5.313   4.945  15.975 -0.6668  0.1144  2.4464
10878TIP3    H254050   5.295   4.798  16.009  1.1167 -0.8764 -0.5216
10879TIP3   OH254051   6.555   1.196   4.883  0.0750 -0.1388 -0.3738
10879TIP3    H154052   6.607   1.244   4.818 -0.5441  1.1187  0.0177
10879TIP3    H254053   6.566   1.246   4.964 -0.6559 -0.6211  0.0350
10880TIP3   OH254054   5.408   1.675  16.422 -0.3385  0.2333 -0.2095
10880TIP3    H154055   5.358   1.621  16.483 -2.2854  1.3047 -0.7614
10880TIP3    H254056   5.467   1.614  16.378  1.0426 -0.5967  2.5810
10881TIP3   OH254057   2.009   1.357  15.845  0.1230  0.1716 -0.7030
10881TIP3    H154058   2.055   1.306  15.911  1.6721  1.6180 -0.6073
10881TIP3    H254059   2.062   1.349  15.766 -0.6871  0.0283 -1.2484
10882TIP3   OH254060   4.170   5.677  15.784  0.3282  0.3317  0.2402
10882TIP3    H154061   4.192   5.755  15.732 -0.5031  2.9058  3.4050
10882TIP3    H254062   4.233   5.678  15.856 -0.8723 -0.8278  1.3541
10883TIP3   OH254063   0.299   0.930  12.938  0.2093  0.0464  0.1139
10883TIP3    H154064   0.221   0.898  12.893  0.5835 -0.4982 -0.1583
10883TIP3    H254065   0.369   0.874  12.907  1.2555  2.2120 -1.7806
10884TIP3   OH254066   1.535   0.467  11.860  0.0706 -0.0631 -0.6145
10884TIP3    H154067   1.608   0.443  11.804  0.1771 -1.3136  0.0236
10884TIP3    H254068   1.502   0.548  11.823  2.4236  1.1143 -0.3062
10885TIP3   OH254069   5.055   0.795   5.823  0.2179 -0.3239 -0.1727
10885TIP3    H154070   5.078   0.703   5.807  1.8988 -0.1782  1.0933
10885TIP3    H254071   4.993   0.792   5.896 -0.6742 -0.4861 -0.9116
10886TIP3   OH254072   0.740   0.958   3.115 -0.1606 -0.2244  0.3751
10886TIP3    H154073   0.661   0.909   3.136  0.6550 -1.6921  0.1689
10886TIP3    H254074   0.780   0.977   3.199  0.1230 -0.9718  0.4148
10887TIP3   OH254075   5.106   0.226   4.832 -0.5625 -0.2083 -0.4334
10887TIP3    H154076   5.102   0.131   4.825 -0.2103 -0.2918  0.3652
10887TIP3    H254077   5.025   0.251   4.877 -0.5038 -0.1645 -0.3505
10888TIP3   OH254078   5.843   5.943  14.316 -0.3531  0.7120  0.4408
10888TIP3    H154079   5.899   6.009  14.358  2.9772 -0.9719 -0.9523
10888TIP3    H254080   5.792   5.992  14.252  1.9136  2.0606 -0.4584
10889TIP3   OH254081   6.250   1.239   3.289  0.1301  0.1197 -0.8474
10889TIP3    H154082   6.219   1.217   3.201 -0.8647 -0.7713 -0.2880
10889TIP3    H254083   6.219   1.329   3.303 -2.2693 -0.7229 -0.3214
10890TIP3   OH254084   2.840   0.814  11.761 -0.2699  0.2908 -0.1647
10890TIP3    H154085   2.849   0.832  11.854  1.3364 -0.0208 -0.2348
10890TIP3    H254086   2.752   0.778  11.752 -0.7110  1.0037  1.1116
10891TIP3   OH254087   1.765   3.779   2.893  0.2375 -0.1772 -0.1643
10891TIP3    H154088   1.700   3.838   2.932 -0.4607 -0.3059 -1.0789
10891TIP3    H254089   1.810   3.740   2.968  1.5362  2.3674  0.4720
10892TIP3   OH254090   6.274   5.101   6.057  0.0863  0.6864  0.1154
10892TIP3    H154091   6.180   5.081   6.062  0.0844  0.5594 -0.3425
10892TIP3    H254092   6.294   5.144   6.140  0.4687 -2.7613  2.0389
10893TIP3   OH254093   1.114   1.347   3.999 -0.0888 -0.0453  0.2049
10893TIP3    H154094   1.204   1.363   4.029  0.7529 -0.6579 -1.8350
10893TIP3    H254095   1.124   1.295   3.919 -2.3158 -0.9840  0.4587
10894TIP3   OH254096   3.125   1.878   5.610 -0.7946  0.6487 -0.1140
10894TIP3    H154097   3.125   1.791   5.650 -0.6736  0.9492  0.5535
10894TIP3    H254098   3.218   1.900   5.602 -0.7996  0.3621 -1.0839
10895TIP3   OH254099   0.983   4.810  10.556  0.7678  0.3529 -0.1586
10895TIP3    H154100   0.919   4.752  10.514  0.4888  1.6788 -1.6688
10895TIP3    H254101   0.937   4.894  10.566  1.9074  1.0098 -0.2480
10896TIP3   OH254102   3.728   5.537  15.334 -0.1509 -0.5508  0.2716
10896TIP3    H154103   3.675   5.544  15.254 -1.4631 -0.4108  1.1213
10896TIP3    H254104   3.687   5.598  15.395 -0.7939 -2.5155  1.8999
10897TIP3   OH254105   1.320   1.623   5.125 -0.4548  0.3235  0.1071
10897TIP3    H154106   1.306   1.555   5.191 -0.8267  0.6539  0.3739
10897TIP3    H254107   1.301   1.704   5.170 -0.2599  0.5892 -0.2834
10898TIP3   OH254108   2.702   1.699   5.086  0.2679  0.8162 -0.5448
10898TIP3    H154109   2.667   1.673   5.001 -1.6199  2.4240 -0.3648
10898TIP3    H254110   2.758   1.627   5.113  2.0138  0.8048 -3.6985
10899TIP3   OH254111   6.368   4.808   5.479  0.3812 -0.5765 -0.5089
10899TIP3    H154112   6.387   4.727   5.432 -0.6355 -0.4632 -1.1602
10899TIP3    H254113   6.275   4.823   5.464  0.4934  0.5729 -0.1852
10900TIP3   OH254114   6.680   1.091  12.159 -0.3625  0.0897 -0.6484
10900TIP3    H154115   6.623   1.021  12.192  0.4970 -0.1009  0.4829
10900TIP3    H254116   6.715   1.057  12.077  0.5362 -1.0960  0.1980
10901TIP3   OH254117   3.625   4.748   5.868 -0.3633  0.3885  0.2390
10901TIP3    H154118   3.605   4.833   5.907 -0.8210  0.2726  0.2687
10901TIP3    H254119   3.573   4.686   5.919  0.0522  0.0778  0.2891
10902TIP3   OH254120   5.129   1.654  16.301 -0.6278  0.1855 -0.0002
10902TIP3    H154121   5.218   1.634  16.272 -1.1793 -0.9039 -0.9856
10902TIP3    H254122   5.139   1.733  16.355  0.7615  0.7701 -1.0650
10903TIP3   OH254123   0.252   3.806   5.471  0.0621 -0.0260  0.2998
10903TIP3    H154124   0.189   3.838   5.535 -0.2016 -1.9504  1.0718
10903TIP3    H254125   0.307   3.882   5.451 -1.2054  1.1621  1.1511
10904TIP3   OH254126   4.348   1.951  14.627  0.3809 -0.2664 -0.2955
10904TIP3    H154127   4.422   1.947  14.688 -0.3484  0.1767  0.6573
10904TIP3    H254128   4.273   1.926  14.680 -1.0730  4.4925  0.3674
10905TIP3   OH254129   0.415   0.007   5.533 -0.4416  0.1554  0.3894
10905TIP3    H154130   0.388   0.074   5.470 -0.3833 -0.4145 -0.2532
10905TIP3    H254131   0.506  -0.013   5.508 -0.9285 -1.2289 -0.3891
10906TIP3   OH254132   4.654   6.650   4.401 -0.2371  0.1921  0.6185
10906TIP3    H154133   4.748   6.639   4.387 -0.2964  0.1698  0.2203
10906TIP3    H254134   4.641   6.744   4.408 -0.3992  0.3260 -0.9891
10907TIP3   OH254135   6.482   3.611   5.936  0.3366  0.2714  0.0325
10907TIP3    H154136   6.494   3.517   5.920 -1.0554  0.0018  0.4752
10907TIP3    H254137   6.561   3.637   5.983 -0.9443 -1.5699  3.5261
10908TIP3   OH254138   5.991   2.251  12.738  0.0201  0.3350 -0.4037
10908TIP3    H154139   5.999   2.259  12.643 -0.1868  1.7397 -0.3240
10908TIP3    H254140   6.064   2.195  12.764 -0.1865 -0.4271 -1.4302
10909TIP3   OH254141   6.739   2.090   3.062  0.1246 -0.2873 -0.5948
10909TIP3    H154142   6.750   2.166   3.005  1.0376 -1.4151 -2.0042
10909TIP3    H254143   6.724   2.127   3.148 -0.3204  1.4932 -1.3856
10910TIP3   OH254144   0.205   2.989   0.642 -0.5352 -0.0030 -0.2928
10910TIP3    H154145   0.221   3.009   0.550 -0.5035  0.4769 -0.1878
10910TIP3    H254146   0.114   3.015   0.657 -0.5272 -0.0406 -0.1776
10911TIP3   OH254147   3.470   0.018   5.626  0.2059  0.4794 -0.3499
10911TIP3    H154148   3.454   0.018   5.721  0.2251  3.1944 -0.2747
10911TIP3    H254149   3.547   0.075   5.615  1.2665 -1.1424 -1.8922
10912TIP3   OH254150   0.398   4.823  15.237 -0.6738  0.3454  0.1709
10912TIP3    H154151   0.336   4.757  15.208  0.2072 -0.2124 -0.4988
10912TIP3    H254152   0.410   4.880  15.162  0.3931 -0.1625 -0.0689
10913TIP3   OH254153   3.917   2.364   2.030 -0.0806 -0.3203  1.0106
10913TIP3    H154154   3.830   2.404   2.032  0.8714  1.9006  0.4802
10913TIP3    H254155   3.969   2.417   2.089  1.1208 -1.1785  0.7552
10914TIP3   OH254156   6.162   1.060  16.548  0.2919 -0.1709  0.0465
10914TIP3    H154157   6.238   1.021  16.591  1.1277  0.7546 -0.5540
10914TIP3    H254158   6.198   1.111  16.475 -0.9853 -0.6660 -0.9893
10915TIP3   OH254159   6.180   1.617  15.029 -0.1593 -0.3516  0.2957
10915TIP3    H154160   6.091   1.641  15.054  0.3471  0.6324  1.2203
10915TIP3    H254161   6.215   1.570  15.104  0.0301 -0.9603 -0.1641
10916TIP3   OH254162   4.505   2.303   6.065  0.3131  0.0851  0.2691
10916TIP3    H154163   4.488   2.210   6.080  1.6783 -0.1301  0.5738
10916TIP3    H254164   4.584   2.321   6.115 -0.2500  1.5580  0.6670
10917TIP3   OH254165   0.069   0.460   2.406  0.6269 -0.3675  0.5160
10917TIP3    H154166  -0.001   0.492   2.463  1.6927 -0.4962  1.9522
10917TIP3    H254167   0.111   0.539   2.373  0.6155 -0.2831  0.6986
10918TIP3   OH254168   6.158   0.300   5.937  0.4818 -0.9289  0.0770
10918TIP3    H154169   6.084   0.358   5.919 -0.8450 -2.4050  0.5066
10918TIP3    H254170   6.194   0.279   5.851 -1.2865 -2.2575 -0.3869
10919TIP3   OH254171   4.609   5.991  15.698 -0.4677  0.3630  0.3880
10919TIP3    H154172   4.660   6.065  15.664  1.3850 -0.5828  0.9351
10919TIP3    H254173   4.528   6.030  15.729  0.3690  2.1485  0.4731
10920TIP3   OH254174   3.082   4.014  15.518  0.3955  0.9501 -0.4504
10920TIP3    H154175   3.170   3.977  15.531 -0.0905 -0.2897 -0.5950
10920TIP3    H254176   3.045   3.964  15.446 -0.7490  0.9010  0.1606
10921TIP3   OH254177   1.486   6.783  12.139  0.3428  0.0044 -0.1931
10921TIP3    H154178   1.524   6.706  12.097  0.7417 -0.0644  0.2925
10921TIP3    H254179   1.439   6.828  12.068  0.4549 -0.4605 -0.5672
10922TIP3   OH254180   3.771   0.953  17.190  0.6779  0.7044 -0.9383
10922TIP3    H154181   3.751   1.045  17.205  0.2711  0.4190  0.4131
10922TIP3    H254182   3.689   0.907  17.209  0.9607  0.0396 -1.2907
10923TIP3   OH254183   5.056   0.086  12.536 -0.2740 -0.0192 -0.0116
10923TIP3    H154184   5.075   0.024  12.607  0.9317  0.7860  0.3948
10923TIP3    H254185   5.142   0.107  12.499 -0.7480  0.7777 -0.6853
10924TIP3   OH254186   0.153   3.826   6.311  0.5760 -0.1604 -0.0469
10924TIP3    H154187   0.222   3.846   6.247  0.6202  3.4743  0.9111
10924TIP3    H254188   0.143   3.907   6.360 -2.2641 -1.5727  1.9259
10925TIP3   OH254189   3.826   2.032   3.821  0.4149 -0.0029 -0.5360
10925TIP3    H154190   3.812   2.112   3.771 -0.4979  0.5197  0.5038
10925TIP3    H254191   3.855   2.062   3.908  1.1001 -0.8482 -0.4547
10926TIP3   OH254192   0.198   2.432  14.028  0.5988 -0.0178 -0.5582
10926TIP3    H154193   0.268   2.373  14.058 -1.7823 -2.2708  1.0076
10926TIP3    H254194   0.195   2.417  13.933  0.3616 -2.2070 -0.2718
10927TIP3   OH254195   6.749   4.115   4.969 -0.2764 -0.1731  0.3862
10927TIP3    H154196   6.811   4.141   4.900 -1.9685 -0.1447 -1.1986
10927TIP3    H254197   6.800   4.058   5.026  1.1813 -0.2932 -0.9548
10928TIP3   OH254198   1.200   2.948   0.810  0.1737 -0.0617  0.0673
10928TIP3    H154199   1.256   2.889   0.759  0.1551  0.0591 -0.0924
10928TIP3    H254200   1.111   2.927   0.781  0.2403  0.8443 -0.8365
10929TIP3   OH254201   4.213   1.304   3.980 -0.0815 -0.1401  0.1169
10929TIP3    H154202   4.117   1.304   3.982 -0.0836 -0.3814 -0.0302
10929TIP3    H254203   4.237   1.397   3.987 -0.3378 -0.0309 -0.3752
10930TIP3   OH254204   1.254   3.168  13.352 -0.1356  0.3342 -0.2992
10930TIP3    H154205   1.215   3.173  13.440  0.0558  0.4989 -0.2216
10930TIP3    H254206   1.201   3.227  13.299 -1.3249 -1.0416 -0.7163
10931TIP3   OH254207   3.296   3.234   2.231 -0.1006 -0.0319  0.1308
10931TIP3    H154208   3.230   3.268   2.172  1.2282  0.4814 -1.1218
10931TIP3    H254209   3.344   3.169   2.179  0.2845 -0.5020  1.0439
10932TIP3   OH254210   4.482   4.986  12.899  0.2088  0.7093  0.6029
10932TIP3    H154211   4.532   4.938  12.964 -0.5275  0.0359  0.6939
10932TIP3    H254212   4.424   4.920  12.860 -0.8760  1.5303  0.7768
10933TIP3   OH254213   6.268   4.511   3.062  0.3021  0.6573  0.2679
10933TIP3    H154214   6.297   4.436   3.114  1.6301  0.4804 -0.6883
10933TIP3    H254215   6.323   4.509   2.984 -1.5412  1.0094 -1.0943
10934TIP3   OH254216   4.409   2.005   0.642 -0.3294 -0.0160 -0.7270
10934TIP3    H154217   4.411   2.004   0.546  2.8280  0.5296 -0.7756
10934TIP3    H254218   4.404   1.913   0.667 -2.5495 -0.1151 -1.3301
10935TIP3   OH254219   1.204   1.160  13.668 -0.7557 -0.7563  0.1590
10935TIP3    H154220   1.277   1.177  13.609 -0.2868  0.0037  0.9512
10935TIP3    H254221   1.147   1.101  13.618 -1.5469  1.6162 -2.0300
10936TIP3   OH254222   6.766   3.667   1.048  0.2169  0.3105  0.0776
10936TIP3    H154223   6.809   3.742   1.007  0.8301  0.3234  0.7258
10936TIP3    H254224   6.720   3.704   1.123 -0.6499  0.2409 -0.4047
10937TIP3   OH254225   5.952   5.069   5.676  0.2225  0.1142 -0.1065
10937TIP3    H154226   5.898   5.053   5.753  0.2904  0.1175 -0.0578
10937TIP3    H254227   5.990   5.156   5.690  0.4251  0.0155 -0.0306
10938TIP3   OH254228   3.932   1.879   2.227 -0.3299  0.0655  0.4108
10938TIP3    H154229   4.006   1.924   2.267  0.3807  0.1215 -0.9084
10938TIP3    H254230   3.858   1.898   2.285  0.7150 -0.2077  1.9054
10939TIP3   OH254231   0.174   4.386   1.162  0.5501 -0.4261 -0.1023
10939TIP3    H154232   0.241   4.428   1.107  0.2351  2.0257  1.2370
10939TIP3    H254233   0.222   4.357   1.239 -0.0311  2.8092  1.6212
10940TIP3   OH254234   5.490   1.364  16.549 -0.2820  0.3556  0.1179
10940TIP3    H154235   5.574   1.409  16.563  0.7573 -1.2891 -0.5293
10940TIP3    H254236   5.508   1.273  16.573 -1.1165 -0.5864 -2.5154
10941TIP3   OH254237   0.080   1.340   0.614 -0.1474 -0.2139  0.3623
10941TIP3    H154238   0.140   1.393   0.666  0.8088 -1.1156  0.2061
10941TIP3    H254239   0.111   1.350   0.524  0.1085 -1.1189  0.3473
10942TIP3   OH254240   3.659   4.022   2.416 -0.6210 -0.4439 -0.2343
10942TIP3    H154241   3.741   4.022   2.466 -0.3629  3.1446 -0.4186
10942TIP3    H254242   3.591   4.008   2.481 -0.0061 -3.7832 -0.1112
10943TIP3   OH254243   0.425   5.151   4.231  0.2310  0.6259 -0.0973
10943TIP3    H154244   0.383   5.199   4.159 -0.0349 -0.3516 -0.6156
10943TIP3    H254245   0.352   5.105   4.274  0.5179  0.4341  0.1855
10944TIP3   OH254246   2.650   2.354   1.610 -0.1988  1.1052 -0.1640
10944TIP3    H154247   2.618   2.273   1.650 -0.0633  0.3208 -1.5591
10944TIP3    H254248   2.708   2.393   1.675  0.2322 -0.2510  0.2902
10945TIP3   OH254249   0.835   5.900   2.618  0.4745 -0.7031  0.4395
10945TIP3    H154250   0.847   5.832   2.551  1.8205 -0.4799  0.4313
10945TIP3    H254251   0.876   5.864   2.696  0.1789 -0.3675  0.7502
10946TIP3   OH254252   1.369   6.307  14.281  0.0499  0.3796 -0.2442
10946TIP3    H154253   1.449   6.350  14.250  0.6581 -2.3879 -3.0177
10946TIP3    H254254   1.393   6.269  14.366  2.3677 -1.7547 -1.7170
10947TIP3   OH254255   2.395   3.668   3.948  0.1600 -0.2763  0.1655
10947TIP3    H154256   2.400   3.736   3.881 -0.6834 -2.8836 -2.8001
10947TIP3    H254257   2.303   3.644   3.950  0.6842 -2.5972 -0.3993
10948TIP3   OH254258   0.498   3.549  12.082 -0.2986 -0.4918  0.3267
10948TIP3    H154259   0.526   3.526  11.994 -0.6233 -0.6012  0.2514
10948TIP3    H254260   0.440   3.478  12.108 -0.0101 -0.5888  0.7267
10949TIP3   OH254261   3.498   6.748  16.669 -0.5088 -0.0780 -0.2588
10949TIP3    H154262   3.496   6.709  16.582 -0.2793 -2.5225  0.7476
10949TIP3    H254263   3.428   6.704  16.717 -0.6376  1.2182  0.8150
10950TIP3   OH254264   6.576   2.453  14.430 -0.3658  1.0766 -0.6428
10950TIP3    H154265   6.510   2.429  14.495  2.9691  0.0734  2.6543
10950TIP3    H254266   6.562   2.547  14.416 -2.1489  1.0026  0.2668
10951TIP3   OH254267   6.096   5.311   4.929 -0.2535  0.5227 -0.0924
10951TIP3    H154268   6.118   5.397   4.964  1.6393  0.0251  0.0516
10951TIP3    H254269   6.020   5.326   4.874  0.8094  2.5338 -1.1058
10952TIP3   OH254270   2.517   6.124  11.675 -0.2269 -0.4242  0.1610
10952TIP3    H154271   2.558   6.048  11.635 -1.2963 -0.9287  0.0092
10952TIP3    H254272   2.428   6.126  11.640  0.6368  2.7117 -2.3535
10953TIP3   OH254273   4.655   2.643  14.066 -0.3426  0.2382  0.1743
10953TIP3    H154274   4.567   2.653  14.102 -0.3450  1.0223 -0.0455
10953TIP3    H254275   4.652   2.559  14.019 -0.7114 -0.1611  0.9039
10954TIP3   OH254276   6.096   6.494  11.486 -0.2117 -0.1368  0.2971
10954TIP3    H154277   6.073   6.526  11.573  0.9824  1.1503  0.1733
10954TIP3    H254278   6.170   6.549  11.459 -0.1401 -0.9472 -1.2578
10955TIP3   OH254279   3.419   4.643   3.898 -0.2184  0.0026  0.2277
10955TIP3    H154280   3.331   4.679   3.911 -0.3074 -0.6540  1.5768
10955TIP3    H254281   3.444   4.609   3.983  1.7491  1.0049  0.1150
10956TIP3   OH254282   5.821   0.033  14.257  0.4085  0.5007 -0.2096
10956TIP3    H154283   5.847  -0.058  14.241  0.6188  0.6967 -1.0153
10956TIP3    H254284   5.820   0.073  14.170  0.1126  1.2170  0.1201
10957TIP3   OH254285   3.340   1.990   3.348  0.3631  0.0635 -0.2448
10957TIP3    H154286   3.432   2.018   3.351  0.6767 -0.8734 -0.6655
10957TIP3    H254287   3.344   1.901   3.313 -0.8441  0.6436 -1.9821
10958TIP3   OH254288   3.527   3.830  14.173 -1.0428  0.1873 -0.0264
10958TIP3    H154289   3.474   3.896  14.219 -1.2995  0.7818 -1.1259
10958TIP3    H254290   3.582   3.881  14.114 -0.6847 -0.5466 -0.3346
10959TIP3   OH254291   4.373   1.999  13.247  0.0455  0.1277 -0.5087
10959TIP3    H154292   4.320   2.019  13.324  0.1434  1.9546 -0.8683
10959TIP3    H254293   4.464   2.005  13.278  0.0840  0.8494 -0.7425
10960TIP3   OH254294   2.990   4.645   5.185  0.0043 -0.3139 -0.1040
10960TIP3    H154295   2.911   4.590   5.178  0.0951 -0.2689 -2.3753
10960TIP3    H254296   3.003   4.656   5.279 -3.1564  0.3321  0.3912
10961TIP3   OH254297   0.372   3.180   5.368 -0.2821  0.1149 -0.0382
10961TIP3    H154298   0.287   3.173   5.324 -0.6947  2.1248  0.3075
10961TIP3    H254299   0.432   3.129   5.313 -2.0109 -2.9780  0.7406
10962TIP3   OH254300   2.923   4.538  14.884 -0.2012 -0.2879 -0.3556
10962TIP3    H154301   2.980   4.590  14.827  1.7308  0.0240  1.7043
10962TIP3    H254302   2.905   4.458  14.834  1.1143  0.1262 -1.5528
10963TIP3   OH254303   6.167   6.795   4.984 -0.4780  0.2800  0.5386
10963TIP3    H154304   6.221   6.794   4.905  0.5232  2.7557  1.0897
10963TIP3    H254305   6.104   6.725   4.971 -1.4675  1.6541 -3.2553
10964TIP3   OH254306   1.226   3.848  12.291  0.2322  0.4878  0.0862
10964TIP3    H154307   1.139   3.867  12.326 -0.0371 -0.4156 -0.0694
10964TIP3    H254308   1.211   3.783  12.222  1.0627  0.0363  0.3080
10965TIP3   OH254309   2.075   5.487  13.752 -0.1225  0.0761 -0.7731
10965TIP3    H154310   2.163   5.449  13.763 -0.4286 -0.9036 -1.5153
10965TIP3    H254311   2.018   5.411  13.739 -1.0909  0.6998 -0.2677
10966TIP3   OH254312   1.539   0.243  14.610  0.3843 -0.2941 -0.3633
10966TIP3    H154313   1.475   0.201  14.552  0.1446 -0.6576  0.1627
10966TIP3    H254314   1.532   0.336  14.589  1.0914 -0.5127 -1.7221
10967TIP3   OH254315   5.329   2.654  13.523 -0.2979 -0.5792  0.4953
10967TIP3    H154316   5.240   2.661  13.488 -0.4159  0.7933  0.9845
10967TIP3    H254317   5.352   2.744  13.547 -0.2342 -1.3684  3.8955
10968TIP3   OH254318   4.524   4.400  15.330  0.2008  0.2484  0.1651
10968TIP3    H154319   4.483   4.472  15.282 -0.9255 -0.8387 -0.5655
10968TIP3    H254320   4.605   4.383  15.283 -1.3967 -1.5447 -2.2062
10969TIP3   OH254321   5.345   3.216   3.472 -0.0649 -0.2821 -0.3385
10969TIP3    H154322   5.342   3.156   3.398 -0.6380  0.1435 -0.6722
10969TIP3    H254323   5.315   3.163   3.547 -0.2016 -0.5127 -0.5548
10970TIP3   OH254324   5.390   6.070   5.904 -0.5078 -0.0914 -0.6685
10970TIP3    H154325   5.467   6.120   5.932 -1.1133  0.2202  0.4641
10970TIP3    H254326   5.319   6.101   5.959 -1.4071 -0.5573 -1.5333
10971TIP3   OH254327   1.827   1.222  13.745  0.0444 -0.2609  0.1668
10971TIP3    H154328   1.786   1.304  13.719 -1.0225 -0.5551  0.8890
10971TIP3    H254329   1.901   1.212  13.684  0.0878  1.1311 -0.0332
10972TIP3   OH254330   0.071   3.572   4.439  0.2914  0.5388  0.2943
10972TIP3    H154331   0.004   3.534   4.383  1.6710 -2.8954  0.7250
10972TIP3    H254332   0.133   3.615   4.379 -1.3700  2.3805 -0.2049
10973TIP3   OH254333   1.771   5.408   2.791  0.6115 -0.4838  0.6192
10973TIP3    H154334   1.809   5.475   2.734 -0.3181 -1.4355 -1.2117
10973TIP3    H254335   1.845   5.352   2.814  0.9464 -0.2964  0.0250
10974TIP3   OH254336   3.354   5.265   0.774  0.1397  0.1731 -0.2854
10974TIP3    H154337   3.269   5.222   0.761  0.1340  0.3352 -0.8174
10974TIP3    H254338   3.418   5.203   0.739  0.1798  0.3445 -0.5205
10975TIP3   OH254339   4.336   2.106  11.162  0.1180 -0.7341 -0.9053
10975TIP3    H154340   4.418   2.058  11.147  0.3418  0.0927 -2.4972
10975TIP3    H254341   4.326   2.162  11.085 -0.8278  0.7983  0.2754
10976TIP3   OH254342   3.793   1.882  17.189  0.2198  0.2065 -0.8590
10976TIP3    H154343   3.833   1.921  17.267 -1.0741 -0.1820  0.0229
10976TIP3    H254344   3.721   1.830  17.223  0.2416 -0.7690 -2.2511
10977TIP3   OH254345   0.785   2.957  11.640 -0.4455 -0.1609 -0.6816
10977TIP3    H154346   0.801   2.975  11.733 -2.5885  2.3575 -0.6739
10977TIP3    H254347   0.794   2.862  11.632  1.2241 -0.2894  1.7657
10978TIP3   OH254348   0.949   6.531  13.784 -0.2753  0.4505  0.2322
10978TIP3    H154349   0.893   6.588  13.836  2.0712  2.8895  0.2855
10978TIP3    H254350   0.965   6.455  13.841  0.1210  1.8344  2.0802
10979TIP3   OH254351   4.941   5.416  15.346  0.1080  0.1856  0.2118
10979TIP3    H154352   4.891   5.403  15.427 -0.5661 -2.2225 -0.5071
10979TIP3    H254353   5.012   5.351  15.351  0.5684  0.5972 -0.7375
10980TIP3   OH254354   2.166   2.489  16.917  0.0133 -0.3665 -0.4995
10980TIP3    H154355   2.251   2.467  16.878  1.0723 -0.4384  1.6527
10980TIP3    H254356   2.106   2.423  16.884  1.7112 -2.7913  0.9130
10981TIP3   OH254357   2.660   4.628   1.388 -0.2150  0.4014 -0.2169
10981TIP3    H154358   2.625   4.679   1.461 -0.2968 -0.4508  0.3617
10981TIP3    H254359   2.755   4.640   1.393 -0.1543 -0.3225  0.5591
10982TIP3   OH254360   4.989   6.138   4.519  0.0727 -0.0214 -0.9258
10982TIP3    H154361   5.055   6.102   4.578  0.8642  3.0140  0.2448
10982TIP3    H254362   5.000   6.089   4.437  1.8313 -1.5163  0.1362
10983TIP3   OH254363   4.433   2.586   0.982  0.1589  0.1002  0.1720
10983TIP3    H154364   4.502   2.532   0.942  0.9606  0.1329  1.4630
10983TIP3    H254365   4.464   2.676   0.972 -1.2652  0.4245 -2.1468
10984TIP3   OH254366   0.421   4.232   4.921  0.0109 -0.1888  0.0949
10984TIP3    H154367   0.325   4.235   4.919 -0.0208  0.9963  1.7550
10984TIP3    H254368   0.442   4.139   4.912 -1.3359 -0.5628  0.5789
10985TIP3   OH254369   1.836   1.902   0.188  0.3039 -0.3507  0.4885
10985TIP3    H154370   1.806   1.993   0.181 -0.0320 -0.4377  0.7882
10985TIP3    H254371   1.791   1.857   0.118 -1.3692 -0.7703  1.7846
10986TIP3   OH254372   2.203   2.701  16.737 -0.5224  0.2833 -1.0717
10986TIP3    H154373   2.206   2.624  16.681 -1.8100 -0.9410  0.4660
10986TIP3    H254374   2.157   2.672  16.816  1.7338  1.7477  0.9228
10987TIP3   OH254375   2.542   0.529  15.893  0.6225 -0.4270 -0.0073
10987TIP3    H154376   2.516   0.445  15.930  0.1345 -0.3275 -0.1154
10987TIP3    H254377   2.632   0.515  15.862  0.3525 -1.0636 -0.5127
10988TIP3   OH254378   5.971   1.155   1.320  0.5780 -0.4445  0.0765
10988TIP3    H154379   5.894   1.135   1.373  1.1793 -1.0523  0.7481
10988TIP3    H254380   6.032   1.197   1.381  1.1771 -0.9155 -0.1819
10989TIP3   OH254381   1.731   2.575   2.301 -0.2355 -0.6563  0.0081
10989TIP3    H154382   1.713   2.497   2.248 -0.9744 -0.3654 -0.1820
10989TIP3    H254383   1.826   2.585   2.298 -0.2783 -0.5225 -1.4473
10990TIP3   OH254384   3.283   0.072   1.097  0.4258  0.5365  0.1982
10990TIP3    H154385   3.232   0.008   1.048  1.2201  1.0651 -1.3917
10990TIP3    H254386   3.243   0.073   1.184 -1.4160 -0.0256 -0.5877
10991TIP3   OH254387   1.099   6.689  12.675 -0.6165  0.7296  0.2293
10991TIP3    H154388   1.022   6.690  12.733 -0.9096  0.9302 -0.1628
10991TIP3    H254389   1.101   6.600  12.639 -0.1189  0.4305  0.9549
10992TIP3   OH254390   4.855   2.437  10.554  0.2360 -0.1228  0.0763
10992TIP3    H154391   4.912   2.377  10.506  1.4347  0.7409  0.3915
10992TIP3    H254392   4.827   2.502  10.490 -0.6860 -0.7230 -0.1540
10993TIP3   OH254393   6.506   5.649   2.215  0.3586  0.1406  0.3884
10993TIP3    H154394   6.514   5.689   2.128 -2.5257  1.8040  0.7476
10993TIP3    H254395   6.560   5.704   2.271 -0.8131  1.4521  0.2691
10994TIP3   OH254396   4.571   2.049   3.325 -0.0267  0.0924  0.2158
10994TIP3    H154397   4.497   2.095   3.365 -0.5588  0.4535 -1.1106
10994TIP3    H254398   4.545   1.957   3.324 -2.0068  0.5331 -3.1850
10995TIP3   OH254399   5.784   5.285  11.176 -0.2663 -0.2624 -0.2309
10995TIP3    H154400   5.720   5.324  11.116 -0.0911 -1.7727 -1.4555
10995TIP3    H254401   5.778   5.191  11.160  1.1527 -0.5581  0.7663
10996TIP3   OH254402   0.785   2.723  12.754 -0.4181 -0.7138  0.0942
10996TIP3    H154403   0.781   2.818  12.745  1.1786 -0.6467 -0.0927
10996TIP3    H254404   0.770   2.689  12.666 -0.2147 -0.6094  0.0202
10997TIP3   OH254405   3.189   2.241  13.370 -0.7556  0.0430  0.1284
10997TIP3    H154406   3.163   2.301  13.440  0.2365  0.6369  0.0045
10997TIP3    H254407   3.197   2.156  13.412  1.8155  0.7498  1.2135
10998TIP3   OH254408   6.553   2.012   4.990 -0.4880 -0.3662  0.2283
10998TIP3    H154409   6.478   2.058   5.027 -0.2579 -0.2752  0.5828
10998TIP3    H254410   6.515   1.952   4.926 -1.0058 -1.3432  1.4031
10999TIP3   OH254411   3.560   0.796  16.054 -0.0912 -0.1121 -0.3521
10999TIP3    H154412   3.577   0.734  15.984 -1.1328 -2.2802  1.1983
10999TIP3    H254413   3.607   0.760  16.130 -2.5167 -0.2839  1.1563
11000TIP3   OH254414   0.160   6.478   1.170  0.3698 -0.9000  0.3280
11000TIP3    H154415   0.245   6.464   1.129  0.9064  0.3459  0.9558
11000TIP3    H254416   0.125   6.557   1.129  0.3149 -0.4070  1.2718
11001TIP3   OH254417   6.655   4.209   4.233 -0.6118 -0.1516 -0.8337
11001TIP3    H154418   6.747   4.237   4.230 -0.3883 -0.5018  1.2563
11001TIP3    H254419   6.605   4.289   4.217  0.0422  0.0936 -1.7454
11002TIP3   OH254420   4.997   2.733   1.189  0.7005 -0.1942  0.1460
11002TIP3    H154421   5.023   2.761   1.277 -1.4646  1.4709  0.3368
11002TIP3    H254422   4.953   2.649   1.203  0.8409 -0.2012  0.5680
11003TIP3   OH254423   1.827   0.412  14.391  0.2872  0.5060 -0.3231
11003TIP3    H154424   1.851   0.475  14.323 -0.5123 -1.1078 -2.1875
11003TIP3    H254425   1.743   0.443  14.424  0.8486  1.4953  0.2292
11004TIP3   OH254426   3.451   3.354  16.950 -0.2910  0.5240  0.1365
11004TIP3    H154427   3.533   3.348  16.901  0.1351 -1.0291  0.9682
11004TIP3    H254428   3.417   3.264  16.951 -0.5628  0.6037  2.1499
11005TIP3   OH254429   0.538   1.942  16.346 -0.4005  0.4264 -0.1049
11005TIP3    H154430   0.490   2.010  16.298 -0.9106  1.0290  1.1963
11005TIP3    H254431   0.607   1.990  16.393  0.0159 -0.1270 -0.1401
11006TIP3   OH254432   5.953   4.839  12.528  0.0519 -0.0159  0.2395
11006TIP3    H154433   5.859   4.856  12.524  0.2535  1.5961  1.5175
11006TIP3    H254434   5.965   4.791  12.610  0.4512  0.6146  0.5531
11007TIP3   OH254435   5.313   3.214   4.169  0.1654 -0.2318 -0.4265
11007TIP3    H154436   5.408   3.225   4.172  0.2095 -0.5971 -0.4851
11007TIP3    H254437   5.299   3.122   4.150 -0.1925 -0.0083 -1.3228
11008TIP3   OH254438   0.782   6.172   4.974 -0.0380  0.0899  0.3501
11008TIP3    H154439   0.808   6.130   5.056 -1.8340 -1.0486  0.4062
11008TIP3    H254440   0.759   6.100   4.916  0.1917  0.9137 -0.7996
11009TIP3   OH254441   6.546   3.886   0.221 -0.0190  0.3011  0.4214
11009TIP3    H154442   6.480   3.954   0.234 -1.4712 -1.3090  2.0480
11009TIP3    H254443   6.518   3.840   0.142  0.1296  0.6720  0.1514
11010TIP3   OH254444   3.074   4.690  14.409  0.0573 -0.4296  0.4428
11010TIP3    H154445   3.048   4.738  14.331  0.6038 -0.3701  0.2972
11010TIP3    H254446   3.010   4.715  14.476  0.5725  0.8167  0.4874
11011TIP3   OH254447   0.013   5.949   0.985  0.0593  0.4719  0.1203
11011TIP3    H154448   0.005   6.044   0.971 -0.5751  0.5421  0.9015
11011TIP3    H254449  -0.067   5.925   1.032 -0.0248 -0.5473 -0.5197
11012TIP3   OH254450   2.546   2.770   2.655 -0.7580  0.3459 -0.6855
11012TIP3    H154451   2.510   2.859   2.651 -1.5738  0.0145 -0.8662
11012TIP3    H254452   2.476   2.714   2.622 -0.4455 -0.4223 -0.0745
11013TIP3   OH254453   3.387   2.217  14.492  0.2824  0.2142 -0.4094
11013TIP3    H154454   3.332   2.181  14.561  0.6827 -1.4526 -0.9177
11013TIP3    H254455   3.433   2.142  14.455  0.1660  1.0534 -2.4373
11014TIP3   OH254456   5.101   2.652  13.383  0.1929  0.4776  0.0766
11014TIP3    H154457   5.100   2.729  13.326  0.3555  0.9166  0.6498
11014TIP3    H254458   5.067   2.581  13.329 -0.8359  1.1438 -0.1857
11015TIP3   OH254459   6.146   6.425  13.902  0.3684 -0.2424 -0.1305
11015TIP3    H154460   6.068   6.440  13.849  2.2301 -0.4807 -3.2012
11015TIP3    H254461   6.172   6.512  13.933 -0.8043 -0.1081  0.5154
11016TIP3   OH254462   6.489   4.387   3.685  0.0719 -0.1706 -0.7380
11016TIP3    H154463   6.442   4.359   3.607 -0.8715  1.9776 -0.9970
11016TIP3    H254464   6.479   4.482   3.687 -1.2732 -0.2301  2.7972
11017TIP3   OH254465   5.038   0.386   0.790  0.4511  0.1512 -0.7144
11017TIP3    H154466   5.111   0.448   0.791  0.9123 -0.3615  1.5817
11017TIP3    H254467   5.079   0.301   0.774 -0.1366  0.2798 -3.4264
11018TIP3   OH254468   3.928   1.314   3.979 -0.2487 -0.0136  0.1911
11018TIP3    H154469   3.922   1.219   3.989 -0.6217 -0.0732 -0.5050
11018TIP3    H254470   3.856   1.336   3.919 -0.3547  0.7473  0.5913
11019TIP3   OH254471   2.372   4.325   1.415 -0.0562  0.1015 -0.4848
11019TIP3    H154472   2.460   4.332   1.452 -0.9881 -1.5160  2.3220
11019TIP3    H254473   2.364   4.234   1.386 -1.8864 -0.8624  2.6445
11020TIP3   OH254474   6.475   2.659  12.527  0.7030 -0.2896  0.0561
11020TIP3    H154475   6.491   2.674  12.620 -1.5568  0.9114  0.3405
11020TIP3    H254476   6.441   2.570  12.522  0.0665 -0.0788  0.5109
11021TIP3   OH254477   4.787   2.137   3.482  0.1008 -0.1042 -0.3682
11021TIP3    H154478   4.703   2.128   3.437  0.6797 -0.9312 -1.3210
11021TIP3    H254479   4.771   2.203   3.550 -1.0128  0.5895 -1.2735
11022TIP3   OH254480   2.145   0.825  15.028  0.2440  0.2866 -0.4521
11022TIP3    H154481   2.140   0.844  15.122 -0.2210 -1.1326 -0.1758
11022TIP3    H254482   2.215   0.882  14.996 -1.6029  3.0596  0.1418
11023TIP3   OH254483   6.166   2.403   5.786 -0.0993 -0.1653 -0.4205
11023TIP3    H154484   6.088   2.459   5.785  1.2091  1.7814 -0.6584
11023TIP3    H254485   6.149   2.337   5.719 -0.6935  1.5129 -2.0175
11024TIP3   OH254486   6.417   0.887   2.244 -0.4065 -0.0734  0.2595
11024TIP3    H154487   6.474   0.952   2.203 -1.6905  0.3703 -0.9228
11024TIP3    H254488   6.475   0.833   2.297  1.0589  0.4851 -0.7223
11025TIP3   OH254489   3.614   0.621  15.831  0.2798  0.6504 -0.0739
11025TIP3    H154490   3.669   0.693  15.799 -0.5953  0.5686 -1.8581
11025TIP3    H254491   3.643   0.545  15.782 -1.1175  0.5166 -0.7440
11026TIP3   OH254492   1.936   1.338   2.775 -0.3892  0.1853  0.1982
11026TIP3    H154493   1.996   1.264   2.760 -1.4115 -0.3596 -1.5200
11026TIP3    H254494   1.955   1.366   2.864 -0.3928 -2.5655  1.1818
11027TIP3   OH254495   4.832   2.447   6.497  0.2489 -0.2252 -0.0862
11027TIP3    H154496   4.884   2.455   6.417  0.2550  0.8956  0.0121
11027TIP3    H254497   4.873   2.374   6.544  1.2224  0.0959 -0.3969
11028TIP3   OH254498   2.307   3.347  13.432 -0.5133  0.2549  0.0821
11028TIP3    H154499   2.212   3.357  13.421 -0.2841  1.1459 -1.2708
11028TIP3    H254500   2.342   3.434  13.411  0.7211 -0.4668 -0.9297
11029TIP3   OH254501   2.420   1.757  12.044 -0.0523  0.1296 -0.5258
11029TIP3    H154502   2.470   1.838  12.031  0.0019  0.0653 -0.7201
11029TIP3    H254503   2.350   1.782  12.105 -0.5937  0.5589 -1.3044
11030TIP3   OH254504   0.002   1.473   5.668  0.0443  0.4412 -0.3392
11030TIP3    H154505  -0.013   1.415   5.743  0.0370 -0.4729 -1.0271
11030TIP3    H254506  -0.067   1.450   5.606 -0.9429  2.3092 -0.0151
11031TIP3   OH254507   5.413   4.455  12.351 -0.2194  0.0822  0.7153
11031TIP3    H154508   5.388   4.540  12.389  0.0211  1.0692 -1.1894
11031TIP3    H254509   5.342   4.434  12.291 -0.0050 -0.7963  0.7663
11032TIP3   OH254510   0.706   2.178  12.620  0.1909  0.6028 -0.3651
11032TIP3    H154511   0.622   2.157  12.580 -0.0034  1.3453 -0.3563
11032TIP3    H254512   0.771   2.135  12.563 -0.2614 -1.9944  0.9133
11033TIP3   OH254513   4.433   5.336  16.465  0.2109 -1.1008 -0.6263
11033TIP3    H154514   4.526   5.314  16.459  0.2978 -0.7060 -0.8019
11033TIP3    H254515   4.415   5.342  16.559  0.5028 -0.6125 -0.6002
11034TIP3   OH254516   1.696   1.443  14.594 -0.2057 -0.0920  0.5964
11034TIP3    H154517   1.626   1.498  14.627  0.5051  2.1791 -1.4061
11034TIP3    H254518   1.751   1.426  14.671 -2.3080 -1.0537  1.9768
11035TIP3   OH254519   6.011   4.670  13.548 -0.2141 -0.5984  0.0937
11035TIP3    H154520   6.091   4.618  13.558  1.1282  0.9937 -1.6641
11035TIP3    H254521   5.954   4.616  13.493 -0.8092 -2.1256  2.0661
11036TIP3   OH254522   1.493   4.873   4.460 -0.3905 -0.0047  0.0728
11036TIP3    H154523   1.440   4.818   4.402  0.2474  0.3554 -0.8695
11036TIP3    H254524   1.576   4.827   4.466  0.0666  0.7173 -0.5301
11037TIP3   OH254525   2.396   0.317  15.135 -0.1772  0.3167 -0.1511
11037TIP3    H154526   2.383   0.244  15.195 -0.9859 -0.2917 -1.0442
11037TIP3    H254527   2.315   0.367  15.140 -0.0114  0.6014 -0.2937
11038TIP3   OH254528   1.289   0.203  16.746 -0.1026 -0.1725  0.0999
11038TIP3    H154529   1.293   0.274  16.682 -0.7219  1.8610  2.1862
11038TIP3    H254530   1.363   0.147  16.724 -0.0459  0.6609 -2.0957
11039TIP3   OH254531   4.242   6.539   1.233  0.2880 -0.2542 -0.4885
11039TIP3    H154532   4.182   6.565   1.164 -0.6566  0.3304  0.5187
11039TIP3    H254533   4.287   6.620   1.259  0.4843 -0.4275 -0.2755
11040TIP3   OH254534   6.698   4.338   1.225 -0.8782 -0.2605 -0.3757
11040TIP3    H154535   6.744   4.292   1.295 -0.1189 -0.9720 -1.3054
11040TIP3    H254536   6.606   4.334   1.250 -0.7971 -1.9401 -0.1867
11041TIP3   OH254537   2.142   0.844  14.619  0.1039 -0.1550  0.8511
11041TIP3    H154538   2.101   0.774  14.671 -0.6218 -0.6932 -0.4105
11041TIP3    H254539   2.229   0.811  14.599 -0.1312 -0.5825  0.5118
11042TIP3   OH254540   0.831   4.793  14.266 -0.1750 -0.3948 -0.1376
11042TIP3    H154541   0.808   4.886  14.267  0.1862 -0.3085  0.2835
11042TIP3    H254542   0.927   4.792  14.267 -0.0599 -0.7503  3.8208
11043TIP3   OH254543   5.895   3.800  15.718  0.1776  0.0065  0.2946
11043TIP3    H154544   5.853   3.716  15.700 -3.9712  2.0326 -0.6241
11043TIP3    H254545   5.928   3.791  15.807 -1.5755 -2.0731  0.8248
11044TIP3   OH254546   5.184   1.857  16.533 -0.1996  0.1521 -0.2233
11044TIP3    H154547   5.195   1.949  16.510  0.1046  0.1824  0.0251
11044TIP3    H254548   5.265   1.815  16.504  0.5384  0.3311  1.4234
11045TIP3   OH254549   2.085   1.558  13.167 -0.2624  0.3430  0.1683
11045TIP3    H154550   2.077   1.578  13.074 -0.9299  2.2289  0.6028
11045TIP3    H254551   2.024   1.486  13.182 -1.3774  1.1288 -0.5351
11046TIP3   OH254552   6.799   3.474  13.050  0.0160  0.0584 -0.1934
11046TIP3    H154553   6.816   3.404  12.987  0.3442 -0.6233  0.6253
11046TIP3    H254554   6.717   3.513  13.021  0.7419  0.5210 -1.6951
11047TIP3   OH254555   2.392   0.822   0.958  0.1924  0.0538 -0.0654
11047TIP3    H154556   2.374   0.793   0.869 -0.1100  0.1214 -0.0277
11047TIP3    H254557   2.316   0.875   0.982  0.1299 -0.2177  0.3440
11048TIP3   OH254558   1.314   2.191  11.734  1.0053 -0.3035 -0.1160
11048TIP3    H154559   1.334   2.199  11.827 -0.2195  2.1836  0.0156
11048TIP3    H254560   1.224   2.157  11.732  1.0390 -0.3742 -0.3851
11049TIP3   OH254561   1.169   5.440  17.154 -0.0385 -1.0493 -1.0892
11049TIP3    H154562   1.153   5.405  17.066  1.4723 -1.5691 -1.1723
11049TIP3    H254563   1.143   5.370  17.213 -0.7604 -0.8127 -1.1104
11050TIP3   OH254564   2.733   6.059  15.132 -0.2145 -0.0542 -0.3404
11050TIP3    H154565   2.813   6.083  15.178  0.8343 -0.3334 -1.9432
11050TIP3    H254566   2.733   5.963  15.133 -0.4192 -0.0566 -0.5253
11051TIP3   OH254567   3.701   3.187   1.190  0.4146  0.8804  0.1575
11051TIP3    H154568   3.710   3.219   1.100 -1.9908  0.3534 -0.3455
11051TIP3    H254569   3.716   3.092   1.183  1.4098  0.9913  0.5630
11052TIP3   OH254570   6.552   3.110   3.199 -0.2275 -0.1326 -0.7018
11052TIP3    H154571   6.513   3.193   3.170 -0.3306  0.8683  2.0343
11052TIP3    H254572   6.638   3.109   3.158 -0.0813  1.5217 -0.5267
11053TIP3   OH254573   4.036   6.204   1.540 -0.0278  0.1492  0.1107
11053TIP3    H154574   4.064   6.295   1.536  0.2047  0.1445  1.3930
11053TIP3    H254575   3.969   6.202   1.608  2.0239 -1.1214  2.2270
11054TIP3   OH254576   6.603   5.515  16.802  0.2862  0.4460  0.0856
11054TIP3    H154577   6.670   5.529  16.735  0.6911  0.5810  0.5099
11054TIP3    H254578   6.549   5.444  16.768 -0.0488  1.1067 -0.7845
11055TIP3   OH254579   6.186   5.919  12.538  0.6396 -0.3471 -0.6964
11055TIP3    H154580   6.264   5.969  12.516  0.4980  0.5251  0.6975
11055TIP3    H254581   6.220   5.837  12.575  1.0258  1.0383  2.3067
11056TIP3   OH254582   1.378   1.809   0.525 -0.1409  0.4132  0.3784
11056TIP3    H154583   1.289   1.797   0.559 -0.1190  1.2846  0.7597
11056TIP3    H254584   1.395   1.903   0.533  0.7275  0.2929  0.0828
11057TIP3   OH254585   0.393   4.010   5.399  0.1543  0.1660  0.3738
11057TIP3    H154586   0.421   4.083   5.343  1.4769  0.5501  1.4668
11057TIP3    H254587   0.455   3.940   5.380 -1.2472 -0.8074 -0.8320
11058TIP3   OH254588   1.196   0.732  13.082 -0.1413  0.8684  0.1796
11058TIP3    H154589   1.239   0.731  13.167 -0.2932  1.9866  0.2810
11058TIP3    H254590   1.104   0.751  13.101 -0.4559 -0.2547 -0.1360
11059TIP3   OH254591   1.950   3.275  17.244 -0.2248 -0.1917  0.4144
11059TIP3    H154592   1.961   3.245  17.154 -2.3789  1.1049 -0.3563
11059TIP3    H254593   2.034   3.314  17.267  0.3816 -0.5989 -0.9981
11060TIP3   OH254594   3.669   6.008  11.557  0.2764 -0.0944 -0.2871
11060TIP3    H154595   3.720   5.990  11.479  0.4789 -1.0791  0.0608
11060TIP3    H254596   3.578   6.012  11.526  0.0459 -3.0500 -0.2411
11061TIP3   OH254597   3.007   2.739   1.087 -0.5268 -0.1256 -0.3518
11061TIP3    H154598   3.057   2.821   1.086  0.4027 -0.5256  2.6178
11061TIP3    H254599   3.062   2.676   1.042  0.4834  0.0716  0.5656
11062TIP3   OH254600   0.791   1.163   1.623 -0.2714  0.7080 -0.2844
11062TIP3    H154601   0.762   1.114   1.546  0.0627 -0.7648  0.4932
11062TIP3    H254602   0.859   1.222   1.590  1.7233 -1.6888 -0.7746
11063TIP3   OH254603   0.712   5.797  10.611 -0.5554  0.1490 -0.1756
11063TIP3    H154604   0.759   5.845  10.679  0.0601 -0.6896  0.0170
11063TIP3    H254605   0.637   5.852  10.590  0.5086  1.5306 -0.4959
11064TIP3   OH254606   5.683   1.836  11.577  0.1039 -0.3142  0.0259
11064TIP3    H154607   5.599   1.853  11.535  0.2630  0.1507 -0.1117
11064TIP3    H254608   5.677   1.745  11.608  0.1042 -0.7760 -1.2771
11065TIP3   OH254609   3.062   0.322  17.158  0.4418  0.6379  0.4239
11065TIP3    H154610   3.058   0.395  17.096 -0.8237  0.9124  0.7908
11065TIP3    H254611   3.029   0.358  17.240  1.6365  0.1516  1.1440
11066TIP3   OH254612   2.259   6.177  11.938 -0.3812 -0.1516  0.2790
11066TIP3    H154613   2.275   6.249  11.877 -0.5111 -0.9637 -0.7404
11066TIP3    H254614   2.165   6.180  11.955 -0.3650 -0.0060  0.3490
11067TIP3   OH254615   2.756   2.672   1.148  0.6395  0.0920 -0.5238
11067TIP3    H154616   2.692   2.742   1.135 -0.6370 -1.1521 -1.2619
11067TIP3    H254617   2.841   2.714   1.135  0.1422  2.1940  2.1532
11068TIP3   OH254618   0.912   4.582   4.150  0.0260 -0.1951  0.3929
11068TIP3    H154619   0.863   4.545   4.077  0.7877  0.0236 -0.2417
11068TIP3    H254620   0.858   4.565   4.227  0.0592 -2.0379  0.0391
11069TIP3   OH254621   4.698   5.997  13.652  0.5924 -0.6922 -0.7084
11069TIP3    H154622   4.673   6.090  13.650 -1.3399 -1.0750  1.5647
11069TIP3    H254623   4.791   5.998  13.674  0.3574  0.7293  0.3980
11070TIP3   OH254624   1.904   0.190  16.783  0.5572  0.1591 -0.2897
11070TIP3    H154625   1.996   0.207  16.805  0.1558  0.9042  0.9319
11070TIP3    H254626   1.859   0.270  16.807 -0.8332 -1.1894  1.9086
11071TIP3   OH254627   0.209   0.753  10.509 -0.6750 -0.0734  0.3701
11071TIP3    H154628   0.149   0.684  10.538  0.4540 -0.6725  1.4011
11071TIP3    H254629   0.286   0.740  10.564  0.8931 -0.1049 -1.7585
11072TIP3   OH254630   3.486   0.482  12.383  1.0146 -0.4758  0.2547
11072TIP3    H154631   3.503   0.454  12.293  1.8617  0.7761 -0.0165
11072TIP3    H254632   3.392   0.470  12.395  1.2195 -2.7441 -0.0226
11073TIP3   OH254633   2.207   2.229  15.489  0.5843  0.5426  0.5842
11073TIP3    H154634   2.136   2.284  15.458  1.0187  0.0392 -1.4645
11073TIP3    H254635   2.163   2.152  15.526  0.0371  1.1245  1.1586
11074TIP3   OH254636   0.892   2.097   3.798 -0.2846 -0.5578  0.6176
11074TIP3    H154637   0.816   2.154   3.805 -0.4681 -0.6458 -0.4070
11074TIP3    H254638   0.858   2.016   3.761  0.4981 -0.0737 -1.3193
11075TIP3   OH254639   5.516   2.310  14.587 -0.1247  0.3430 -0.0319
11075TIP3    H154640   5.560   2.244  14.533  1.4235  1.2024  0.1233
11075TIP3    H254641   5.424   2.304  14.562  0.3054 -0.4029 -1.5567
11076TIP3   OH254642   5.443   3.736   1.564 -0.4532 -0.4531 -0.3538
11076TIP3    H154643   5.467   3.724   1.472 -2.1948 -1.5031 -0.7212
11076TIP3    H254644   5.382   3.664   1.582 -1.1593  0.5034  1.2445
11077TIP3   OH254645   3.587   0.267  14.217  0.0947 -0.7666 -0.1959
11077TIP3    H154646   3.607   0.195  14.277 -1.9974 -0.9357  0.3727
11077TIP3    H254647   3.647   0.254  14.143  0.2137 -2.7081  0.1841
11078TIP3   OH254648   0.221   5.429   2.514  0.2822  0.3680 -0.1389
11078TIP3    H154649   0.134   5.458   2.488 -0.2792 -0.5664  0.6202
11078TIP3    H254650   0.217   5.334   2.509  1.6859  0.3488 -1.3842
11079TIP3   OH254651   3.676   1.299   3.578  0.2228  0.3004 -0.2366
11079TIP3    H154652   3.711   1.365   3.517  2.0854 -0.1457  0.3040
11079TIP3    H254653   3.669   1.345   3.661 -0.4722  0.3649 -0.3207
11080TIP3   OH254654   5.708   4.882   0.034 -0.3207 -0.4410 -0.1933
11080TIP3    H154655   5.614   4.899   0.027 -0.1174  0.6410 -0.4256
11080TIP3    H254656   5.722   4.864   0.127 -0.6160  0.3592  0.0140
11081TIP3   OH254657   3.320   3.280  15.955  0.2630 -0.4143 -0.7206
11081TIP3    H154658   3.412   3.260  15.938  0.1714 -0.1771 -1.5479
11081TIP3    H254659   3.271   3.222  15.896 -0.1886 -1.6864  0.8415
11082TIP3   OH254660   6.138   2.933  11.949  0.5504  0.0614  0.5529
11082TIP3    H154661   6.171   2.903  11.865  3.8141  0.9789  1.3278
11082TIP3    H254662   6.133   2.854  12.003  1.4421 -0.1472  0.3424
11083TIP3   OH254663   2.952   2.031  16.824 -0.4312  0.5413 -0.1490
11083TIP3    H154664   2.946   1.935  16.817 -1.3129  0.5420  0.4070
11083TIP3    H254665   3.042   2.051  16.798 -0.2639 -0.4303 -0.3744
11084TIP3   OH254666   0.831   1.235  14.644 -0.0890  0.3911  1.1393
11084TIP3    H154667   0.845   1.186  14.563 -1.4370  0.0584  1.0730
11084TIP3    H254668   0.844   1.326  14.620 -0.6479  0.3087  0.4851
11085TIP3   OH254669   5.504   2.249   5.927 -0.3010 -0.5204  0.1842
11085TIP3    H154670   5.536   2.278   6.013  2.3890  0.9806 -1.1919
11085TIP3    H254671   5.414   2.279   5.924 -0.5705 -0.8871  2.5813
11086TIP3   OH254672   0.069   2.814   3.267 -0.4709 -0.1505  0.1535
11086TIP3    H154673   0.114   2.891   3.232 -2.2749  0.5108 -0.8564
11086TIP3    H254674  -0.021   2.843   3.280 -0.7829 -1.5872  1.5307
11087TIP3   OH254675   6.128   4.103  10.935  0.3906 -0.7613 -0.3502
11087TIP3    H154676   6.204   4.077  10.883  1.2236 -1.6938  1.2736
11087TIP3    H254677   6.142   4.196  10.953  0.3596 -0.5590 -1.3117
11088TIP3   OH254678   2.392   2.083   1.197 -0.2232 -0.2215 -0.4500
11088TIP3    H154679   2.304   2.072   1.161 -0.2153  0.1360 -0.5818
11088TIP3    H254680   2.383   2.061   1.289 -0.2898 -0.9331 -0.6253
11089TIP3   OH254681   4.270   1.269   3.370 -0.6472 -0.2303 -0.2753
11089TIP3    H154682   4.254   1.218   3.290 -0.7551 -1.8012  0.7006
11089TIP3    H254683   4.195   1.328   3.376 -0.7565 -0.2582 -1.2050
11090TIP3   OH254684   5.557   1.688   6.207  0.3008 -0.0130 -0.2264
11090TIP3    H154685   5.617   1.713   6.277  0.5482 -2.4969  0.5432
11090TIP3    H254686   5.614   1.659   6.136  0.0209 -0.5158 -0.2450
11091TIP3   OH254687   4.131   6.716  16.159 -0.3128 -0.0833  0.2874
11091TIP3    H154688   4.104   6.807  16.168 -0.6757 -0.0249 -1.1584
11091TIP3    H254689   4.226   6.719  16.153 -0.3184  0.1854  0.3616
11092TIP3   OH254690   2.836   2.983   1.450  0.3709 -0.3924  0.0125
11092TIP3    H154691   2.804   3.021   1.369  0.3823  1.6186  0.8990
11092TIP3    H254692   2.769   2.920   1.475 -0.0583 -0.3974 -1.0960
11093TIP3   OH254693   5.037   5.360   0.915  0.4380 -0.1081 -0.1180
11093TIP3    H154694   5.073   5.271   0.910 -0.5577 -0.5215 -0.1522
11093TIP3    H254695   5.043   5.394   0.826  2.3228  0.4927  0.1902
11094TIP3   OH254696   0.104   6.004   4.642  0.9017 -0.7953  0.0765
11094TIP3    H154697   0.110   6.009   4.738  0.2555 -1.5164  0.1616
11094TIP3    H254698   0.159   6.076   4.611  1.3790 -0.7538  0.9834
11095TIP3   OH254699   6.415   4.283  14.477  0.0439  0.0434  0.3585
11095TIP3    H154700   6.424   4.227  14.400  0.4668 -1.7416  1.6340
11095TIP3    H254701   6.504   4.314  14.494  0.7640 -2.7939  2.3601
11096TIP3   OH254702   6.714   0.181  16.798  0.6845 -0.8297 -0.0420
11096TIP3    H154703   6.764   0.216  16.724 -2.0177  2.0542 -0.7205
11096TIP3    H254704   6.623   0.187  16.770 -0.4686  0.3631  3.4491
11097TIP3   OH254705   4.052   4.907  17.078  0.3520  0.5111 -0.5068
11097TIP3    H154706   3.990   4.834  17.082  1.6722 -0.6048  1.1957
11097TIP3    H254707   4.002   4.982  17.110 -0.3776 -0.1998  0.0774
11098TIP3   OH254708   5.592   3.314   0.786  0.0106 -0.3709 -0.0483
11098TIP3    H154709   5.634   3.246   0.734  1.3774  1.2399 -1.1685
11098TIP3    H254710   5.536   3.361   0.724 -0.3191 -0.0037  0.5195
11099TIP3   OH254711   0.746   6.569  15.436 -0.4387  0.1783  0.2490
11099TIP3    H154712   0.706   6.551  15.351 -0.6731 -0.4241  0.4796
11099TIP3    H254713   0.677   6.550  15.499 -0.3475  0.8725  0.5650
11100TIP3   OH254714   0.356   2.743   5.208 -0.0278 -0.0484 -0.3121
11100TIP3    H154715   0.284   2.806   5.213 -0.6254 -0.6708 -0.8545
11100TIP3    H254716   0.325   2.676   5.147  1.2509 -0.0193 -1.0316
11101TIP3   OH254717   6.171   6.672  13.646 -0.6117 -0.3710  0.1123
11101TIP3    H154718   6.258   6.653  13.610 -0.2971  0.9993  0.1150
11101TIP3    H254719   6.117   6.688  13.569 -0.7635 -0.7660  0.1317
11102TIP3   OH254720   6.327   6.806   1.571  0.1331 -0.0528  0.3418
11102TIP3    H154721   6.252   6.753   1.543  1.0596 -1.0516 -0.3130
11102TIP3    H254722   6.361   6.844   1.490 -0.5070  1.5992  0.7938
11103TIP3   OH254723   1.794   5.966  11.095 -0.0326 -0.0845 -0.3704
11103TIP3    H154724   1.737   6.018  11.038 -0.6038  0.9498  1.0866
11103TIP3    H254725   1.748   5.882  11.104  0.6140 -0.7097 -2.2769
11104TIP3   OH254726   0.698   3.832   1.812  0.2379  0.9370 -0.2213
11104TIP3    H154727   0.662   3.878   1.888  1.7373  2.6559 -0.4807
11104TIP3    H254728   0.624   3.824   1.751 -0.4978  1.3336  0.5966
11105TIP3   OH254729   0.754   2.803  15.914  0.0442  0.0054 -0.6683
11105TIP3    H154730   0.702   2.883  15.909  0.2652  0.1727 -0.3341
11105TIP3    H254731   0.834   2.824  15.865 -0.0658 -0.1481 -0.9194
11106TIP3   OH254732   5.622   0.551   0.444  0.1174 -0.8254  0.0960
11106TIP3    H154733   5.665   0.499   0.512  0.7797 -1.2498 -0.6353
11106TIP3    H254734   5.566   0.612   0.492  2.6400  0.7837  1.1552
11107TIP3   OH254735   6.278   4.861  16.790  0.0640  0.8493 -0.0042
11107TIP3    H154736   6.303   4.829  16.877  0.9552 -0.9283 -0.8603
11107TIP3    H254737   6.183   4.866  16.793 -0.3663 -3.2594 -0.1036
11108TIP3   OH254738   1.112   2.966   3.442 -0.0034  0.0095 -0.5244
11108TIP3    H154739   1.085   2.897   3.503  1.1513 -0.8594 -0.9625
11108TIP3    H254740   1.070   3.045   3.476  0.7300 -0.4066  1.5090
11109TIP3   OH254741   5.497   2.639   2.092 -0.3663  0.1006  0.8010
11109TIP3    H154742   5.547   2.561   2.066  2.3578  1.4964  1.4195
11109TIP3    H254743   5.463   2.618   2.178  3.1168  0.5755  2.4771
11110TIP3   OH254744   1.103   0.258   5.832 -0.2277 -0.0224 -0.4562
11110TIP3    H154745   1.113   0.353   5.830  0.8054 -0.0925  0.3704
11110TIP3    H254746   1.011   0.242   5.813  0.0616  1.0214 -3.0791
11111TIP3   OH254747   3.109   6.418  17.149  0.0836 -0.2452 -0.0965
11111TIP3    H154748   3.136   6.352  17.085  0.3030 -0.2146 -0.0340
11111TIP3    H254749   3.151   6.498  17.120  1.8598 -0.6424  1.2287
11112TIP3   OH254750   1.645   0.898  14.637  0.2312  0.5794 -0.5301
11112TIP3    H154751   1.656   0.843  14.559  2.4842  0.3993 -0.1630
11112TIP3    H254752   1.595   0.844  14.698  1.1009 -0.5125 -0.7400
11113TIP3   OH254753   6.405   5.166   1.725 -0.3083  0.4273 -0.6852
11113TIP3    H154754   6.458   5.223   1.781 -0.4552 -0.0426 -0.0541
11113TIP3    H254755   6.450   5.166   1.641  0.8470 -0.1527 -0.0952
11114TIP3   OH254756   2.839   2.285  10.760  0.3652  0.3680 -0.0087
11114TIP3    H154757   2.804   2.350  10.820  0.0258  0.5563 -0.4070
11114TIP3    H254758   2.810   2.314  10.673 -0.5740 -0.7884 -0.1108
11115TIP3   OH254759   3.671   4.890  16.140  0.3556  0.3226  0.6883
11115TIP3    H154760   3.682   4.840  16.221  0.6002 -0.5163  0.1438
11115TIP3    H254761   3.760   4.920  16.118  0.5834 -0.9177 -0.1862
11116TIP3   OH254762   4.224   1.223   1.183 -0.0200  0.0153 -0.2052
11116TIP3    H154763   4.306   1.175   1.200  1.3000  2.4092  0.7378
11116TIP3    H254764   4.156   1.170   1.224  1.2616 -1.3279  0.2684
11117TIP3   OH254765   4.945   2.021   2.680 -0.0500  0.4682 -0.1102
11117TIP3    H154766   4.903   1.964   2.744 -0.9991  1.7428  0.4535
11117TIP3    H254767   5.036   2.027   2.708  0.5845 -2.2454 -1.2776
11118TIP3   OH254768   1.031   5.617   3.441  0.3264 -0.5753 -0.4371
11118TIP3    H154769   0.965   5.603   3.373  1.8034 -1.0272 -1.8599
11118TIP3    H254770   1.041   5.712   3.444  0.5788 -0.5626 -1.2267
11119TIP3   OH254771   2.468   0.430  13.717 -0.3824  0.4367  0.1678
11119TIP3    H154772   2.460   0.493  13.646 -2.1054 -1.3068 -1.3098
11119TIP3    H254773   2.430   0.475  13.793  0.0598  1.7809 -0.3711
11120TIP3   OH254774   0.074   3.595   2.066 -0.0842  0.1293 -0.1688
11120TIP3    H154775   0.063   3.540   1.988 -1.8590  1.1109 -0.6441
11120TIP3    H254776  -0.012   3.632   2.082  0.5924  1.1044  1.4164
11121TIP3   OH254777   5.222   0.942  16.285  0.5541  0.3994  0.7000
11121TIP3    H154778   5.315   0.954  16.305  0.2269  1.7177  1.6458
11121TIP3    H254779   5.194   1.026  16.248 -0.3030  0.1068  0.6505
11122TIP3   OH254780   5.298   4.378   4.603  0.6729  0.4446  0.3257
11122TIP3    H154781   5.380   4.365   4.650  0.4216  1.5360  1.0943
11122TIP3    H254782   5.267   4.464   4.631 -0.0765  0.6234 -0.9590
11123TIP3   OH254783   1.467   0.653  16.631 -0.3197 -0.6140  0.0193
11123TIP3    H154784   1.558   0.675  16.614 -0.5565  0.2309 -0.1586
11123TIP3    H254785   1.422   0.737  16.637 -1.4060 -1.0439 -1.5788
11124TIP3   OH254786   2.467   4.929  10.858  0.2553  0.3153  1.0525
11124TIP3    H154787   2.435   5.018  10.842 -1.7322 -0.5623 -0.2129
11124TIP3    H254788   2.534   4.915  10.790 -1.6653 -0.1873 -0.8435
11125TIP3   OH254789   0.231   1.644   5.152  0.1417  0.0107 -0.5881
11125TIP3    H154790   0.297   1.612   5.091  0.0772 -1.0568 -0.1140
11125TIP3    H254791   0.170   1.693   5.097  0.6313 -0.0752 -1.2221
11126TIP3   OH254792   4.239   3.382   3.279 -0.0515  0.1667  0.0179
11126TIP3    H154793   4.332   3.404   3.277  0.4743 -1.3665  2.6922
11126TIP3    H254794   4.196   3.458   3.317 -0.1330  1.2804 -2.1209
11127TIP3   OH254795   6.026   1.263   4.807 -0.0888 -0.1596  0.7230
11127TIP3    H154796   6.064   1.316   4.737  0.3579  1.3727  2.0520
11127TIP3    H254797   6.102   1.226   4.852 -0.3468 -0.6763  0.7307
11128TIP3   OH254798   5.681   5.538   4.881  0.0627  0.3868  0.2771
11128TIP3    H154799   5.710   5.557   4.970 -0.9022  1.3936  0.3992
11128TIP3    H254800   5.729   5.459   4.856 -1.0254 -1.0277  2.3939
11129TIP3   OH254801   3.190   6.411  11.707 -0.1475 -0.2067  0.4971
11129TIP3    H154802   3.147   6.459  11.778 -1.8477  1.7907 -1.7659
11129TIP3    H254803   3.171   6.319  11.726 -1.1727  0.3167  2.2321
11130TIP3   OH254804   4.601   2.472   0.813 -0.4281 -0.2332  0.0798
11130TIP3    H154805   4.578   2.480   0.720  0.4844  0.3776 -0.1097
11130TIP3    H254806   4.611   2.378   0.827  0.2549 -0.2828 -0.6651
11131TIP3   OH254807   3.290   5.342  14.800 -0.2884 -0.0803  0.4053
11131TIP3    H154808   3.227   5.412  14.782 -1.1957 -1.4176 -2.1565
11131TIP3    H254809   3.358   5.383  14.853 -0.5672  2.8653 -1.3227
11132TIP3   OH254810   1.771   2.646   3.371 -0.1627  0.6691  0.0352
11132TIP3    H154811   1.854   2.608   3.344 -0.9983 -0.3307 -1.2688
11132TIP3    H254812   1.777   2.654   3.466  0.8132 -0.9088  0.1383
11133TIP3   OH254813   2.976   5.847  11.476  0.2782 -0.7126  0.2591
11133TIP3    H154814   3.061   5.805  11.491  0.7938  0.3686  0.4633
11133TIP3    H254815   2.972   5.859  11.381  1.3267  1.1172  0.3884
11134TIP3   OH254816   5.466   0.950   4.136  0.7456  0.8379 -0.7707
11134TIP3    H154817   5.496   0.976   4.223 -0.5791  1.6088 -0.5127
11134TIP3    H254818   5.528   0.990   4.075  0.3259  2.3167 -0.2568
11135TIP3   OH254819   0.659   4.551   3.252  0.1551 -0.2606  0.7667
11135TIP3    H154820   0.687   4.597   3.173  1.6779  2.4609  2.7143
11135TIP3    H254821   0.573   4.514   3.229  0.0660  1.3107 -1.8175
11136TIP3   OH254822   1.745   1.290  15.763  0.0235 -0.9977 -0.2099
11136TIP3    H154823   1.838   1.308  15.757 -0.1795  0.8383  1.3832
11136TIP3    H254824   1.704   1.355  15.707 -0.3577 -1.0977 -0.0543
11137TIP3   OH254825   2.060   2.976   6.145  0.2961 -0.4491  0.1524
11137TIP3    H154826   2.144   3.018   6.127 -0.4933  1.3403  0.4587
11137TIP3    H254827   1.995   3.046   6.134 -1.3747 -2.1729 -1.9516
11138TIP3   OH254828   0.647   6.771   4.762 -0.4629 -0.2225  0.0763
11138TIP3    H154829   0.725   6.742   4.809 -0.7397  1.0779  1.4009
11138TIP3    H254830   0.590   6.808   4.829 -1.0562  1.3428 -1.2208
11139TIP3   OH254831   5.256   3.549   4.251 -0.4238  0.3795  0.2755
11139TIP3    H154832   5.232   3.631   4.294  0.7986 -0.1385  2.0465
11139TIP3    H254833   5.311   3.504   4.314  0.8999 -0.7494 -1.5802
11140TIP3   OH254834   4.353   6.688  15.043 -0.2785  0.8037  0.4379
11140TIP3    H154835   4.407   6.679  15.121 -0.3913 -1.3719  0.3069
11140TIP3    H254836   4.399   6.640  14.975 -1.4572  0.4680 -0.1625
11141TIP3   OH254837   6.342   6.182   6.605  0.5463  0.0623  0.6340
11141TIP3    H154838   6.415   6.218   6.654 -0.1726 -0.6501  2.3147
11141TIP3    H254839   6.312   6.107   6.657 -1.0230 -0.0137 -0.2820
11142TIP3   OH254840   0.411   5.834   0.435 -0.3249  0.4098  0.3545
11142TIP3    H154841   0.374   5.852   0.349 -2.1438 -0.1740  0.9546
11142TIP3    H254842   0.444   5.744   0.429  1.9331  1.2152 -0.4379
11143TIP3   OH254843   0.290   6.314  10.551 -0.7418  0.4491 -0.2342
11143TIP3    H154844   0.336   6.391  10.517 -0.7604 -0.0307 -1.3907
11143TIP3    H254845   0.346   6.240  10.527 -1.5224 -0.0360 -0.5981
11144TIP3   OH254846   6.382   0.176  14.434  0.7054 -0.3453 -0.5053
11144TIP3    H154847   6.410   0.265  14.455 -0.4377 -0.5446  2.3190
11144TIP3    H254848   6.309   0.188  14.372  0.5454  0.6852 -0.1397
11145TIP3   OH254849   4.580   3.355   5.194  0.1432 -0.1809  0.1825
11145TIP3    H154850   4.662   3.367   5.146 -0.1738 -1.0451 -0.6109
11145TIP3    H254851   4.590   3.271   5.238 -0.7422 -0.8552 -0.8472
11146TIP3   OH254852   6.311   3.861  14.878 -0.5046 -0.4545  1.0179
11146TIP3    H154853   6.372   3.935  14.876 -0.3664 -0.5765 -0.5846
11146TIP3    H254854   6.254   3.875  14.802 -1.0520 -1.5192  1.2217
11147TIP3   OH254855   5.697   5.538  16.205 -0.3173 -0.4757 -0.1452
11147TIP3    H154856   5.766   5.474  16.189  0.0688  0.4844 -3.0698
11147TIP3    H254857   5.627   5.488  16.246  1.6556 -1.7023  1.9504
11148TIP3   OH254858   0.873   5.887   4.420  0.3657  0.3399  0.0753
11148TIP3    H154859   0.781   5.892   4.445  1.2820 -2.0266  5.0991
11148TIP3    H254860   0.915   5.960   4.466  1.3431 -0.0628 -0.1516
11149TIP3   OH254861   1.058   3.569  15.126  0.2738  0.0926 -0.1339
11149TIP3    H154862   0.989   3.625  15.161  1.8587  2.2038 -0.2243
11149TIP3    H254863   1.013   3.513  15.063 -1.3614  1.4674 -0.2652
11150TIP3   OH254864   2.061   0.018  15.337  0.1098 -0.2979  0.5386
11150TIP3    H154865   2.009  -0.052  15.375 -1.7655 -0.2414 -1.7163
11150TIP3    H254866   2.086  -0.014  15.250  1.4156  0.8377  0.4519
11151TIP3   OH254867   4.456   0.147  14.728 -0.1029 -0.2982 -0.1660
11151TIP3    H154868   4.546   0.176  14.744 -0.5247  0.6968  0.5593
11151TIP3    H254869   4.402   0.215  14.769 -1.2105 -0.1259 -1.8163
11152TIP3   OH254870   0.803   0.242  14.649 -0.0155  0.0222 -0.3805
11152TIP3    H154871   0.833   0.185  14.720  0.3829 -0.6336 -1.0667
11152TIP3    H254872   0.709   0.251  14.664  0.2044  0.5902  0.7222
11153TIP3   OH254873   5.644   4.314   2.322 -0.3818 -0.1404 -0.1733
11153TIP3    H154874   5.578   4.247   2.305 -1.3059  0.8836 -0.8337
11153TIP3    H254875   5.715   4.268   2.367 -1.3974 -1.3541  0.2518
11154TIP3   OH254876   2.847   5.075   5.616 -0.3644  0.2947  0.5662
11154TIP3    H154877   2.865   5.129   5.539 -1.2045  0.5800  0.5569
11154TIP3    H254878   2.880   4.988   5.593  0.7875  0.7345  0.4897
11155TIP3   OH254879   5.875   2.343  16.425  0.6869  0.0435  0.3455
11155TIP3    H154880   5.792   2.372  16.463  0.6009  1.4661 -0.8230
11155TIP3    H254881   5.851   2.273  16.365  0.3827  0.1561  0.3322
11156TIP3   OH254882   2.884   4.746  14.610 -0.0350  0.1401  0.3135
11156TIP3    H154883   2.913   4.794  14.687 -0.4243  0.0228  0.5350
11156TIP3    H254884   2.799   4.783  14.589  1.1462  2.0023 -1.6278
11157TIP3   OH254885   0.176   2.851  14.727  0.3801 -0.8166 -0.1486
11157TIP3    H154886   0.143   2.770  14.767 -1.7578  1.6408  3.6009
11157TIP3    H254887   0.260   2.866  14.770  0.0149 -0.2462  0.3708
11158TIP3   OH254888   3.039   2.369   5.309 -0.3824 -0.0881  0.1209
11158TIP3    H154889   2.957   2.337   5.270 -0.8432  0.1640  0.8667
11158TIP3    H254890   3.057   2.308   5.380  0.0693 -0.1224 -0.0202
11159TIP3   OH254891   6.465   4.075  14.660  0.1484 -0.5608 -0.1381
11159TIP3    H154892   6.557   4.065  14.635 -0.4970 -1.5190 -2.3306
11159TIP3    H254893   6.435   4.150  14.609 -0.2976 -0.2313  0.5958
11160TIP3   OH254894   1.639   5.810  14.326  0.5029 -0.3887 -0.0912
11160TIP3    H154895   1.585   5.858  14.263  0.0632  0.1179  0.6551
11160TIP3    H254896   1.729   5.829  14.300  0.3590  1.6552  0.7561
11161TIP3   OH254897   0.509   5.866  17.192 -0.2210 -0.2802  0.3313
11161TIP3    H154898   0.446   5.798  17.216  0.7825 -0.9628  1.1039
11161TIP3    H254899   0.462   5.948  17.211 -2.1046 -0.6313 -2.2926
11162TIP3   OH254900   1.394   4.884   1.735  0.0095  0.5627 -0.0656
11162TIP3    H154901   1.374   4.938   1.812  0.8198  1.8996 -0.7546
11162TIP3    H254902   1.489   4.887   1.727  0.1498 -1.5568  0.2452
11163TIP3   OH254903   4.788   1.361  12.013  0.4233  0.1153 -0.0285
11163TIP3    H154904   4.730   1.421  11.967  0.8339  0.4426 -0.1271
11163TIP3    H254905   4.740   1.279  12.017  0.1015  0.2823 -0.4293
11164TIP3   OH254906   6.443   4.579   1.910  0.4476  0.2447 -1.0575
11164TIP3    H154907   6.528   4.559   1.950  0.1901 -1.1550 -1.1331
11164TIP3    H254908   6.409   4.652   1.961  2.1424  1.5376 -1.6985
11165TIP3   OH254909   2.830   0.132   3.787 -0.0581 -0.1914  0.2940
11165TIP3    H154910   2.891   0.203   3.768  1.3461 -0.7140  2.5105
11165TIP3    H254911   2.746   0.176   3.801  0.3698  0.8281 -0.2701
11166TIP3   OH254912   3.514   4.467  15.405  0.0436  0.1287 -0.3787
11166TIP3    H154913   3.438   4.489  15.459  0.4173  0.6281 -0.0563
11166TIP3    H254914   3.515   4.533  15.336 -0.4625 -0.5369 -1.0450
11167TIP3   OH254915   5.234   2.865  11.622  0.3853 -0.0887  0.5491
11167TIP3    H154916   5.234   2.857  11.526  1.0059 -0.3936  0.5698
11167TIP3    H254917   5.142   2.866  11.646  0.1715 -2.8554  0.1724
11168TIP3   OH254918   1.547   5.301  11.609  0.0911 -1.1258  0.0440
11168TIP3    H154919   1.569   5.286  11.701 -2.5935 -0.3909  0.8972
11168TIP3    H254920   1.589   5.229  11.562  2.2229 -1.0580  1.6948
11169TIP3   OH254921   1.581   5.318  16.361  0.0566  0.0038 -0.0491
11169TIP3    H154922   1.583   5.239  16.306 -2.7475  0.0912 -0.3924
11169TIP3    H254923   1.619   5.386  16.306  0.9522 -0.7408 -0.3751
11170TIP3   OH254924   6.149   2.043  14.044  0.0375 -0.2152  0.2411
11170TIP3    H154925   6.106   1.979  13.986  2.2703 -0.9565 -0.7002
11170TIP3    H254926   6.169   2.117  13.987  0.7320 -0.2281  0.4693
11171TIP3   OH254927   2.437   2.614   1.286 -0.2959 -1.2212 -0.7154
11171TIP3    H154928   2.459   2.609   1.193  0.2748 -2.4432 -0.5366
11171TIP3    H254929   2.342   2.626   1.288 -0.3229 -1.2868 -1.4540
11172TIP3   OH254930   3.819   1.439   5.041  0.1842 -0.1921 -0.0452
11172TIP3    H154931   3.756   1.373   5.069  0.3258 -0.6891 -0.8560
11172TIP3    H254932   3.775   1.488   4.972  0.5085 -0.2305 -0.2851
11173TIP3   OH254933   1.524   5.188   4.767  0.1457  0.1730  0.2902
11173TIP3    H154934   1.579   5.261   4.740 -0.9728  1.3560  1.0712
11173TIP3    H254935   1.579   5.111   4.758  0.7819  0.8597 -2.3248
11174TIP3   OH254936   4.765   2.980  15.122  0.2401 -0.3299 -0.3520
11174TIP3    H154937   4.715   3.023  15.054  0.1695  2.1466  1.1241
11174TIP3    H254938   4.725   2.893  15.132 -2.4412  0.7923 -0.6242
11175TIP3   OH254939   5.702   3.358  11.651 -0.1337 -0.1398 -0.4755
11175TIP3    H154940   5.689   3.264  11.638 -0.3831 -0.0392 -0.9817
11175TIP3    H254941   5.730   3.391  11.566  1.2311  0.0382  0.0192
11176TIP3   OH254942   5.885   3.063  11.884  0.2065  0.5429  0.1530
11176TIP3    H154943   5.979   3.055  11.898  0.4260  0.2644 -1.3569
11176TIP3    H254944   5.871   3.156  11.865  0.2076  0.5519  0.1973
11177TIP3   OH254945   4.057   4.162   4.364  0.8258  0.5343 -0.5108
11177TIP3    H154946   3.999   4.109   4.309 -0.7928  1.5295  0.1427
11177TIP3    H254947   4.037   4.253   4.339  3.2323  0.8984 -1.3176
11178TIP3   OH254948   0.732   4.320   0.484  0.0334  0.1048  0.1753
11178TIP3    H154949   0.729   4.375   0.406 -0.2779 -0.4692 -0.2221
11178TIP3    H254950   0.648   4.336   0.527 -0.1781 -0.2719 -0.0916
11179TIP3   OH254951   1.976   2.966  11.760 -0.1320  0.1366  0.2865
11179TIP3    H154952   1.979   2.871  11.759 -0.6971  0.1149  0.4066
11179TIP3    H254953   1.957   2.989  11.851  1.2198  0.4134  0.5238
11180TIP3   OH254954   5.035   0.534  13.867 -0.0530  0.5191 -0.2345
11180TIP3    H154955   5.120   0.530  13.824 -0.1930 -1.1759 -0.4453
11180TIP3    H254956   4.974   0.499  13.802 -0.0063 -3.9630  1.7709
11181TIP3   OH254957   6.171   4.349  13.370  0.1028  0.3194  0.3881
11181TIP3    H154958   6.188   4.418  13.434 -0.9165  1.0923 -0.1346
11181TIP3    H254959   6.179   4.267  13.419  0.8687  0.8237  1.1319
11182TIP3   OH254960   3.247   3.323   0.485 -0.1385  0.4789 -0.3218
11182TIP3    H154961   3.309   3.251   0.473  0.5649  1.3693 -2.4658
11182TIP3    H254962   3.283   3.374   0.558 -0.1686 -0.7967  0.6218
11183TIP3   OH254963   3.645   1.108   4.585  0.6529  0.1609 -0.5268
11183TIP3    H154964   3.636   1.104   4.490  0.8525  0.8445 -0.5819
11183TIP3    H254965   3.731   1.148   4.600  0.6924 -0.0858 -0.0580
11184TIP3   OH254966   5.040   5.887   1.033 -0.2448  0.2368  0.1994
11184TIP3    H154967   5.054   5.793   1.023  0.9969  0.4950 -0.7221
11184TIP3    H254968   4.945   5.897   1.036 -0.3962 -1.0093  0.0343
11185TIP3   OH254969   2.556   2.576   6.696 -0.2557 -0.0998  0.0913
11185TIP3    H154970   2.547   2.486   6.666 -0.0739  0.4295 -1.6853
11185TIP3    H254971   2.644   2.580   6.735  0.6375 -0.1991 -1.8095
11186TIP3   OH254972   3.693   4.319  11.231  0.1701  0.4776 -0.1227
11186TIP3    H154973   3.658   4.342  11.318 -2.5230 -1.9221 -0.4223
11186TIP3    H254974   3.737   4.235  11.245 -1.7774 -0.8046 -1.2974
11187TIP3   OH254975   2.156   6.139   2.080  0.8637  0.1606 -0.7155
11187TIP3    H154976   2.088   6.085   2.040 -0.7577  1.4290  0.2184
11187TIP3    H254977   2.167   6.213   2.020  1.8668 -0.3035 -1.1394
11188TIP3   OH254978   5.224   1.017   1.991 -0.4400  0.1669  0.2081
11188TIP3    H154979   5.140   0.971   1.987 -0.0463 -0.7594  1.6568
11188TIP3    H254980   5.206   1.093   2.047 -0.4442  0.2572  0.0829
11189TIP3   OH254981   3.911   0.731  15.214  0.9611 -0.0592 -0.4293
11189TIP3    H154982   3.845   0.662  15.200  0.6837  0.2429 -0.6093
11189TIP3    H254983   3.961   0.733  15.132  2.3835 -1.5411  0.3417
11190TIP3   OH254984   6.563   4.928  12.937  0.0605  0.1162  0.2929
11190TIP3    H154985   6.575   4.980  12.858 -1.4402  1.5862  0.9866
11190TIP3    H254986   6.557   4.838  12.905  1.3604  0.4597 -1.0557
11191TIP3   OH254987   0.813   1.660  11.692  0.0712  0.0582 -0.0643
11191TIP3    H154988   0.810   1.671  11.597 -1.0618  1.6660  0.1221
11191TIP3    H254989   0.726   1.627  11.715  0.2369 -0.0339  0.4559
11192TIP3   OH254990   4.525   0.941   5.317 -0.3650 -0.1136  0.3789
11192TIP3    H154991   4.600   0.884   5.333  2.2496  2.8473 -0.2686
11192TIP3    H254992   4.510   0.985   5.402  1.2696  2.0297 -0.3340
11193TIP3   OH254993   6.051   0.971   2.927  0.3915 -0.0364  0.2069
11193TIP3    H154994   6.104   0.891   2.921  0.8293  0.3039 -0.7118
11193TIP3    H254995   6.063   1.014   2.842  0.1158  0.9806  0.6657
11194TIP3   OH254996   3.751   3.583   5.405  0.2065  0.3949  0.5249
11194TIP3    H154997   3.783   3.659   5.356  0.7427  0.7881  1.4689
11194TIP3    H254998   3.823   3.559   5.463  0.0330 -0.8268  0.2599
11195TIP3   OH254999   4.279   5.503   3.617  0.2134 -0.6592 -0.1636
11195TIP3    H155000   4.372   5.521   3.629  0.2599 -1.9380  1.7880
11195TIP3    H255001   4.277   5.421   3.569  0.0897 -0.6994 -0.0884
11196TIP3   OH255002   0.270   5.052   0.785  0.3462  0.6083  0.2859
11196TIP3    H155003   0.176   5.038   0.791  0.4897 -2.1961 -1.7164
11196TIP3    H255004   0.305   5.016   0.867 -0.0863 -3.0778 -0.9750
11197TIP3   OH255005   3.569   0.372  12.124 -0.6325  0.1537 -0.0720
11197TIP3    H155006   3.541   0.285  12.096 -3.1696  1.3651 -1.6601
11197TIP3    H255007   3.647   0.390  12.072 -1.0171 -0.5499 -0.9244
11198TIP3   OH255008   5.825   1.542  16.093  0.1042  0.1271 -0.1067
11198TIP3    H155009   5.907   1.584  16.118  0.3777 -0.6595  0.3920
11198TIP3    H255010   5.759   1.584  16.147  0.4928 -0.6011  0.9783
11199TIP3   OH255011   2.939   1.213  11.269 -0.1685 -0.8022 -0.5092
11199TIP3    H155012   2.951   1.164  11.188  0.8806 -1.2683 -0.0920
11199TIP3    H255013   2.961   1.150  11.338  1.4306  0.2959  0.0241
11200TIP3   OH255014   1.124   0.133   5.309  0.3356 -0.4818 -0.1128
11200TIP3    H155015   1.106   0.222   5.340 -0.7301 -0.3868 -0.9614
11200TIP3    H255016   1.220   0.128   5.308  0.4169  0.6965 -0.1763
11201TIP3   OH255017   1.114   5.324   1.306  0.7894 -0.5797  0.2901
11201TIP3    H155018   1.112   5.383   1.382 -1.4183 -0.8686  0.5303
11201TIP3    H255019   1.021   5.312   1.283  1.2789 -2.5250 -0.8773
11202TIP3   OH255020   2.617   5.126  12.817 -0.2287  0.0269 -0.4415
11202TIP3    H155021   2.526   5.122  12.845 -0.2739  1.7154 -0.2019
11202TIP3    H255022   2.617   5.088  12.729 -0.9866 -0.8386 -0.0731
11203TIP3   OH255023   1.021   4.961   0.283  0.1014  0.1584 -0.9238
11203TIP3    H155024   1.067   5.020   0.343  0.8719 -1.0125 -0.3404
11203TIP3    H255025   0.929   4.972   0.304  0.1584  1.6843 -1.3265
11204TIP3   OH255026   1.848   5.594   0.879 -0.3437 -0.7681  0.6089
11204TIP3    H155027   1.925   5.539   0.868 -0.4302 -1.4286  2.8117
11204TIP3    H255028   1.780   5.534   0.911 -1.5384 -0.0377 -0.4482
11205TIP3   OH255029   0.765   1.863   3.329 -0.1220 -0.2350 -0.2835
11205TIP3    H155030   0.705   1.923   3.284  1.7288  1.2568 -0.9014
11205TIP3    H255031   0.850   1.879   3.289  0.7773 -2.0700  0.7544
11206TIP3   OH255032   5.315   6.161  10.793  0.5181  0.1314 -0.0161
11206TIP3    H155033   5.234   6.135  10.838  0.9030  0.6064  0.9915
11206TIP3    H255034   5.377   6.092  10.815  1.4404  1.5744  2.3730
11207TIP3   OH255035   6.452   0.288   3.389 -0.2852 -0.7240 -0.1839
11207TIP3    H155036   6.409   0.259   3.469 -0.6301 -0.8915 -0.4243
11207TIP3    H255037   6.529   0.336   3.418 -0.9606  0.0976  0.2672
11208TIP3   OH255038   1.677   5.364   2.532  0.0623 -0.7778 -0.3442
11208TIP3    H155039   1.652   5.337   2.620 -1.3780  0.9089 -0.1843
11208TIP3    H255040   1.594   5.382   2.488  0.8253 -0.0852 -1.5612
11209TIP3   OH255041   3.966   1.364   2.720 -0.1459  0.3333 -0.4548
11209TIP3    H155042   4.010   1.285   2.751 -2.1835 -1.1461 -1.1052
11209TIP3    H255043   3.962   1.420   2.797  3.4470  0.9383 -0.5384
11210TIP3   OH255044   3.610   1.293  11.951  0.5389 -0.2157  0.5229
11210TIP3    H155045   3.666   1.229  11.907  1.9219 -0.3315  2.3347
11210TIP3    H255046   3.594   1.255  12.037 -2.2217 -0.0710  0.1702
11211TIP3   OH255047   3.372   4.921  11.070 -0.1687 -0.2874 -0.4653
11211TIP3    H155048   3.438   4.891  11.133  0.9046 -0.2642 -1.5464
11211TIP3    H255049   3.398   5.010  11.048 -1.0486  0.0189 -0.2786
11212TIP3   OH255050   6.056   5.305  11.209  0.0666  0.0220  0.0122
11212TIP3    H155051   5.960   5.303  11.216  0.1983  0.5557  3.0922
11212TIP3    H255052   6.084   5.220  11.243  0.7151 -0.3061 -1.2825
11213TIP3   OH255053   5.084   1.152  12.808 -0.0167 -0.3026 -0.0713
11213TIP3    H155054   5.035   1.103  12.874  0.6561 -1.7752 -0.6180
11213TIP3    H255055   5.019   1.174  12.741 -0.4038 -0.0883  0.3734
11214TIP3   OH255056   1.761   1.641   0.801 -0.1519 -0.4554  0.1872
11214TIP3    H155057   1.677   1.618   0.761  0.4244 -0.5696 -1.0260
11214TIP3    H255058   1.826   1.599   0.744  0.7387 -0.0094  0.8542
11215TIP3   OH255059   4.030   5.674  11.589 -0.1003 -0.4536 -0.2866
11215TIP3    H155060   4.028   5.579  11.583  0.4985 -0.3911 -2.2879
11215TIP3    H255061   4.120   5.694  11.617  0.4566 -0.4401 -1.9998
11216TIP3   OH255062   2.425   6.551  12.944 -0.2845  0.1178  0.0349
11216TIP3    H155063   2.469   6.480  12.989 -1.0808 -0.8227 -0.6330
11216TIP3    H255064   2.454   6.630  12.990  1.2870 -0.5402  0.2287
11217TIP3   OH255065   0.982   1.928   1.096  0.0695  0.7933 -0.0337
11217TIP3    H155066   1.033   1.849   1.077  2.1311  1.8624  0.7316
11217TIP3    H255067   1.032   1.999   1.057 -0.7443  1.9383  0.9215
11218TIP3   OH255068   0.215   0.510   5.376  0.0911  0.3521  0.0707
11218TIP3    H155069   0.152   0.526   5.306 -0.2059  1.6164  0.6019
11218TIP3    H255070   0.192   0.573   5.444  0.4153 -0.7876  1.2958
11219TIP3   OH255071   3.347   6.497  14.556 -1.0052  0.0424  0.4685
11219TIP3    H155072   3.389   6.515  14.472 -1.9652 -0.5102 -0.1533
11219TIP3    H255073   3.276   6.561  14.562  0.2583  1.4126  1.8190
11220TIP3   OH255074   5.377   0.373   2.782  0.1611  0.0777 -0.6208
11220TIP3    H155075   5.366   0.392   2.875  0.3830 -2.1575 -0.0651
11220TIP3    H255076   5.471   0.377   2.767  0.0099  2.5833 -1.3334
11221TIP3   OH255077   5.724   5.808   3.466  0.3989 -0.1146  0.4602
11221TIP3    H155078   5.726   5.859   3.547 -0.3312 -2.1146  1.8363
11221TIP3    H255079   5.811   5.769   3.460  0.6511  0.5086 -0.0805
11222TIP3   OH255080   1.394   5.386   1.888  0.4900  0.3172  0.0240
11222TIP3    H155081   1.456   5.376   1.816 -0.5628  1.0637 -1.0222
11222TIP3    H255082   1.448   5.416   1.962  1.2357  2.1083 -1.1748
11223TIP3   OH255083   6.793   0.793   6.206  0.4533  0.2900  0.2994
11223TIP3    H155084   6.841   0.759   6.131 -1.7124 -1.4255 -0.4073
11223TIP3    H255085   6.861   0.817   6.269  2.2514 -0.3896 -1.2927
11224TIP3   OH255086   4.905   1.856   4.634  0.4457 -0.2013  0.6980
11224TIP3    H155087   4.898   1.920   4.563  0.1438 -0.7776  0.1961
11224TIP3    H255088   4.995   1.823   4.627 -0.3958 -2.2984 -1.2479
11225TIP3   OH255089   2.057   0.476  16.577  0.1356 -0.1978  0.3402
11225TIP3    H155090   2.107   0.467  16.658  0.4446 -0.1030  0.1624
11225TIP3    H255091   2.103   0.545  16.528  0.7765 -1.2321 -0.5405
11226TIP3   OH255092   6.292   1.612   4.814  0.3409  0.5091 -0.5417
11226TIP3    H155093   6.316   1.562   4.735  0.0800 -0.1996 -0.1848
11226TIP3    H255094   6.294   1.703   4.786 -0.4868  0.2354 -1.5808
11227TIP3   OH255095   5.531   2.548  12.071 -0.8667  0.1447  0.8444
11227TIP3    H155096   5.500   2.627  12.026 -0.9382 -1.0769 -1.3832
11227TIP3    H255097   5.626   2.552  12.063 -0.9081 -0.3788 -0.0039
11228TIP3   OH255098   4.644   3.643   1.865 -0.2586  0.7205 -0.0407
11228TIP3    H155099   4.564   3.670   1.820  0.2733  0.2128 -1.3437
11228TIP3    H255100   4.699   3.607   1.796  1.4720  1.8886  0.6696
11229TIP3   OH255101   1.642   1.133   5.847 -0.1024 -0.1045  0.0002
11229TIP3    H155102   1.576   1.196   5.818  0.3734  0.5102  0.2160
11229TIP3    H255103   1.617   1.110   5.936  0.4006  0.7333  0.3682
11230TIP3   OH255104   1.448   1.474  16.771 -0.4996  0.0637 -0.1671
11230TIP3    H155105   1.437   1.392  16.818 -2.4488 -0.8969 -2.1306
11230TIP3    H255106   1.438   1.542  16.838 -0.6485 -1.2418  1.1827
11231TIP3   OH255107   4.628   4.390  16.714  0.4412  0.0225 -0.3892
11231TIP3    H155108   4.557   4.345  16.668 -1.1415  2.4329 -0.4808
11231TIP3    H255109   4.603   4.384  16.807  0.4009  0.3879 -0.3748
11232TIP3   OH255110   4.000   1.423  11.671  0.2394  1.1518  0.0127
11232TIP3    H155111   4.031   1.381  11.752  0.1630 -0.2813 -0.6848
11232TIP3    H255112   3.911   1.451  11.692 -0.3474 -0.5732 -0.0134
11233TIP3   OH255113   6.128   5.351  12.509 -0.5238 -0.1730  0.6090
11233TIP3    H155114   6.035   5.329  12.516 -0.3989 -2.0910 -2.1648
11233TIP3    H255115   6.174   5.269  12.527  0.4350 -0.0622 -1.1007
11234TIP3   OH255116   1.770   5.145  14.299 -0.4342  0.2592 -0.1573
11234TIP3    H155117   1.703   5.128  14.364 -0.7945  1.0664 -0.3144
11234TIP3    H255118   1.821   5.064  14.296 -0.6345  0.0869  0.8555
11235TIP3   OH255119   2.888   3.042  15.769  0.2850  0.1115 -0.1335
11235TIP3    H155120   2.861   2.950  15.766 -0.1029  0.0694  2.4592
11235TIP3    H255121   2.811   3.089  15.802  1.1440  1.0288  0.6336
11236TIP3   OH255122   3.430   3.742  14.501  0.1136  0.7961  0.0826
11236TIP3    H155123   3.404   3.834  14.493 -0.4847  0.7158  0.9732
11236TIP3    H255124   3.350   3.697  14.528  0.7968  0.2692  1.2625
11237TIP3   OH255125   5.796   1.770  14.477 -0.7406 -0.0671  1.2730
11237TIP3    H155126   5.706   1.737  14.476 -0.4394 -1.0823  3.0362
11237TIP3    H255127   5.824   1.759  14.568  1.4510 -0.5218  0.5888
11238TIP3   OH255128   4.524   0.621  15.301  0.2155  0.0929 -0.0522
11238TIP3    H155129   4.607   0.639  15.345  0.1901  0.6895 -0.2277
11238TIP3    H255130   4.547   0.562  15.230  0.5438  0.4892 -0.2815
11239TIP3   OH255131   6.551   1.715  12.245 -0.3326 -0.1885 -0.6638
11239TIP3    H155132   6.481   1.780  12.252  1.2577  1.5129  0.0985
11239TIP3    H255133   6.621   1.760  12.197  2.2099 -0.0052  2.8619
11240TIP3   OH255134   6.746   3.490  14.034  0.6383 -0.2201  0.0160
11240TIP3    H155135   6.701   3.407  14.015 -0.6957  0.2507  0.9421
11240TIP3    H255136   6.682   3.557  14.009  1.8675  0.5633 -1.1309
11241TIP3   OH255137   1.120   2.179  16.357 -0.5111 -0.3167  0.1679
11241TIP3    H155138   1.207   2.139  16.357 -0.8439 -1.1101  1.8371
11241TIP3    H255139   1.066   2.119  16.408 -1.2968  1.7109  1.8508
11242TIP3   OH255140   4.162   0.153  16.083 -0.3562 -0.0949  0.4808
11242TIP3    H155141   4.218   0.181  16.010 -0.8682 -0.3438 -0.0154
11242TIP3    H255142   4.159   0.229  16.141  0.5028 -0.0783  0.5268
11243TIP3   OH255143   5.299   2.862   5.578 -0.2460  0.3008  0.1909
11243TIP3    H155144   5.241   2.852   5.653  1.7757  1.9928  2.1499
11243TIP3    H255145   5.255   2.924   5.521 -1.1442  0.1862  0.7468
11244TIP3   OH255146   2.362   3.401   0.362  0.1671 -0.7469 -0.8676
11244TIP3    H155147   2.372   3.367   0.451  1.1219  1.3374 -0.1213
11244TIP3    H255148   2.373   3.324   0.306  2.4088 -1.6858  0.7018
11245TIP3   OH255149   4.412   3.166  15.299  0.4935 -0.5239  0.3665
11245TIP3    H155150   4.333   3.137  15.255 -0.8904 -1.5158  3.2990
11245TIP3    H255151   4.455   3.086  15.328  1.5209  0.0805  0.5752
11246TIP3   OH255152   0.043   1.518  16.022  0.0477  0.4050 -0.0707
11246TIP3    H155153   0.102   1.452  15.985 -2.2216 -0.7647 -1.8590
11246TIP3    H255154   0.010   1.566  15.946 -0.6111  1.6593  0.9664
11247TIP3   OH255155   1.462   3.932  11.685 -0.6700 -0.2727 -0.1259
11247TIP3    H155156   1.491   3.927  11.776  0.2106  1.0660 -0.3034
11247TIP3    H255157   1.367   3.941  11.690 -0.5458  0.8002  0.7231
11248TIP3   OH255158   3.677   2.471  14.371 -0.0567  0.0923 -0.0782
11248TIP3    H155159   3.740   2.399  14.367  0.7435  0.7955 -0.3288
11248TIP3    H255160   3.611   2.448  14.306  0.9392  0.2608 -1.1965
11249TIP3   OH255161   5.906   4.886   3.817  0.2550 -0.2145 -0.2648
11249TIP3    H155162   5.844   4.957   3.801  0.2205 -0.0609  0.5015
11249TIP3    H255163   5.934   4.858   3.730 -0.6985 -0.1142 -0.6114
11250TIP3   OH255164   6.537   4.736   2.927 -0.6397 -0.3953  0.3081
11250TIP3    H155165   6.542   4.829   2.905  1.6359 -0.6346 -0.4997
11250TIP3    H255166   6.559   4.733   3.020 -0.6218 -0.1385  0.3134
11251TIP3   OH255167   3.973   2.402  16.449 -0.1526 -0.4197 -0.1014
11251TIP3    H155168   3.918   2.337  16.494  0.0770  0.9103  2.3014
11251TIP3    H255169   3.914   2.474  16.430  0.1694 -0.1817 -0.1978
11252TIP3   OH255170   3.967   1.612  12.378 -0.1216  0.2409  0.2485
11252TIP3    H155171   3.938   1.657  12.458 -2.0425 -0.4773 -0.0074
11252TIP3    H255172   3.907   1.643  12.310  1.7767  1.2033 -1.0901
11253TIP3   OH255173   5.816   4.130  13.295 -0.2320 -0.6211 -0.0147
11253TIP3    H155174   5.749   4.120  13.364 -1.6469 -0.4166 -1.3155
11253TIP3    H255175   5.818   4.224  13.278 -0.6143 -0.7710 -0.9226
11254TIP3   OH255176   5.429   4.468  14.793  0.4474  0.0745  0.5226
11254TIP3    H155177   5.349   4.498  14.751  1.2994 -0.1539 -1.3651
11254TIP3    H255178   5.433   4.374  14.773  1.5743  0.2399 -0.1330
11255TIP3   OH255179   0.681   4.563  12.240  0.4827 -0.3190 -0.6464
11255TIP3    H155180   0.746   4.509  12.287  0.4634 -0.0502 -0.3116
11255TIP3    H255181   0.618   4.588  12.307 -0.1730 -0.8749 -1.0408
11256TIP3   OH255182   3.414   2.666  12.629 -0.3343  0.1101 -0.2632
11256TIP3    H155183   3.417   2.610  12.552 -2.0273 -0.9953  0.4223
11256TIP3    H255184   3.431   2.607  12.702 -1.2528  0.6627  0.4126
11257TIP3   OH255185   2.187   2.519  15.237 -0.0763  0.4423 -0.2975
11257TIP3    H155186   2.260   2.536  15.297  0.5796 -0.4301 -0.8177
11257TIP3    H255187   2.110   2.516  15.294  0.5141 -0.2393  0.5029
11258TIP3   OH255188   6.191   3.889  14.599  0.5613  0.6915 -0.0707
11258TIP3    H155189   6.199   3.966  14.543 -0.5636  1.2143  0.4625
11258TIP3    H255190   6.251   3.825  14.560  0.4642  1.3439 -1.3447
11259TIP3   OH255191   5.200   4.205   3.212 -0.1004  0.2567 -0.7338
11259TIP3    H155192   5.292   4.209   3.185 -0.4281  0.3235 -1.8686
11259TIP3    H255193   5.170   4.119   3.182 -0.3493  0.1247 -0.1268
11260TIP3   OH255194   0.327   5.559  16.219  0.1883 -0.0815 -0.3861
11260TIP3    H155195   0.311   5.555  16.125  0.2747 -0.3998 -0.3871
11260TIP3    H255196   0.295   5.475  16.252 -2.8141  1.2161  0.3306
11261TIP3   OH255197   0.559   2.075   3.250 -0.0502  0.0732 -0.0695
11261TIP3    H155198   0.515   2.028   3.320  1.4370 -0.6406  0.4249
11261TIP3    H255199   0.532   2.030   3.170 -0.8477  0.1651  0.1419
11262TIP3   OH255200   2.444   4.179   5.999  0.3655  0.6491 -0.4472
11262TIP3    H155201   2.534   4.173   6.029  0.6021  1.4682 -0.9618
11262TIP3    H255202   2.392   4.153   6.075  0.9994  1.3993  0.2687
11263TIP3   OH255203   2.738   3.377  13.822  0.3716 -0.0931 -0.0442
11263TIP3    H155204   2.829   3.355  13.840  0.6308  0.5339 -0.5542
11263TIP3    H255205   2.742   3.448  13.758 -0.4751 -0.0624 -0.0821
11264TIP3   OH255206   3.571   6.122   1.420  0.2629 -0.5477 -0.0538
11264TIP3    H155207   3.542   6.035   1.395 -0.6440 -0.6374  1.2136
11264TIP3    H255208   3.491   6.174   1.427  0.5907 -0.1742  1.2248
11265TIP3   OH255209   5.727   4.580  14.140 -0.5010  0.0498  0.6701
11265TIP3    H155210   5.761   4.491  14.150 -1.5756 -0.5591 -0.8091
11265TIP3    H255211   5.805   4.633  14.121 -0.1188 -1.0310 -1.0083
11266TIP3   OH255212   1.363   5.376  16.518  0.0835 -0.5116  0.4347
11266TIP3    H155213   1.290   5.357  16.459  0.1962  0.6642 -0.0973
11266TIP3    H255214   1.441   5.363  16.464  0.1790  0.8233  0.2258
11267TIP3   OH255215   2.237   1.461  15.513  0.4204 -0.4162 -0.1090
11267TIP3    H155216   2.152   1.444  15.472  0.3470 -0.2843 -0.0143
11267TIP3    H255217   2.248   1.390  15.575 -0.4314  0.4898  1.1380
11268TIP3   OH255218   1.491   3.896   2.742  0.0876 -0.3249  0.1143
11268TIP3    H155219   1.441   3.814   2.745 -1.6115  0.6624  0.1879
11268TIP3    H255220   1.519   3.910   2.833  0.9066 -1.1238 -0.0121
11269TIP3   OH255221   0.455   4.595   4.617  0.4936  0.1543  0.4110
11269TIP3    H155222   0.365   4.576   4.589  1.0081 -0.2226 -1.0592
11269TIP3    H255223   0.499   4.625   4.538  1.7232  0.1517  1.0711
11270TIP3   OH255224   5.981   3.551   5.098 -0.3361  0.2673  0.3817
11270TIP3    H155225   5.903   3.595   5.131 -1.2575 -0.5858 -0.5679
11270TIP3    H255226   6.018   3.507   5.174 -2.5829 -1.9182  0.3144
11271TIP3   OH255227   2.499   5.022  11.402  0.2333 -0.2704 -0.8496
11271TIP3    H155228   2.445   4.943  11.397 -0.5854  0.1367  0.8978
11271TIP3    H255229   2.502   5.053  11.312  0.7462 -2.3741 -1.6330
11272TIP3   OH255230   3.185   0.754  16.844 -0.3843  0.1571 -0.2342
11272TIP3    H155231   3.197   0.844  16.876 -2.5002 -0.1853  1.7298
11272TIP3    H255232   3.154   0.765  16.754  1.5231  1.2830 -0.8167
11273TIP3   OH255233   4.243   2.595  16.365 -0.1235 -0.4152  0.0655
11273TIP3    H155234   4.212   2.521  16.417 -0.9243 -0.2012 -0.0963
11273TIP3    H255235   4.295   2.555  16.295 -2.0969 -1.0118 -1.1513
11274TIP3   OH255236   5.195   1.449   3.173 -0.2549  0.0319 -0.2786
11274TIP3    H155237   5.269   1.481   3.223 -0.8014 -0.4769  0.8789
11274TIP3    H255238   5.210   1.482   3.084 -0.1411  2.3916  0.5582
11275TIP3   OH255239   6.311   5.889   4.233 -0.2043  0.0885 -0.4623
11275TIP3    H155240   6.357   5.821   4.183  1.2178  0.7319 -0.0944
11275TIP3    H255241   6.361   5.896   4.314 -0.8035  1.0131 -0.1609
11276TIP3   OH255242   4.192   6.387   4.603  0.2854 -0.1124 -0.2879
11276TIP3    H155243   4.163   6.478   4.592 -0.8030 -0.5477 -1.0579
11276TIP3    H255244   4.230   6.386   4.691 -1.9474  0.5114  0.7564
11277TIP3   OH255245   3.126   3.262   3.732 -0.1633  0.1034 -0.1192
11277TIP3    H155246   3.068   3.201   3.687 -0.9846  0.0284  1.0014
11277TIP3    H255247   3.214   3.232   3.710 -0.4018  1.5346 -3.6839
11278TIP3   OH255248   4.434   1.941   3.925  0.1009  0.1794 -0.1734
11278TIP3    H155249   4.442   2.028   3.887 -0.8137  0.1162 -0.5411
11278TIP3    H255250   4.495   1.887   3.875  0.3384  0.5060 -0.2407
11279TIP3   OH255251   1.697   6.039   3.351  0.1579  0.4226  0.2199
11279TIP3    H155252   1.677   6.111   3.291 -0.7158  0.6621  0.7883
11279TIP3    H255253   1.638   5.968   3.323 -0.3541  0.5834  0.8808
11280TIP3   OH255254   2.333   4.569  14.116  0.7190 -0.1779  0.2464
11280TIP3    H155255   2.358   4.564  14.024  0.2873 -0.3343  0.1356
11280TIP3    H255256   2.416   4.559  14.164  1.1788  1.4679 -0.1309
11281TIP3   OH255257   0.479   1.385   1.500  0.3375 -0.4394 -0.4165
11281TIP3    H155258   0.548   1.436   1.543 -0.1051  0.1999 -0.4620
11281TIP3    H255259   0.498   1.294   1.526  0.2947 -0.1108  0.8461
11282TIP3   OH255260   4.877   0.283  17.197  0.4436 -0.4693  0.2259
11282TIP3    H155261   4.883   0.372  17.232 -0.3523  0.2200 -1.2810
11282TIP3    H255262   4.783   0.269  17.181  0.7228 -0.8498 -1.2651
11283TIP3   OH255263   4.726   3.673  15.143  0.2994  0.2958 -0.2670
11283TIP3    H155264   4.776   3.716  15.074 -0.0513 -0.9328 -1.3115
11283TIP3    H255265   4.649   3.637  15.099 -0.4977  0.4225  0.9644
11284TIP3   OH255266   3.525   2.057   1.820 -0.5910 -0.1864 -0.2071
11284TIP3    H155267   3.515   2.064   1.915 -0.6227  1.3482 -0.2898
11284TIP3    H255268   3.445   2.096   1.785 -0.4752 -0.5248 -0.8697
11285TIP3   OH255269   3.188   2.792   2.899 -0.1846  0.5877 -0.1094
11285TIP3    H155270   3.275   2.751   2.896 -0.7936 -0.7209 -0.6697
11285TIP3    H255271   3.175   2.815   2.991  1.5678  2.6956 -0.3054
11286TIP3   OH255272   4.279   3.231  15.642 -0.1030  0.4848  0.7714
11286TIP3    H155273   4.246   3.172  15.574 -0.4019 -1.1870  2.2853
11286TIP3    H255274   4.296   3.313  15.597  0.2336 -0.7204 -1.4194
11287TIP3   OH255275   0.414   4.762   0.867  0.5089 -0.0960 -0.3481
11287TIP3    H155276   0.340   4.763   0.805  0.6024  2.2985 -0.4892
11287TIP3    H255277   0.474   4.828   0.835  0.1612  1.9211  2.7172
11288TIP3   OH255278   3.213   1.466  16.724  0.3200  0.7999 -0.0647
11288TIP3    H155279   3.134   1.412  16.724  0.4675  0.5821 -0.3304
11288TIP3    H255280   3.263   1.435  16.800  0.0665  1.0594  0.2053
11289TIP3   OH255281   2.201   2.120  15.215 -0.4102 -0.7188  0.3940
11289TIP3    H155282   2.200   2.035  15.260  1.1571  0.0548  2.0133
11289TIP3    H255283   2.231   2.182  15.282 -0.3453  0.9250 -1.0890
11290TIP3   OH255284   3.598   2.770  11.827  0.3031 -0.0169 -0.5002
11290TIP3    H155285   3.590   2.851  11.777 -0.1571  0.1687 -0.1287
11290TIP3    H255286   3.679   2.779  11.876 -0.1877  0.5956  0.2125
11291TIP3   OH255287   3.327   4.754  11.917 -0.2554 -0.0262 -0.4852
11291TIP3    H155288   3.338   4.769  12.011 -0.1673  1.7299 -0.7405
11291TIP3    H255289   3.393   4.688  11.895 -0.1336 -0.2931  0.6457
11292TIP3   OH255290   4.617   0.375   5.070  0.3378 -0.3407 -0.5400
11292TIP3    H155291   4.615   0.353   5.163  1.2059 -1.0021 -0.6577
11292TIP3    H255292   4.643   0.467   5.067  1.3019 -0.5894 -0.1416
11293TIP3   OH255293   2.634   5.307   5.555  0.1058 -0.0404  0.2238
11293TIP3    H155294   2.722   5.274   5.573  0.1334 -0.1072 -0.0290
11293TIP3    H255295   2.589   5.234   5.513  0.3834  0.4428 -0.9678
11294TIP3   OH255296   1.985   3.420  15.086 -0.7076  0.4536 -0.1388
11294TIP3    H155297   1.938   3.501  15.106 -1.3025 -0.4272  2.4834
11294TIP3    H255298   2.078   3.443  15.099 -0.8611  0.7491  0.4810
11295TIP3   OH255299   0.082   5.931   2.037  0.1969  0.0394 -0.5740
11295TIP3    H155300  -0.001   5.907   2.079 -0.5881 -1.6362 -2.8726
11295TIP3    H255301   0.062   6.010   1.987 -0.4284 -1.0206 -2.0835
11296TIP3   OH255302   6.671   0.538   0.539  0.1397  0.1797  0.3156
11296TIP3    H155303   6.593   0.544   0.594 -0.8542  0.5024 -1.0697
11296TIP3    H255304   6.732   0.483   0.589  0.3225  2.4639  2.8722
11297TIP3   OH255305   0.402   6.113  12.651 -0.2960 -0.1442  0.0879
11297TIP3    H155306   0.413   6.085  12.560  1.1767 -0.1158  0.2441
11297TIP3    H255307   0.337   6.052  12.687 -0.3953 -0.5733 -0.7950
11298TIP3   OH255308   6.745   2.889  14.193  0.4336 -0.3258 -0.1971
11298TIP3    H155309   6.827   2.925  14.227  0.8061 -2.3523  1.2166
11298TIP3    H255310   6.738   2.802  14.233 -0.9714 -1.3820 -2.5424
11299TIP3   OH255311   2.849   0.910  14.175 -0.2196  0.5179 -0.2396
11299TIP3    H155312   2.776   0.884  14.232  0.0976 -1.4540 -0.6510
11299TIP3    H255313   2.811   0.912  14.087  0.0907 -0.0420 -0.3928
11300TIP3   OH255314   5.228   3.404  13.573  0.0061  0.4524 -0.3230
11300TIP3    H155315   5.196   3.369  13.656  1.7286  0.6874  0.4885
11300TIP3    H255316   5.154   3.453  13.537 -0.8035  0.2758  1.0385
11301TIP3   OH255317   1.563   4.525   0.042  0.2726 -0.7132  0.2261
11301TIP3    H155318   1.499   4.563  -0.017  1.3562 -0.5781 -0.8934
11301TIP3    H255319   1.569   4.587   0.115 -0.6071 -0.5689  0.1864
11302TIP3   OH255320   2.546   3.977   2.454  0.2295  0.2319  0.1000
11302TIP3    H155321   2.640   3.964   2.470  0.1497 -0.8672 -0.2140
11302TIP3    H255322   2.505   3.900   2.494 -0.2675 -0.8407 -2.2871
11303TIP3   OH255323   1.997   0.540   0.715 -0.9658 -0.5993 -0.0967
11303TIP3    H155324   2.084   0.555   0.752 -0.4713 -1.8077 -0.7357
11303TIP3    H255325   1.958   0.628   0.711  0.9814  0.2851 -1.6631
11304TIP3   OH255326   2.053   6.208  14.735  0.0620 -0.4497  0.7209
11304TIP3    H155327   2.075   6.167  14.651 -1.0031 -0.3672  0.3958
11304TIP3    H255328   2.133   6.256  14.759  0.3967 -0.5165 -0.2152
11305TIP3   OH255329   3.163   0.975   6.030 -0.5637  0.3324 -0.1376
11305TIP3    H155330   3.164   1.057   5.980 -0.6829 -0.5577 -1.6472
11305TIP3    H255331   3.087   0.983   6.087  0.0567  1.7213  0.5576
11306TIP3   OH255332   3.884   5.018   5.818 -0.0040 -0.3625  0.0949
11306TIP3    H155333   3.927   4.937   5.792  1.3068  0.6904 -1.1664
11306TIP3    H255334   3.890   5.019   5.913  0.1435 -1.6330  0.1165
11307TIP3   OH255335   3.275   1.297   2.503  0.3684  0.0230  0.0463
11307TIP3    H155336   3.370   1.298   2.512  0.4142  0.5195 -0.4287
11307TIP3    H255337   3.244   1.342   2.582  0.7206  3.2975 -1.4973
11308TIP3   OH255338   5.370   1.455  11.663 -0.4412  0.4784  0.0785
11308TIP3    H155339   5.391   1.509  11.586  0.2240  0.4048  0.2038
11308TIP3    H255340   5.443   1.394  11.670 -0.3138  0.7205  0.9829
11309TIP3   OH255341   1.524   2.146   0.440  0.0589  0.1124  0.0684
11309TIP3    H155342   1.551   2.073   0.385  2.2809  0.3905  0.6858
11309TIP3    H255343   1.449   2.112   0.490 -0.9645 -0.6628 -1.8847
11310TIP3   OH255344   5.681   3.459  12.800  0.1848  0.0232 -0.1683
11310TIP3    H155345   5.772   3.458  12.829  0.3180  0.3543 -0.5590
11310TIP3    H255346   5.667   3.547  12.766  0.2267 -0.4970 -1.6387
11311TIP3   OH255347   1.086   2.495  16.886 -0.2955  0.3267  0.1029
11311TIP3    H155348   1.070   2.510  16.980 -2.5497 -1.6533  0.1409
11311TIP3    H255349   1.127   2.409  16.883 -1.8939 -0.4546 -0.7511
11312TIP3   OH255350   5.158   2.455   1.307 -0.0911  0.9489  0.5030
11312TIP3    H155351   5.067   2.472   1.284  0.6198  0.9433 -3.0139
11312TIP3    H255352   5.155   2.422   1.396 -3.4721  1.3047  0.6479
11313TIP3   OH255353   0.520   2.607   0.066  0.4028 -0.6035 -0.1721
11313TIP3    H155354   0.441   2.660   0.074  0.4823 -0.2595 -1.4851
11313TIP3    H255355   0.489   2.519   0.044  0.3012 -0.9954  1.4247
11314TIP3   OH255356   5.215   2.978   3.541 -0.1503 -0.1252 -0.0814
11314TIP3    H155357   5.194   2.926   3.619 -0.8976  0.4301  0.0995
11314TIP3    H255358   5.199   2.918   3.468  1.1232 -0.8365  0.2006
11315TIP3   OH255359   1.774   2.511   3.930  0.1455  0.4193  0.1311
11315TIP3    H155360   1.794   2.602   3.906 -2.1741  0.9313 -0.1305
11315TIP3    H255361   1.749   2.516   4.023 -1.8691  0.4509 -0.3620
11316TIP3   OH255362   1.321   1.512   4.635 -0.5996  0.2200 -0.8286
11316TIP3    H155363   1.349   1.495   4.725  1.3677  0.8597 -1.2627
11316TIP3    H255364   1.297   1.426   4.600 -2.1729  0.0709  0.5121
11317TIP3   OH255365   0.030   2.185  13.247  0.1223 -0.1048 -0.2483
11317TIP3    H155366  -0.022   2.218  13.321 -0.3182 -0.6329 -0.3187
11317TIP3    H255367   0.042   2.092  13.265  0.3994 -0.1456 -0.6216
11318TIP3   OH255368   5.319   2.902  15.250  0.1523 -0.1492 -0.3568
11318TIP3    H155369   5.258   2.949  15.194  2.0823  0.9054 -1.6529
11318TIP3    H255370   5.397   2.957  15.254  1.4694 -1.9504  0.3214
11319TIP3   OH255371   2.638   5.805  12.153  0.4151 -0.8280  0.0680
11319TIP3    H155372   2.630   5.893  12.117 -0.6003 -0.7518  0.4514
11319TIP3    H255373   2.674   5.817  12.241 -1.9257 -0.5490  1.0691
11320TIP3   OH255374   6.089   3.759   2.198 -0.1970 -0.0307  0.1827
11320TIP3    H155375   6.109   3.852   2.201 -2.3273  0.4826 -0.2114
11320TIP3    H255376   6.006   3.753   2.150 -0.1077 -2.1256  0.1899
11321TIP3   OH255377   4.022   6.100  12.729 -0.5574  0.2100 -0.2448
11321TIP3    H155378   3.989   6.147  12.652  0.5959  1.2068 -0.1427
11321TIP3    H255379   3.944   6.083  12.782 -1.2661  0.1572 -1.2727
11322TIP3   OH255380   0.768   3.086   4.858  0.1803  0.5367  0.4621
11322TIP3    H155381   0.846   3.111   4.907 -0.1324  0.9300  0.7650
11322TIP3    H255382   0.696   3.123   4.908 -0.2169 -0.0302  0.3094
11323TIP3   OH255383   3.366   3.367  14.407  0.0233 -0.1316 -0.4042
11323TIP3    H155384   3.430   3.312  14.360  0.1354 -0.0538 -0.3427
11323TIP3    H255385   3.345   3.436  14.345 -1.6719 -1.3612 -1.2790
11324TIP3   OH255386   3.215   6.285  10.496 -0.1742  0.3085 -0.2719
11324TIP3    H155387   3.213   6.189  10.498 -1.1584  0.3232  0.6549
11324TIP3    H255388   3.123   6.310  10.498  0.0837  1.2744 -0.3525
11325TIP3   OH255389   1.199   6.256   3.640  0.0865 -0.2330 -0.5546
11325TIP3    H155390   1.224   6.167   3.616  0.4925  0.1605 -1.6395
11325TIP3    H255391   1.162   6.294   3.560 -0.3952  0.4727 -0.0231
11326TIP3   OH255392   2.883   5.352   1.862 -0.0703 -0.3469 -0.3323
11326TIP3    H155393   2.891   5.327   1.770 -0.0717  1.6062 -0.9226
11326TIP3    H255394   2.794   5.387   1.871  0.5257  1.2264 -0.1112
11327TIP3   OH255395   5.259   5.813   0.864  0.3452  0.3149 -0.4201
11327TIP3    H155396   5.351   5.830   0.888  0.5408 -2.8407  1.6666
11327TIP3    H255397   5.209   5.860   0.930  0.6174 -0.6910  0.5340
11328TIP3   OH255398   5.512   2.366  12.535  0.0047  0.0566  0.2357
11328TIP3    H155399   5.558   2.437  12.581 -0.1446  0.0923  0.3334
11328TIP3    H255400   5.450   2.411  12.478 -0.5646 -0.0005  0.7972
11329TIP3   OH255401   2.719   5.852  12.415 -0.7317 -0.0067 -0.6259
11329TIP3    H155402   2.798   5.900  12.387 -1.1864  0.9233 -0.3427
11329TIP3    H255403   2.711   5.871  12.508 -0.9885 -0.5503 -0.5335
11330TIP3   OH255404   6.313   6.343   1.914 -0.3126 -0.0520  0.4781
11330TIP3    H155405   6.231   6.393   1.911 -0.0314  0.3871 -0.3648
11330TIP3    H255406   6.377   6.400   1.870  0.4963 -0.3003  1.3005
11331TIP3   OH255407   5.842   3.827   2.102  0.8564 -0.0785 -0.2165
11331TIP3    H155408   5.858   3.890   2.032  1.6533 -1.5394 -1.4036
11331TIP3    H255409   5.803   3.879   2.173 -0.5739  1.3435 -1.9408
11332TIP3   OH255410   3.109   5.512   5.188  0.1720  0.3505  0.2563
11332TIP3    H155411   3.020   5.520   5.222  0.5612 -0.9601  1.7130
11332TIP3    H255412   3.103   5.545   5.099 -1.5816  1.0819  0.5857
11333TIP3   OH255413   1.575   3.935   3.000  0.3075  0.5332  0.3759
11333TIP3    H155414   1.602   4.025   3.017  0.6698  0.6366 -0.6893
11333TIP3    H255415   1.502   3.920   3.061 -0.0058  1.6684  0.3095
11334TIP3   OH255416   4.587   4.913  13.134 -0.2909  0.0740  0.2215
11334TIP3    H155417   4.612   5.006  13.136 -1.4516  0.3919  0.9080
11334TIP3    H255418   4.670   4.866  13.145  0.5126  0.9693 -1.5115
11335TIP3   OH255419   6.435   1.598   1.883  0.0408 -0.2416 -0.4964
11335TIP3    H155420   6.429   1.683   1.840  1.0312 -0.4265 -1.0242
11335TIP3    H255421   6.390   1.538   1.824 -1.3965  0.0301  0.2715
11336TIP3   OH255422   5.640   3.665  14.648 -0.8681  0.2761  0.1818
11336TIP3    H155423   5.729   3.689  14.621 -0.4506 -1.9887 -0.6919
11336TIP3    H255424   5.629   3.706  14.734  1.2916  0.0522  0.6263
11337TIP3   OH255425   0.414   3.068   5.873  0.5948  0.2957  0.0695
11337TIP3    H155426   0.438   3.143   5.927 -0.5177 -1.4335  3.2357
11337TIP3    H255427   0.318   3.065   5.879  0.6414 -1.5415  0.3615
11338TIP3   OH255428   0.109   5.692   4.846  0.1777  0.1048 -0.0556
11338TIP3    H155429   0.194   5.714   4.806  0.5796 -0.5962  0.3834
11338TIP3    H255430   0.133   5.653   4.930 -0.6222  0.7329  0.4765
11339TIP3   OH255431   0.764   0.132   6.096 -0.0280 -0.1940  0.1192
11339TIP3    H155432   0.808   0.175   6.169 -1.5476 -1.0948  1.6223
11339TIP3    H255433   0.695   0.081   6.136  0.1748 -2.1340 -1.8202
11340TIP3   OH255434   0.521   5.333  14.127 -0.2757  0.0056  0.2989
11340TIP3    H155435   0.568   5.251  14.138 -0.0713  0.0196 -0.3955
11340TIP3    H255436   0.568   5.379  14.057 -0.7368  0.4479  0.2679
11341TIP3   OH255437   5.177   4.020  11.768  0.5924 -0.3484 -0.1493
11341TIP3    H155438   5.154   4.054  11.682  0.4189 -1.7189 -0.6650
11341TIP3    H255439   5.273   4.021  11.769  0.5911  0.0699 -0.1841
11342TIP3   OH255440   5.390   5.547   4.913 -0.2258 -0.6431 -0.6138
11342TIP3    H155441   5.484   5.542   4.928 -0.3773  0.6721  1.1443
11342TIP3    H255442   5.371   5.475   4.853  1.6721 -1.8384  0.1275
11343TIP3   OH255443   2.008   2.334  12.985 -0.3678 -0.1528 -0.3635
11343TIP3    H155444   1.962   2.320  12.903 -0.8292 -0.6010 -0.0261
11343TIP3    H255445   1.994   2.254  13.036 -0.6961  0.3987  0.4440
11344TIP3   OH255446   1.616   2.633  16.564 -0.1698 -0.1182  0.2603
11344TIP3    H155447   1.621   2.727  16.546  0.0940 -0.2101 -0.1792
11344TIP3    H255448   1.525   2.609  16.545 -0.4249  0.1838  1.0857
11345TIP3   OH255449   6.674   0.397   3.510  0.9696 -0.4906  0.2827
11345TIP3    H155450   6.725   0.330   3.557 -0.0615 -0.3058  1.7200
11345TIP3    H255451   6.735   0.470   3.499  0.9871 -0.1722  2.2147
11346TIP3   OH255452   6.796   1.839  16.678  0.7901 -0.4660  0.0418
11346TIP3    H155453   6.788   1.745  16.660  1.3607 -0.5415  0.1470
11346TIP3    H255454   6.708   1.873  16.668  0.4173 -1.1605  0.8527
11347TIP3   OH255455   2.705   4.523   5.178 -0.0856  0.2174 -0.3853
11347TIP3    H155456   2.698   4.610   5.137  0.1511  0.2991 -0.2510
11347TIP3    H255457   2.620   4.482   5.159  0.0975  0.1697 -1.1413
11348TIP3   OH255458   3.893   6.584  16.160 -0.2916 -0.2592 -0.3311
11348TIP3    H155459   3.915   6.544  16.244 -0.6412  0.6939  0.2287
11348TIP3    H255460   3.968   6.641  16.140  0.2102 -1.1618 -1.1275
11349TIP3   OH255461   5.347   3.054  10.439  0.1471  0.4894 -0.7360
11349TIP3    H155462   5.370   3.019  10.525  1.7245  1.4472 -0.7116
11349TIP3    H255463   5.402   3.133  10.431 -0.0207  0.4529 -2.5811
11350TIP3   OH255464   4.758   6.780  10.944 -0.5691  0.2401 -0.1134
11350TIP3    H155465   4.699   6.726  10.892  0.4488 -1.2160  0.1712
11350TIP3    H255466   4.775   6.857  10.890 -0.5033 -0.6493 -1.4041
11351TIP3   OH255467   6.148   0.663   4.263 -0.0742  0.2311  0.2984
11351TIP3    H155468   6.204   0.701   4.196  2.1172 -2.2606  0.5377
11351TIP3    H255469   6.094   0.600   4.217  1.7783 -1.8445  0.7921
11352TIP3   OH255470   1.994   1.514   0.282 -0.3478 -0.2831 -0.0839
11352TIP3    H155471   2.009   1.502   0.376  0.3031  0.9239 -0.0119
11352TIP3    H255472   2.018   1.430   0.243  1.0230 -0.2748  0.6687
11353TIP3   OH255473   0.565   2.028  12.810 -0.1971  0.4788 -0.6708
11353TIP3    H155474   0.626   2.071  12.750 -0.2014 -0.1401 -1.1204
11353TIP3    H255475   0.490   2.005  12.756 -0.0823 -0.3300 -0.4969
11354TIP3   OH255476   2.924   2.650  13.220 -0.4009  0.2919  0.5612
11354TIP3    H155477   2.962   2.594  13.152 -0.9190  1.1916 -0.4915
11354TIP3    H255478   2.859   2.594  13.264 -1.5500  0.2999 -1.0581
11355TIP3   OH255479   1.476   0.922   5.640 -0.5404 -0.3718 -0.2304
11355TIP3    H155480   1.478   0.828   5.653  0.6719 -0.2996  0.1934
11355TIP3    H255481   1.568   0.950   5.645 -0.9719  0.9759  0.7373
11356TIP3   OH255482   0.750   2.473  11.966 -0.1371  0.7878 -0.0904
11356TIP3    H155483   0.680   2.415  11.937 -0.0751  0.1988  0.8895
11356TIP3    H255484   0.830   2.432  11.934  0.0105 -0.3850  1.6552
11357TIP3   OH255485   0.732   6.409   5.749  0.4555 -0.0228  0.2963
11357TIP3    H155486   0.819   6.369   5.753 -0.5675 -2.3763  0.6501
11357TIP3    H255487   0.674   6.343   5.787 -1.5512  1.3346 -0.2768
11358TIP3   OH255488   0.274   0.125  14.517  0.0884 -0.5051 -0.0551
11358TIP3    H155489   0.198   0.163  14.475  0.2025  0.5437  0.6594
11358TIP3    H255490   0.266   0.031  14.500 -0.3370 -0.2117 -1.6095
11359TIP3   OH255491   5.923   4.037   0.836 -0.2461  0.0461  0.1639
11359TIP3    H155492   5.911   4.044   0.931 -1.5503 -0.1310  0.0240
11359TIP3    H255493   5.999   3.980   0.827  0.0243  0.2296  1.1067
11360TIP3   OH255494   3.393   6.049  11.432  0.1222  0.5248  0.1742
11360TIP3    H155495   3.353   6.062  11.346  0.5696 -0.9140 -0.2834
11360TIP3    H255496   3.325   6.077  11.494 -0.3485  1.2205 -0.6292
11361TIP3   OH255497   6.627   5.287  11.371 -0.4396  0.0757  0.4529
11361TIP3    H155498   6.548   5.303  11.319 -2.3585 -0.2123  3.0789
11361TIP3    H255499   6.672   5.216  11.325 -1.8709  0.0198 -0.9336
11362TIP3   OH255500   2.389   6.775   3.913  0.2863 -0.3896 -0.2392
11362TIP3    H155501   2.343   6.698   3.877  0.3172 -1.2044  1.3916
11362TIP3    H255502   2.476   6.770   3.874 -0.0441 -0.5512 -0.9912
11363TIP3   OH255503   4.946   1.804   2.877 -0.1824 -0.1465  0.0798
11363TIP3    H155504   4.892   1.774   2.950  1.6678  1.0543  2.0230
11363TIP3    H255505   5.010   1.862   2.916  1.4490 -0.1356 -2.4008
11364TIP3   OH255506   0.233   2.970   3.908  0.0437 -0.4496 -0.0034
11364TIP3    H155507   0.204   2.912   3.979 -4.8487  1.7840  0.2337
11364TIP3    H255508   0.197   2.931   3.829  0.2129  0.1932 -0.4045
11365TIP3   OH255509   6.692   3.930  14.917 -0.3138 -0.0099  0.1871
11365TIP3    H155510   6.677   3.946  15.010 -0.0315  0.3699  0.1685
11365TIP3    H255511   6.707   3.835  14.912 -0.1318 -0.0040  0.5565
11366TIP3   OH255512   3.685   4.694  15.935  0.5840  0.9669  0.4813
11366TIP3    H155513   3.650   4.760  15.994 -1.1684  0.2618  0.2763
11366TIP3    H255514   3.681   4.733  15.848 -0.8966  0.4624  0.2970
11367TIP3   OH255515   5.089   2.346  13.717 -0.5614 -0.2942  0.2778
11367TIP3    H155516   4.996   2.364  13.699 -0.8905 -2.7605 -0.9028
11367TIP3    H255517   5.121   2.304  13.637  0.7683 -2.2106  1.7400
11368TIP3   OH255518   1.583   4.814  10.815  0.4956  0.1925 -0.1737
11368TIP3    H155519   1.580   4.876  10.743 -0.6799 -0.0196 -0.3193
11368TIP3    H255520   1.615   4.733  10.776 -0.6087 -0.0643 -0.5851
11369TIP3   OH255521   0.157   5.305   6.529  0.0587  0.2103 -0.0452
11369TIP3    H155522   0.162   5.317   6.624  0.2074 -0.9738  0.1105
11369TIP3    H255523   0.212   5.375   6.493  0.4564  0.3293  0.7738
11370TIP3   OH255524   4.085   3.053   1.512  0.6157  0.0628  0.3892
11370TIP3    H155525   4.163   3.058   1.567  0.3821 -1.1907  0.8678
11370TIP3    H255526   4.109   2.993   1.442  1.1435  2.1591 -1.3515
11371TIP3   OH255527   1.958   5.324   4.681 -0.6785  0.0986  0.2522
11371TIP3    H155528   1.978   5.417   4.697 -0.4765  0.0863  0.0753
11371TIP3    H255529   1.901   5.325   4.604  0.8832 -0.0378 -0.9655
11372TIP3   OH255530   4.866   4.619  14.991 -0.1612 -0.2766 -0.2210
11372TIP3    H155531   4.940   4.677  15.009  0.4488 -0.8464 -0.8782
11372TIP3    H255532   4.859   4.617  14.895 -2.0924  1.1055 -0.1797
11373TIP3   OH255533   1.993   5.970   1.902  0.0136  0.8772  0.3103
11373TIP3    H155534   1.945   5.902   1.949  0.9725 -0.3915 -0.4717
11373TIP3    H255535   1.927   6.010   1.845 -0.4335  0.1129  0.2689
11374TIP3   OH255536   4.470   5.498  13.078  0.5398 -0.3644 -0.2325
11374TIP3    H155537   4.439   5.583  13.108 -0.5511  0.1184 -2.4849
11374TIP3    H255538   4.564   5.509  13.067  0.8018 -0.2384  1.7583
11375TIP3   OH255539   2.429   5.902  12.848 -0.2942  0.4581 -0.5964
11375TIP3    H155540   2.478   5.881  12.928 -0.1403  0.8678 -0.5803
11375TIP3    H255541   2.484   5.869  12.777 -0.7900 -0.6073 -0.5113
11376TIP3   OH255542   5.063   3.959  15.377  0.0221  0.3300 -0.2564
11376TIP3    H155543   5.026   3.882  15.335 -0.7352 -0.0208  0.9969
11376TIP3    H255544   5.031   4.033  15.324 -1.2346 -0.0722 -0.0903
11377TIP3   OH255545   6.813   0.805  14.886  0.2643 -0.0675  0.0750
11377TIP3    H155546   6.794   0.835  14.974 -1.2744  1.9506 -0.8555
11377TIP3    H255547   6.730   0.814  14.839  1.1754 -0.4930 -1.7293
11378TIP3   OH255548   0.636   0.721  11.228 -0.5851  0.4965 -0.0105
11378TIP3    H155549   0.673   0.693  11.145 -1.6202  1.1510 -0.7129
11378TIP3    H255550   0.705   0.774  11.269  1.7677 -3.4582  1.7263
11379TIP3   OH255551   0.425   5.015   5.932  0.1695  0.1012 -0.1649
11379TIP3    H155552   0.452   4.926   5.956 -1.9525 -0.1503  1.6199
11379TIP3    H255553   0.375   5.003   5.851  1.8665  0.0501 -1.2566
11380TIP3   OH255554   0.457   6.415  12.521  0.4441  0.2081  0.4493
11380TIP3    H155555   0.531   6.476  12.525  0.7016 -0.0906  0.2177
11380TIP3    H255556   0.494   6.333  12.489 -0.2246  0.4288 -0.9741
11381TIP3   OH255557   4.490   6.436  11.498  0.0656  0.4735 -0.2311
11381TIP3    H155558   4.564   6.496  11.484  0.0955  0.6444  0.6385
11381TIP3    H255559   4.465   6.409  11.409  0.0344  1.8000 -0.6485
11382TIP3   OH255560   6.295   1.835  16.033  0.2765  0.3648  0.4051
11382TIP3    H155561   6.337   1.759  15.993 -0.6717  0.4718 -0.8486
11382TIP3    H255562   6.206   1.806  16.052 -0.5540  1.5501 -1.4313
11383TIP3   OH255563   6.141   5.070   3.807  0.6322 -0.1046  0.3157
11383TIP3    H155564   6.096   5.036   3.884  0.4664 -2.2344 -0.6330
11383TIP3    H255565   6.085   5.140   3.775  1.3961  1.7877  2.8407
11384TIP3   OH255566   4.111   3.974  16.307  0.4210  0.0490  0.1583
11384TIP3    H155567   4.166   3.998  16.233  0.6934 -0.3901  0.2141
11384TIP3    H255568   4.090   4.057  16.350  1.0695  0.2169  0.1568
11385TIP3   OH255569   1.982   5.691  12.563 -0.3871 -0.4377 -0.2646
11385TIP3    H155570   2.071   5.703  12.593 -1.0468 -0.6267  1.8973
11385TIP3    H255571   1.970   5.596  12.561 -1.4130 -0.4575  2.4630
11386TIP3   OH255572   6.153   3.680  13.775  0.0628  0.0370 -0.2081
11386TIP3    H155573   6.226   3.642  13.823  0.8299 -0.9409 -2.0439
11386TIP3    H255574   6.127   3.611  13.713 -1.8810  0.6648 -0.1517
11387TIP3   OH255575   3.472   0.947  10.808  0.5107 -0.1742 -0.1038
11387TIP3    H155576   3.393   0.962  10.860 -0.0176 -1.8779 -0.3669
11387TIP3    H255577   3.440   0.915  10.724  1.4469  0.4109 -0.7036
11388TIP3   OH255578   4.116   4.992   3.346 -0.4561 -0.1069  0.4116
11388TIP3    H155579   4.108   5.058   3.277 -0.9766  0.1949  0.7500
11388TIP3    H255580   4.117   4.908   3.299 -0.8159  0.0953  0.0376
11389TIP3   OH255581   0.226   5.053   3.272  0.0493  0.3590 -0.0468
11389TIP3    H155582   0.144   5.003   3.268 -1.2030  2.0147  2.1315
11389TIP3    H255583   0.205   5.136   3.228  2.0869 -0.8129 -3.6360
11390TIP3   OH255584   1.041   4.830   4.113  0.3291  0.0863  0.4125
11390TIP3    H155585   0.969   4.889   4.091  2.1471  2.6292  0.8363
11390TIP3    H255586   0.999   4.759   4.161 -1.8429  1.8183  1.3061
11391TIP3   OH255587   5.135   2.375   0.054  0.3255 -0.4153 -0.4054
11391TIP3    H155588   5.102   2.291   0.084 -1.6549  0.2238 -0.6549
11391TIP3    H255589   5.183   2.355  -0.026 -0.9597 -1.2358 -1.0067
11392TIP3   OH255590   6.760   3.905   2.578 -0.0548 -0.1344 -0.4333
11392TIP3    H155591   6.695   3.894   2.647 -0.4046  1.8722 -0.3784
11392TIP3    H255592   6.834   3.947   2.622  0.1241  0.2353 -1.0816
11393TIP3   OH255593   4.176   5.012   4.273 -0.1906 -0.1107  0.0773
11393TIP3    H155594   4.136   5.028   4.359 -2.1746  1.7791 -1.0862
11393TIP3    H255595   4.162   4.919   4.256 -0.1940 -0.4034  1.5641
11394TIP3   OH255596   4.040   5.722   5.273 -0.1552  0.3075  0.1030
11394TIP3    H155597   4.042   5.637   5.229  0.6916 -0.4206  1.4964
11394TIP3    H255598   4.130   5.754   5.266  0.1799 -0.1418  1.8485
11395TIP3   OH255599   1.216   0.879   0.942 -0.1202 -0.0239 -0.3549
11395TIP3    H155600   1.275   0.927   0.884  0.5587  1.4368  1.4657
11395TIP3    H255601   1.141   0.858   0.887  1.5240 -0.8322 -2.3955
11396TIP3   OH255602   2.755   2.755   5.455 -0.5936 -1.2476 -0.4600
11396TIP3    H155603   2.706   2.837   5.459 -1.1844 -1.6103 -0.1747
11396TIP3    H255604   2.846   2.783   5.446 -0.5338 -0.4806  1.7605
11397TIP3   OH255605   4.836   0.717   4.307  0.3173  0.4014 -0.0680
11397TIP3    H155606   4.834   0.781   4.378  0.4121  1.3488 -0.9045
11397TIP3    H255607   4.907   0.657   4.332  0.9829  1.2686  0.1896
11398TIP3   OH255608   2.764   1.299  13.321  0.3856  0.4049  0.5604
11398TIP3    H155609   2.755   1.385  13.364 -0.1075  1.3750 -1.3845
11398TIP3    H255610   2.674   1.269  13.309  0.5408 -0.0908  0.6286
11399TIP3   OH255611   3.294   2.069   1.677 -0.7125 -0.0892  0.2539
11399TIP3    H155612   3.235   1.994   1.669 -0.5773 -0.3067  1.1205
11399TIP3    H255613   3.334   2.078   1.591 -2.4497  0.4417 -0.5491
11400TIP3   OH255614   5.081   6.671   1.544 -0.0603  0.3368  0.7590
11400TIP3    H155615   5.038   6.610   1.604 -1.3163  1.8175  1.4218
11400TIP3    H255616   5.021   6.678   1.469 -0.6504  1.8283  1.3418
11401TIP3   OH255617   6.390   0.080  11.252 -0.1946 -0.7773 -0.1397
11401TIP3    H155618   6.339  -0.000  11.261  0.5121 -1.2679 -0.4847
11401TIP3    H255619   6.364   0.116  11.167 -1.6861  0.2106  0.6861
11402TIP3   OH255620   6.184   3.452  16.387 -0.2661  0.0885  0.3941
11402TIP3    H155621   6.091   3.434  16.396 -0.3334 -3.1091 -3.6137
11402TIP3    H255622   6.226   3.366  16.386  1.9562  0.9663 -2.8227
11403TIP3   OH255623   2.594   0.963   5.526 -0.3860  0.4038 -0.2263
11403TIP3    H155624   2.639   0.915   5.595 -1.2392  1.8115  1.3864
11403TIP3    H255625   2.663   1.014   5.484 -0.0559  0.6372  0.5722
11404TIP3   OH255626   3.240   6.043  15.069 -0.4937 -0.5373 -0.4795
11404TIP3    H155627   3.227   6.127  15.024  1.8396  0.0587 -0.1898
11404TIP3    H255628   3.221   6.063  15.161  3.8165  0.9353  0.3417
11405TIP3   OH255629   4.202   4.432   0.588 -1.0442  0.2246 -0.6266
11405TIP3    H155630   4.231   4.341   0.582  0.4307  0.5468  0.9171
11405TIP3    H255631   4.106   4.426   0.592 -1.0026 -1.2069 -1.1456
11406TIP3   OH255632   1.699   4.771  16.297  0.7366  0.5831  0.2384
11406TIP3    H155633   1.622   4.754  16.243 -0.1289  1.0484  1.3097
11406TIP3    H255634   1.763   4.706  16.268 -0.9495 -1.6125  1.1454
11407TIP3   OH255635   2.451   5.710  10.786  0.3312 -0.3130  0.3664
11407TIP3    H155636   2.440   5.615  10.790 -1.7234 -0.1220  0.5548
11407TIP3    H255637   2.539   5.723  10.750  0.5629 -2.2752  0.1160
11408TIP3   OH255638   1.744   5.314  17.123  0.2182  0.5265 -0.2398
11408TIP3    H155639   1.755   5.308  17.218  0.2485 -1.4489 -0.3246
11408TIP3    H255640   1.659   5.273  17.106  1.2166 -1.2650 -1.2318
11409TIP3   OH255641   5.773   2.889  13.798 -0.0782 -0.0175 -0.4692
11409TIP3    H155642   5.838   2.936  13.745  1.3803 -1.0731  0.3212
11409TIP3    H255643   5.694   2.943  13.792  1.3866  2.3215  0.0264
11410TIP3   OH255644   3.273   5.300   3.189  0.1650 -0.0140 -0.4429
11410TIP3    H155645   3.233   5.233   3.243  1.8267 -0.4156  0.3746
11410TIP3    H255646   3.223   5.380   3.208 -0.6997 -0.6387 -0.0601
11411TIP3   OH255647   1.844   4.354   0.259  0.9296  0.2059 -0.2912
11411TIP3    H155648   1.765   4.336   0.208  1.3040  1.5859 -1.4263
11411TIP3    H255649   1.871   4.268   0.293  0.0520 -0.5936 -1.5258
11412TIP3   OH255650   4.184   1.756   5.663 -0.3398 -0.7482 -0.0531
11412TIP3    H155651   4.159   1.808   5.587 -0.6655 -2.2036 -0.9879
11412TIP3    H255652   4.108   1.758   5.721 -0.3722 -0.2561 -0.1134
11413TIP3   OH255653   5.449   3.862  11.542  0.4711  0.3787  0.2649
11413TIP3    H155654   5.421   3.949  11.571 -0.3907  0.1898  0.0164
11413TIP3    H255655   5.397   3.801  11.595 -2.6774 -0.0160 -2.8874
11414TIP3   OH255656   1.055   5.007  17.097 -0.1968  0.9632 -0.4362
11414TIP3    H155657   1.021   5.075  17.156 -0.2596  0.4372  0.1519
11414TIP3    H255658   1.006   4.928  17.122 -1.0582  0.9830 -1.9826
11415TIP3   OH255659   3.345   1.235  11.482 -0.2951  0.5721 -0.4850
11415TIP3    H155660   3.292   1.268  11.555  0.3390 -0.1350  0.3239
11415TIP3    H255661   3.290   1.168  11.442 -0.6732  1.0077 -0.7024
11416TIP3   OH255662   4.047   4.472   5.826 -0.6616  0.3263  0.3660
11416TIP3    H155663   3.998   4.546   5.862 -0.5912  0.3834  0.3437
11416TIP3    H255664   3.989   4.397   5.837 -0.4689  0.2578  1.0141
11417TIP3   OH255665   2.741   0.456  15.221 -0.1503 -0.4235  0.0811
11417TIP3    H155666   2.716   0.536  15.267 -0.6593 -0.4267 -0.1902
11417TIP3    H255667   2.724   0.474  15.129 -1.3593 -1.2387  0.1229
11418TIP3   OH255668   0.395   1.559  16.589 -0.2962 -0.0335 -0.2787
11418TIP3    H155669   0.448   1.629  16.628 -0.2172 -0.3708  0.2223
11418TIP3    H255670   0.446   1.480  16.601  0.1576 -0.0188 -1.9108
11419TIP3   OH255671   5.763   6.674   4.516  0.1873 -0.6179  0.6249
11419TIP3    H155672   5.834   6.717   4.564  3.1108 -3.4773 -0.7711
11419TIP3    H255673   5.760   6.720   4.432 -1.0043  0.6848  1.3277
11420TIP3   OH255674   5.054   4.427  15.355 -0.1098 -0.8806  0.0099
11420TIP3    H155675   5.067   4.518  15.329 -1.2994 -1.2974 -2.2554
11420TIP3    H255676   4.994   4.431  15.429 -2.4857  0.1428 -1.8267
11421TIP3   OH255677   2.734   0.286   3.296  0.3096  0.1445  0.2100
11421TIP3    H155678   2.639   0.301   3.290  0.2578  0.0102  0.6434
11421TIP3    H255679   2.756   0.237   3.217 -0.1861 -0.8754  0.6955
11422TIP3   OH255680   4.439   5.187  11.105  0.4068 -0.0847  0.1093
11422TIP3    H155681   4.353   5.157  11.077  0.2895 -0.1731  0.5484
11422TIP3    H255682   4.501   5.143  11.046  0.1911 -0.6064  0.2691
11423TIP3   OH255683   4.816   5.532  14.139 -0.1616 -0.3022 -0.2233
11423TIP3    H155684   4.872   5.604  14.109  1.3260 -0.7272  1.3710
11423TIP3    H255685   4.742   5.532  14.078  1.0036  1.0176 -1.7212
11424TIP3   OH255686   4.970   5.443   1.821  0.1384  0.1920 -0.2732
11424TIP3    H155687   5.036   5.488   1.769  0.9175  0.5057  0.9350
11424TIP3    H255688   4.891   5.497   1.813  1.2267  2.2219  1.6760
11425TIP3   OH255689   6.328   5.328  14.199  0.2174  0.0203 -0.7473
11425TIP3    H155690   6.374   5.246  14.218 -0.3196 -0.1231 -0.0294
11425TIP3    H255691   6.392   5.396  14.219  1.0476 -0.2091 -2.3749
11426TIP3   OH255692   6.685   3.805  17.144  0.6163  0.3853 -0.5071
11426TIP3    H155693   6.589   3.804  17.141  0.6114  1.5890 -1.0986
11426TIP3    H255694   6.707   3.732  17.202 -0.6725  0.5367  0.2234
11427TIP3   OH255695   3.387   3.257   4.829 -0.1055 -0.3467 -0.6320
11427TIP3    H155696   3.430   3.187   4.878 -2.7109 -1.1857  0.6017
11427TIP3    H255697   3.422   3.248   4.740  2.2284 -0.9265  0.2659
11428TIP3   OH255698   5.562   3.688  13.179  0.5077 -0.1534  0.0347
11428TIP3    H155699   5.619   3.623  13.137  1.1949  0.8328 -0.6079
11428TIP3    H255700   5.620   3.764  13.194 -0.8541  1.3024 -1.6424
11429TIP3   OH255701   6.734   1.914   2.116 -0.2673 -0.3952 -0.5818
11429TIP3    H155702   6.718   1.867   2.198 -0.3104  0.4358 -0.1090
11429TIP3    H255703   6.659   1.972   2.105 -0.0975 -0.2502 -1.0334
11430TIP3   OH255704   5.518   1.302   2.162  0.1602  0.2190 -0.0966
11430TIP3    H155705   5.513   1.285   2.068  2.5184 -2.1543  0.1051
11430TIP3    H255706   5.591   1.363   2.171  0.9123 -0.7283  0.2906
11431TIP3   OH255707   6.757   4.097  12.918  0.7002 -0.0710 -0.1667
11431TIP3    H155708   6.843   4.122  12.952  1.2919  1.9386 -2.8475
11431TIP3    H255709   6.777   4.044  12.841 -0.5101 -0.5202 -0.1855
11432TIP3   OH255710   4.482   5.854  10.400 -0.0259  0.1799 -0.5382
11432TIP3    H155711   4.478   5.935  10.451 -1.3492  0.3898 -0.9193
11432TIP3    H255712   4.390   5.836  10.377 -0.1891 -2.7645  1.6684
11433TIP3   OH255713   5.010   0.577   6.294  0.2939 -0.8119  0.2105
11433TIP3    H155714   5.064   0.575   6.215  1.0847 -2.4445  0.7231
11433TIP3    H255715   4.921   0.559   6.264  0.7880 -2.8067 -0.2300
11434TIP3   OH255716   3.104   4.523  16.425 -0.3387  0.1721 -0.2380
11434TIP3    H155717   3.104   4.536  16.520  0.6529 -1.5765  0.0270
11434TIP3    H255718   3.054   4.443  16.412 -0.2690  0.2763 -1.1753
11435TIP3   OH255719   5.143   2.306  15.415  0.6684  0.1821 -0.1459
11435TIP3    H155720   5.084   2.367  15.370 -0.6776 -0.0339  1.2452
11435TIP3    H255721   5.209   2.363  15.455  0.9169  0.4975 -0.9676
11436TIP3   OH255722   1.675   0.017  13.536 -0.4181  0.1367 -0.5483
11436TIP3    H155723   1.590  -0.027  13.541 -0.0546 -0.9155 -2.6707
11436TIP3    H255724   1.658   0.097  13.487 -0.6932  1.5357  1.6520
11437TIP3   OH255725   3.188   4.731   4.978 -0.2869  0.3249 -0.5002
11437TIP3    H155726   3.266   4.768   5.020 -0.0796 -0.5114 -0.1415
11437TIP3    H255727   3.118   4.743   5.043 -0.3510  0.6054 -0.6177
11438TIP3   OH255728   0.565   1.322   1.055  0.5586  0.9344  1.0326
11438TIP3    H155729   0.579   1.372   0.974 -0.1961 -0.1898  0.1744
11438TIP3    H255730   0.579   1.386   1.125 -0.9270  2.5208 -0.0199
11439TIP3   OH255731   4.517   2.519  17.192  0.0667  0.1782 -0.1507
11439TIP3    H155732   4.608   2.490  17.179  0.1057  0.1551  0.1593
11439TIP3    H255733   4.508   2.526  17.287 -0.1318  0.5807 -0.1980
11440TIP3   OH255734   1.923   1.906   1.666  0.1421  0.8728  0.1940
11440TIP3    H155735   1.966   1.964   1.729  0.4175 -0.5463  1.3809
11440TIP3    H255736   1.992   1.880   1.606  0.8001 -0.6589  1.5373
11441TIP3   OH255737   2.196   0.254  12.356  0.2604 -0.2656  0.5614
11441TIP3    H155738   2.247   0.330  12.384 -0.4240  0.0753  0.8869
11441TIP3    H255739   2.154   0.281  12.275  0.3991 -0.4673  0.4203
11442TIP3   OH255740   0.016   0.810  11.251  0.0467 -1.1044 -0.3982
11442TIP3    H155741  -0.041   0.855  11.188  0.9742 -2.0971 -2.0211
11442TIP3    H255742  -0.043   0.782  11.321 -0.8249  1.1381 -0.1444
11443TIP3   OH255743   3.629   5.772  11.295  0.7576 -0.1903  0.3034
11443TIP3    H155744   3.677   5.719  11.358  0.5249 -0.1385  0.5277
11443TIP3    H255745   3.643   5.728  11.211 -3.0943 -3.3944  1.0128
11444TIP3   OH255746   5.406   3.146  11.147  0.3346 -0.3262 -0.3351
11444TIP3    H155747   5.454   3.099  11.079  1.1663  0.7491 -0.5060
11444TIP3    H255748   5.448   3.120  11.229  0.8722  0.2084 -0.4400
11445TIP3   OH255749   6.204   2.129  12.915  0.0558  0.3511  1.3333
11445TIP3    H155750   6.149   2.092  12.984  0.0646  0.0660  1.1871
11445TIP3    H255751   6.263   2.058  12.891  0.2924  0.5647  1.2837
11446TIP3   OH255752   6.311   6.760   3.226  0.4227 -0.2840 -0.7593
11446TIP3    H155753   6.304   6.734   3.134  0.4760  0.8922 -1.1128
11446TIP3    H255754   6.332   6.854   3.223 -1.8239  0.3354  0.4376
11447TIP3   OH255755   5.991   6.599   2.004 -0.0265  0.1828  0.5115
11447TIP3    H155756   6.013   6.693   2.004  0.8413  0.0149  1.9927
11447TIP3    H255757   5.896   6.597   2.006 -0.0493  1.0625  1.3157
11448TIP3   OH255758   3.279   4.377   2.462 -0.4323 -0.4315 -0.2211
11448TIP3    H155759   3.338   4.338   2.398  1.6591  2.1355 -0.0198
11448TIP3    H255760   3.283   4.471   2.444 -2.5508  0.0545  1.4354
11449TIP3   OH255761   6.262   6.009   5.681 -0.6402 -0.0292 -0.0401
11449TIP3    H155762   6.188   6.056   5.642 -1.9994 -1.3710  0.7965
11449TIP3    H255763   6.259   5.923   5.640  0.3902 -0.1431  0.1138
11450TIP3   OH255764   5.007   4.500   2.607  0.2505  0.0878  0.3775
11450TIP3    H155765   5.054   4.422   2.579 -1.7102 -0.3562 -2.0452
11450TIP3    H255766   5.042   4.571   2.553 -0.8073  0.0189 -0.4401
11451TIP3   OH255767   1.471   2.153  13.248 -0.1878  0.3598 -0.0929
11451TIP3    H155768   1.503   2.077  13.296  0.0373  0.8500  0.5518
11451TIP3    H255769   1.549   2.208  13.235 -0.8097  1.9030  2.1153
11452TIP3   OH255770   6.598   6.214   1.253  0.3965  0.1395  0.4916
11452TIP3    H155771   6.598   6.263   1.335  1.3745  0.8297  0.0945
11452TIP3    H255772   6.595   6.281   1.185  3.4769 -0.1883 -0.1048
11453TIP3   OH255773   5.401   5.764   5.449  0.2510  0.4553 -0.8060
11453TIP3    H155774   5.422   5.827   5.382  1.2546 -0.2427 -1.1687
11453TIP3    H255775   5.440   5.799   5.529 -2.1364  1.9912 -0.2313
11454TIP3   OH255776   2.213   0.404  16.822  0.6459  0.0937  0.1744
11454TIP3    H155777   2.215   0.317  16.861  0.0300  0.1660  0.3773
11454TIP3    H255778   2.291   0.448  16.856  0.2545  0.0696  1.1183
11455TIP3   OH255779   4.939   5.354   0.412 -0.1760  0.0928  0.0886
11455TIP3    H155780   4.981   5.426   0.458 -1.2164  1.5635 -1.1516
11455TIP3    H255781   4.933   5.384   0.321 -1.5414 -1.1288 -0.2601
11456TIP3   OH255782   3.788   0.046  12.781 -0.2483  0.6416 -0.1322
11456TIP3    H155783   3.805   0.089  12.865  0.5830  0.6347 -0.2908
11456TIP3    H255784   3.705   0.083  12.752 -0.3485  0.9393  0.5061
11457TIP3   OH255785   0.702   1.575  16.034  0.2182  0.2154  0.3312
11457TIP3    H155786   0.618   1.596  15.993  0.6585  1.6124  0.0946
11457TIP3    H255787   0.712   1.641  16.103  1.5128  0.6084 -0.2034
11458TIP3   OH255788   6.801   0.798   4.948  0.3543  0.6552 -0.0528
11458TIP3    H155789   6.830   0.718   4.990  0.1291 -0.0314 -1.1590
11458TIP3    H255790   6.763   0.850   5.019  0.5344 -0.1973  0.6856
11459TIP3   OH255791   2.669   2.832  13.108  0.6979 -0.0987  0.1798
11459TIP3    H155792   2.757   2.834  13.071  0.0741 -1.0481 -1.4459
11459TIP3    H255793   2.674   2.768  13.179  1.7314  1.1972  1.3194
11460TIP3   OH255794   5.316   0.300  14.667 -0.3872 -0.2707 -0.3393
11460TIP3    H155795   5.257   0.374  14.649  0.3252  1.0633  2.3692
11460TIP3    H255796   5.288   0.232  14.605 -1.7465  1.8756 -2.2546
11461TIP3   OH255797   3.279   4.014   3.974 -0.1042  0.4277  0.4187
11461TIP3    H155798   3.272   3.922   4.000  0.5679  0.0875 -0.5648
11461TIP3    H255799   3.188   4.043   3.968 -0.3087  0.2535  2.1265
11462TIP3   OH255800   2.173   3.962  14.209 -0.3666 -0.0893  0.0724
11462TIP3    H155801   2.084   3.990  14.188 -0.8778 -0.3347  1.7794
11462TIP3    H255802   2.162   3.885  14.265  0.9797 -1.6174 -1.6282
11463TIP3   OH255803   2.276   5.456   3.914  0.5054 -0.1051  0.4619
11463TIP3    H155804   2.332   5.488   3.843  1.6026  0.7358  1.6794
11463TIP3    H255805   2.318   5.485   3.994 -0.3989 -1.5433  1.5162
11464TIP3   OH255806   3.553   1.171   1.279  0.1073 -0.4334  0.0075
11464TIP3    H155807   3.587   1.228   1.347  4.4327 -0.0094 -2.1975
11464TIP3    H255808   3.557   1.083   1.317  1.8704 -0.1414  0.5623
11465TIP3   OH255809   0.886   6.609   2.443 -0.1984 -0.4874  0.0688
11465TIP3    H155810   0.929   6.574   2.521 -0.8931 -0.0939  0.6364
11465TIP3    H255811   0.810   6.552   2.429 -0.6514  0.0483  0.2901
11466TIP3   OH255812   2.445   1.015  15.087  0.6251 -0.4447  0.2198
11466TIP3    H155813   2.439   0.922  15.111  1.1639  0.1100  2.8052
11466TIP3    H255814   2.533   1.025  15.052  0.2287 -1.0681 -1.0101
11467TIP3   OH255815   5.079   4.788  13.523 -0.0729  0.2474 -0.7776
11467TIP3    H155816   5.018   4.838  13.576 -1.3847 -1.7129 -0.3149
11467TIP3    H255817   5.031   4.709  13.499  1.2068  0.0683 -3.1207
11468TIP3   OH255818   2.152   2.383   4.596  0.1573 -0.1926 -0.2099
11468TIP3    H155819   2.239   2.399   4.631  0.1478 -0.0265 -0.2604
11468TIP3    H255820   2.160   2.300   4.550  0.8745  0.8554 -2.1027
11469TIP3   OH255821   2.158   4.448   2.549 -0.1301  0.2341 -0.0549
11469TIP3    H155822   2.176   4.527   2.498  0.9636 -1.0921 -1.8332
11469TIP3    H255823   2.244   4.410   2.568 -0.6289 -0.5644  0.7545
11470TIP3   OH255824   1.442   5.300   6.312 -0.1591  0.2009 -0.0991
11470TIP3    H155825   1.354   5.267   6.332 -0.5726  0.9013 -0.6979
11470TIP3    H255826   1.427   5.385   6.270  0.8210  0.4862  0.0935
11471TIP3   OH255827   3.859   3.573  15.233  0.1537 -0.2983 -0.2912
11471TIP3    H155828   3.922   3.602  15.166 -0.0286  0.3471 -0.1909
11471TIP3    H255829   3.897   3.603  15.316 -1.0417  1.5703 -0.3437
11472TIP3   OH255830   4.809   4.738   2.444  0.3870  1.2950 -0.0251
11472TIP3    H155831   4.743   4.807   2.444 -0.6545  0.3429 -0.1108
11472TIP3    H255832   4.813   4.708   2.535 -0.0477  0.6834 -0.1975
11473TIP3   OH255833   3.349   3.814   3.140 -0.1701  0.2524 -0.0011
11473TIP3    H155834   3.427   3.863   3.167 -0.6570  0.5216  0.9588
11473TIP3    H255835   3.372   3.723   3.158  0.1547  0.2689 -0.3131
11474TIP3   OH255836   3.013   3.269   1.566  0.2505  0.7778  0.3847
11474TIP3    H155837   3.068   3.207   1.615  0.7969 -0.2282 -1.3931
11474TIP3    H255838   2.930   3.269   1.613 -0.8669 -3.6985 -1.0666
11475TIP3   OH255839   5.892   1.494  12.904 -0.4100  0.5110 -0.2173
11475TIP3    H155840   5.911   1.479  12.811 -0.8222  2.2083 -0.6004
11475TIP3    H255841   5.800   1.518  12.907 -1.0425 -1.7808  0.9436
11476TIP3   OH255842   0.446   6.136  17.180  0.2535  0.1420  0.1841
11476TIP3    H155843   0.370   6.194  17.177 -0.0427 -0.2723 -1.1459
11476TIP3    H255844   0.515   6.183  17.135 -0.1401 -0.7062 -1.3721
11477TIP3   OH255845   2.092   4.823  12.628  0.2312  0.2504  0.2201
11477TIP3    H155846   2.187   4.816  12.619  0.2651  0.5454  0.3523
11477TIP3    H255847   2.078   4.904  12.677 -0.0991  0.3486 -0.0322
11478TIP3   OH255848   4.722   4.348   1.754 -0.0949  0.4210  0.1427
11478TIP3    H155849   4.797   4.383   1.705  0.3003 -1.6676 -0.8514
11478TIP3    H255850   4.668   4.307   1.687 -0.7295 -0.4887  1.1921
11479TIP3   OH255851   6.586   6.619  15.612 -0.2536 -0.4765  0.1019
11479TIP3    H155852   6.654   6.662  15.664 -0.1087 -1.8801  1.1345
11479TIP3    H255853   6.609   6.526  15.615 -0.2324 -0.6527 -2.5108
11480TIP3   OH255854   6.647   4.736   6.506  0.0996 -0.0496  0.2422
11480TIP3    H155855   6.658   4.808   6.568 -1.4785 -1.3905  2.1985
11480TIP3    H255856   6.590   4.771   6.438  0.9269  1.1066  0.1254
11481TIP3   OH255857   3.474   2.459  15.866 -0.5901 -0.5439  0.0482
11481TIP3    H155858   3.418   2.522  15.911 -1.3054 -0.7017 -0.6034
11481TIP3    H255859   3.442   2.458  15.776  0.1378 -1.0135 -0.2168
11482TIP3   OH255860   3.259   6.684  11.740  0.1328  0.1355 -0.0908
11482TIP3    H155861   3.278   6.717  11.652  1.0815  1.7391  0.6659
11482TIP3    H255862   3.271   6.589  11.733  1.0414  0.3221 -1.4765
11483TIP3   OH255863   1.148   4.622   1.166 -0.9620 -0.3333 -0.3311
11483TIP3    H155864   1.118   4.533   1.151 -1.9077 -0.0781 -0.0438
11483TIP3    H255865   1.222   4.614   1.225 -0.4382 -0.9897 -1.0652
11484TIP3   OH255866   2.238   1.752  16.954  0.6460  0.1728  0.0419
11484TIP3    H155867   2.191   1.786  16.878  1.3149 -0.4594 -0.6698
11484TIP3    H255868   2.325   1.729  16.920  0.9407 -0.1456  0.9888
11485TIP3   OH255869   3.954   0.916  13.325  0.3194  0.3869  0.4857
11485TIP3    H155870   3.985   0.838  13.373  0.2405  0.4021  0.5611
11485TIP3    H255871   3.875   0.942  13.371 -1.3263 -1.2012 -1.2746
11486TIP3   OH255872   4.907   3.299  13.490 -0.2466 -0.1833  0.0690
11486TIP3    H155873   4.907   3.211  13.529  0.4700 -0.7043 -1.0473
11486TIP3    H255874   4.876   3.356  13.560  0.6148 -1.1333  1.2785
11487TIP3   OH255875   2.115   6.065  14.235 -0.8191 -0.0669  0.6517
11487TIP3    H155876   2.098   5.973  14.257  1.3827 -0.3474  1.3732
11487TIP3    H255877   2.028   6.101  14.216 -1.6010 -2.7535 -1.5878
11488TIP3   OH255878   5.101   0.820   0.935 -0.0766  0.8679 -0.4282
11488TIP3    H155879   5.093   0.725   0.931 -0.8498  0.8544  0.8319
11488TIP3    H255880   5.186   0.836   0.976 -0.5462  0.6723  0.6630
11489TIP3   OH255881   1.385   3.140  15.566  0.1596 -0.4535 -0.0568
11489TIP3    H155882   1.409   3.227  15.596 -0.7904 -0.5710  1.1065
11489TIP3    H255883   1.289   3.140  15.564  0.0333 -2.1450  2.1844
11490TIP3   OH255884   4.871   1.148   4.970 -0.5348  0.0017 -0.2252
11490TIP3    H155885   4.794   1.159   5.026  0.9812 -0.9491  2.2219
11490TIP3    H255886   4.939   1.199   5.012  0.0513  1.4954 -2.8028
11491TIP3   OH255887   3.325   5.100   0.166  0.0580  0.4182  0.3084
11491TIP3    H155888   3.319   5.020   0.219 -0.2856 -0.6997 -1.3239
11491TIP3    H255889   3.271   5.163   0.212  1.7127  0.3085  2.5798
11492TIP3   OH255890   1.319   0.770   4.963  0.2856 -0.0890 -0.3282
11492TIP3    H155891   1.353   0.738   4.879  0.4235 -0.0177 -0.2985
11492TIP3    H255892   1.351   0.860   4.969  3.1847 -1.1118  1.4065
11493TIP3   OH255893   1.008   6.121   4.422 -0.2091  0.0809  0.3319
11493TIP3    H155894   1.101   6.132   4.443  0.5025  0.3232 -2.5211
11493TIP3    H255895   1.008   6.071   4.340 -2.5876  0.3774  0.0869
11494TIP3   OH255896   5.529   4.939  16.162 -0.0397  0.0075 -0.4987
11494TIP3    H155897   5.587   4.962  16.090 -0.0605  1.0161 -0.1988
11494TIP3    H255898   5.558   4.851  16.189 -0.4825 -0.6944 -2.1785
11495TIP3   OH255899   1.221   4.200   5.917 -0.4132  0.0638 -0.0193
11495TIP3    H155900   1.134   4.182   5.883 -0.9303  1.7360  0.3172
11495TIP3    H255901   1.246   4.283   5.877  0.1863  0.5877  1.3636
11496TIP3   OH255902   1.038   1.004   1.749  0.2385 -0.0871 -0.2360
11496TIP3    H155903   1.022   1.070   1.817 -2.0238  0.1594 -0.9168
11496TIP3    H255904   1.091   0.937   1.792 -0.2611  0.5620  1.4665
11497TIP3   OH255905   5.931   3.387  16.537 -0.3606  0.5225 -0.3497
11497TIP3    H155906   5.855   3.373  16.594 -0.0648  0.9524  0.1573
11497TIP3    H255907   5.991   3.316  16.560 -1.0548 -0.4854 -1.5377
11498TIP3   OH255908   4.334   5.844  12.921  0.4692 -0.1898  0.1214
11498TIP3    H155909   4.322   5.773  12.858  0.2023 -0.4777  0.4946
11498TIP3    H255910   4.424   5.874  12.907  0.7129 -0.8590  0.2246
11499TIP3   OH255911   2.887   6.284   2.171  0.0511  0.1074 -0.1488
11499TIP3    H155912   2.863   6.222   2.240  0.0012  0.8057  0.4735
11499TIP3    H255913   2.936   6.353   2.217 -0.8216  1.0734 -0.6391
11500TIP3   OH255914   4.615   1.444  14.233 -0.5135  0.2405 -0.0433
11500TIP3    H155915   4.650   1.527  14.201 -1.0288  1.1745  1.6868
11500TIP3    H255916   4.631   1.382  14.161  1.0619  1.5109 -0.8575
11501TIP3   OH255917   1.264   2.992   4.412 -0.5162 -0.7336 -0.5725
11501TIP3    H155918   1.336   2.948   4.366  0.2611  1.5416 -1.6307
11501TIP3    H255919   1.298   3.008   4.500  1.1167  2.0129 -1.5905
11502TIP3   OH255920   2.719   4.500   2.579  0.4037 -0.7759  0.8196
11502TIP3    H155921   2.747   4.413   2.608 -0.1786 -1.5126 -0.7584
11502TIP3    H255922   2.767   4.515   2.498  0.1037  0.1437  0.8081
11503TIP3   OH255923   2.015   1.326   0.481  0.0664 -0.6032  0.2369
11503TIP3    H155924   1.940   1.268   0.470  0.2743 -0.8460  0.0939
11503TIP3    H255925   2.057   1.295   0.562  1.6606 -2.3439 -1.1597
11504TIP3   OH255926   6.108   2.911   5.622 -0.0262  0.2495  0.1202
11504TIP3    H155927   6.141   2.958   5.699 -0.4336 -0.3114  0.6516
11504TIP3    H255928   6.034   2.860   5.656 -0.8236  0.7421 -0.8448
11505TIP3   OH255929   5.128   2.867  11.355  0.4408 -0.2076 -0.4493
11505TIP3    H155930   5.089   2.817  11.283  1.2560 -0.2329 -0.8813
11505TIP3    H255931   5.136   2.956  11.322 -0.5199  0.1119  0.1357
11506TIP3   OH255932   4.941   5.714   4.457 -0.0882  0.0821 -0.5307
11506TIP3    H155933   4.980   5.800   4.478 -0.9205 -0.0753  2.0147
11506TIP3    H255934   4.849   5.733   4.440 -0.1915 -0.2577 -0.3563
11507TIP3   OH255935   4.200   2.598  14.862 -0.4814 -0.0653 -0.7655
11507TIP3    H155936   4.150   2.672  14.896  0.9825  1.3411 -1.5210
11507TIP3    H255937   4.242   2.632  14.783 -0.3339 -1.9447 -1.5601
11508TIP3   OH255938   2.600   1.871   3.828 -0.0252  0.3033  0.1885
11508TIP3    H155939   2.612   1.838   3.917  2.3564  0.3835 -0.0399
11508TIP3    H255940   2.555   1.955   3.839  0.3096  0.3488  1.3270
11509TIP3   OH255941   2.104   2.163  15.827 -0.4731 -0.3975 -0.0453
11509TIP3    H155942   2.176   2.149  15.765 -0.7389  0.6383 -0.6038
11509TIP3    H255943   2.057   2.080  15.829  0.8731 -1.1833  0.5194
11510TIP3   OH255944   1.690   1.217   5.186 -0.0093  0.3442 -0.4403
11510TIP3    H155945   1.752   1.233   5.114 -2.9962  0.0775 -3.3060
11510TIP3    H255946   1.673   1.123   5.183  1.1880 -0.0074  1.9496
11511TIP3   OH255947   6.298   4.786   2.283  0.1778  0.2809 -0.3031
11511TIP3    H155948   6.366   4.797   2.217 -1.3514  0.0759 -1.9768
11511TIP3    H255949   6.344   4.800   2.366  2.5607 -1.2940 -1.2395
11512TIP3   OH255950   0.445   1.193   1.782 -0.0694 -0.2736  0.2473
11512TIP3    H155951   0.471   1.263   1.841  1.0667 -0.2371 -0.2663
11512TIP3    H255952   0.351   1.206   1.769  0.2154  1.5168 -0.2934
11513TIP3   OH255953   1.014   1.306  12.423  0.5433 -0.1844 -0.2631
11513TIP3    H155954   0.923   1.337  12.429  0.4935 -0.3598 -0.0908
11513TIP3    H255955   1.007   1.220  12.383  0.4851 -0.8657  1.1521
11514TIP3   OH255956   6.295   5.930   3.543 -0.5870 -0.0180  0.6550
11514TIP3    H155957   6.226   5.996   3.542 -1.0424 -0.4883 -0.0292
11514TIP3    H255958   6.332   5.935   3.632 -0.4399  1.3107  0.5478
11515TIP3   OH255959   3.570   4.527  10.702 -0.1826 -0.0728  0.5654
11515TIP3    H155960   3.610   4.461  10.758  1.4900 -0.2541 -0.7776
11515TIP3    H255961   3.629   4.534  10.627 -2.2709  0.2316 -1.1418
11516TIP3   OH255962   3.496   3.044   3.556  0.4152  0.1012 -0.2339
11516TIP3    H155963   3.467   2.955   3.577  1.3952  0.0153  0.7820
11516TIP3    H255964   3.538   3.035   3.470  0.6289 -0.4399 -0.0761
11517TIP3   OH255965   5.463   1.511  12.757  0.3816 -0.0785  0.3191
11517TIP3    H155966   5.465   1.428  12.709 -2.5067 -1.0387  1.6081
11517TIP3    H255967   5.508   1.492  12.839  1.2908  0.1857 -0.1121
11518TIP3   OH255968   5.063   3.086  15.824 -0.3240  0.4681 -0.2399
11518TIP3    H155969   5.013   3.113  15.747 -0.3509  0.9367 -0.0588
11518TIP3    H255970   5.152   3.119  15.808  0.1597 -1.0506 -0.9386
11519TIP3   OH255971   5.860   6.522   5.267 -0.0834  0.1502 -0.1696
11519TIP3    H155972   5.848   6.581   5.342  0.4809  0.8380 -0.6058
11519TIP3    H255973   5.840   6.435   5.302  0.6300  0.3953  0.9229
11520TIP3   OH255974   0.073   0.620   3.628 -0.2147  0.0096  0.1803
11520TIP3    H155975   0.125   0.540   3.627  1.0427  0.7362 -2.5363
11520TIP3    H255976   0.137   0.690   3.635 -1.1028  0.8428  0.1117
11521TIP3   OH255977   5.408   2.845   2.369  0.4722  0.0997  0.2443
11521TIP3    H155978   5.320   2.874   2.394  0.7230 -0.6365  2.2285
11521TIP3    H255979   5.420   2.878   2.280 -2.4978 -1.3066 -0.8282
11522TIP3   OH255980   3.625   4.236   0.084 -0.2386 -0.1835  0.1441
11522TIP3    H155981   3.583   4.307   0.133 -0.6995 -0.2607 -0.1279
11522TIP3    H255982   3.621   4.161   0.143 -1.1318 -0.3739 -0.1502
11523TIP3   OH255983   0.140   1.915   1.079 -0.3155 -0.4234 -0.2601
11523TIP3    H155984   0.169   1.937   1.168  0.3576 -2.2427  0.0054
11523TIP3    H255985   0.101   1.828   1.087 -0.1270 -0.6706 -1.7631
11524TIP3   OH255986   2.511   3.574  15.717  0.1238 -0.2276  0.2812
11524TIP3    H155987   2.425   3.617  15.718  0.0595 -0.3582  0.3938
11524TIP3    H255988   2.540   3.580  15.626 -0.8042 -1.7594 -0.1540
11525TIP3   OH255989   2.858   3.153   5.992  0.0385  0.1445  0.1343
11525TIP3    H155990   2.858   3.248   6.006 -0.2986  0.1280  0.2462
11525TIP3    H255991   2.951   3.129   5.994  0.2050  0.6240 -0.9820
11526TIP3   OH255992   0.872   6.364   4.741 -0.3903 -0.5113 -0.1449
11526TIP3    H155993   0.913   6.311   4.672 -3.3325 -4.1075  0.5570
11526TIP3    H255994   0.829   6.300   4.798 -1.1647  2.5206  3.0191
11527TIP3   OH255995   3.358   6.485  12.523  0.4341  0.3184  0.7302
11527TIP3    H155996   3.443   6.456  12.490  0.9241  2.2560  0.1123
11527TIP3    H255997   3.335   6.422  12.591  1.4696 -1.3133 -0.3703
11528TIP3   OH255998   6.570   3.183   4.509  0.1719 -0.2501  0.0010
11528TIP3    H155999   6.658   3.217   4.524  0.0153 -0.5042  1.6786
11528TIP3    H256000   6.584   3.103   4.458  1.0418 -0.9924  1.3460
11529TIP3   OH256001   2.437   3.983  14.074  0.1008 -0.0364  0.5712
11529TIP3    H156002   2.416   4.041  14.000  1.7111 -2.2920 -1.8442
11529TIP3    H256003   2.358   3.931  14.087 -0.3997  0.7840  0.8986
11530TIP3   OH256004   0.218   4.065   3.359  1.1177 -0.7328  0.0443
11530TIP3    H156005   0.205   3.980   3.317  0.2098 -0.2460 -0.6959
11530TIP3    H256006   0.244   4.124   3.288  2.8735 -0.6126  0.7300
11531TIP3   OH256007   1.135   6.214   4.689  0.2597  0.1539  0.0112
11531TIP3    H156008   1.199   6.246   4.626  0.2955 -1.5251 -0.8788
11531TIP3    H256009   1.163   6.250   4.773  2.0324 -0.0419 -0.4500
11532TIP3   OH256010   0.407   3.323  12.210  0.3242  0.2067  0.4084
11532TIP3    H156011   0.465   3.291  12.279 -0.7100  1.7519  2.1051
11532TIP3    H256012   0.324   3.341  12.255 -1.7451 -2.4584 -2.0102
11533TIP3   OH256013   2.853   3.200   0.995  0.0925  0.4209 -0.2802
11533TIP3    H156014   2.877   3.119   0.951 -0.5909  0.1984 -0.2553
11533TIP3    H256015   2.849   3.177   1.088 -0.5773  0.3530 -0.3185
11534TIP3   OH256016   6.381   0.261  15.360  0.1559 -0.2364  0.4564
11534TIP3    H156017   6.411   0.212  15.436  0.8989 -1.4251 -0.5768
11534TIP3    H256018   6.321   0.201  15.315 -1.7792  1.1250  1.0482
11535TIP3   OH256019   3.375   3.269   5.910 -0.3556  0.4439 -0.1184
11535TIP3    H156020   3.409   3.298   5.995 -1.0439  0.9213  0.0073
11535TIP3    H256021   3.328   3.188   5.930 -1.2737  1.0228  0.1233
11536TIP3   OH256022   2.622   4.854  14.651 -0.3250 -0.8069 -0.4131
11536TIP3    H156023   2.584   4.839  14.565 -2.0715 -0.7494  0.3208
11536TIP3    H256024   2.547   4.866  14.710  0.8183 -0.7295  1.1050
11537TIP3   OH256025   2.094   6.097  15.214 -0.1644  0.0105  0.5163
11537TIP3    H156026   2.015   6.079  15.162 -0.9593  1.1650  1.2643
11537TIP3    H256027   2.155   6.137  15.152 -0.5162 -0.0450  0.1279
11538TIP3   OH256028   6.064   6.541  12.641  0.4520  1.0236 -0.1147
11538TIP3    H156029   6.009   6.465  12.625  0.7022  1.0288 -1.0751
11538TIP3    H256030   6.141   6.507  12.685  1.2752  0.4379 -1.8940
11539TIP3   OH256031   3.488   5.933   2.044 -0.2573 -0.0536 -0.0489
11539TIP3    H156032   3.427   5.900   2.110 -1.4463  0.8574 -0.6596
11539TIP3    H256033   3.477   5.873   1.970 -0.7760  0.3808 -0.3316
11540TIP3   OH256034   0.191   3.169  11.510 -0.5807  0.2291  0.3540
11540TIP3    H156035   0.165   3.130  11.593  2.3939  0.3890  1.5065
11540TIP3    H256036   0.185   3.263  11.525  0.0632  0.2598  0.4575
11541TIP3   OH256037   2.973   0.018   0.027  0.0788 -0.0054  0.5807
11541TIP3    H156038   2.951  -0.068  -0.008 -2.4997  1.4313 -1.7119
11541TIP3    H256039   2.998   0.070  -0.050  1.8748  1.2661  1.9307
11542TIP3   OH256040   6.751   0.801  10.673 -0.8554 -0.0063  0.2824
11542TIP3    H156041   6.750   0.739  10.600  0.4873  0.9511 -0.6122
11542TIP3    H256042   6.724   0.884  10.635  0.9048  0.7599  0.5609
11543TIP3   OH256043   4.739   2.779  14.717 -0.2606 -0.0196  0.1575
11543TIP3    H156044   4.808   2.834  14.679 -1.0265  0.5226 -0.4675
11543TIP3    H256045   4.736   2.703  14.658  0.3778 -0.4576  0.6733
11544TIP3   OH256046   6.311   0.623  15.170 -0.4934 -0.4450 -0.1112
11544TIP3    H156047   6.355   0.670  15.240  1.2316 -2.3346  0.1647
11544TIP3    H256048   6.253   0.562  15.215  0.5363 -1.5856 -0.2900
11545TIP3   OH256049   5.800   6.049   0.148  0.5961 -0.0934  0.6494
11545TIP3    H156050   5.798   5.954   0.136  0.9466 -0.3261  2.2260
11545TIP3    H256051   5.785   6.084   0.060  0.7828 -1.5974 -0.0228
11546TIP3   OH256052   5.470   1.514   4.098  0.4207  0.2320 -0.2197
11546TIP3    H156053   5.380   1.502   4.129  0.8645 -0.9331  0.7305
11546TIP3    H256054   5.522   1.515   4.178  1.3021  0.4481 -0.7843
11547TIP3   OH256055   5.697   1.442   1.599 -0.0068  0.0662 -0.4013
11547TIP3    H156056   5.729   1.467   1.685  0.1240  0.3125 -0.5200
11547TIP3    H256057   5.745   1.499   1.538  0.3258 -0.5013 -0.6779
11548TIP3   OH256058   3.137   2.601   3.669  0.5059 -0.5074 -0.4741
11548TIP3    H156059   3.073   2.555   3.615  0.0447  0.7266 -1.0198
11548TIP3    H256060   3.121   2.694   3.651  0.5102 -0.0604  1.6130
11549TIP3   OH256061   0.005   4.517   4.303 -0.0239  0.0524 -0.1358
11549TIP3    H156062   0.052   4.436   4.283 -0.7504 -0.7887  1.3924
11549TIP3    H256063  -0.046   4.497   4.382 -1.3256  1.5668 -0.5258
11550TIP3   OH256064   4.463   3.074   5.095 -0.2302 -0.1637 -0.3778
11550TIP3    H156065   4.420   2.990   5.078  0.0371 -0.0396 -1.7386
11550TIP3    H256066   4.553   3.061   5.067  0.0477  0.3080  0.2691
11551TIP3   OH256067   3.686   0.018   0.362  0.3525 -0.3783 -0.4121
11551TIP3    H156068   3.695  -0.027   0.278  0.0677  2.3675 -2.0540
11551TIP3    H256069   3.760   0.079   0.363 -0.6936  0.9096  0.4487
11552TIP3   OH256070   5.104   6.512  13.808  0.9876 -0.5884 -0.1165
11552TIP3    H156071   5.047   6.460  13.865  0.0228  1.3527  0.7905
11552TIP3    H256072   5.046   6.544  13.739  0.9430  1.2868  0.7355
11553TIP3   OH256073   4.505   2.504   2.267  0.0358  0.2429  0.3276
11553TIP3    H156074   4.516   2.510   2.362 -2.3706  0.7136  0.6437
11553TIP3    H256075   4.439   2.571   2.246  2.0882  1.7058 -2.0325
11554TIP3   OH256076   5.740   0.031  13.569  0.0348  0.1912  0.4870
11554TIP3    H156077   5.671   0.097  13.573 -0.8913 -0.6714 -0.3357
11554TIP3    H256078   5.692  -0.052  13.572  0.8816 -0.4522 -1.5707
11555TIP3   OH256079   1.351   0.199  12.528  0.0279 -0.6682  1.2385
11555TIP3    H156080   1.364   0.122  12.471  0.9158  0.9215 -0.8409
11555TIP3    H256081   1.268   0.236  12.499  1.6873  1.6324 -1.0330
11556TIP3   OH256082   6.767   6.046   5.290  0.2071  0.0207  0.7177
11556TIP3    H156083   6.825   6.098   5.234  1.0492 -1.0326  0.5781
11556TIP3    H256084   6.684   6.093   5.289  0.0159 -0.2337 -1.9022
11557TIP3   OH256085   3.461   6.462  15.468 -0.4088  0.1751  0.0382
11557TIP3    H156086   3.381   6.452  15.416 -0.1575 -0.4689 -0.2309
11557TIP3    H256087   3.436   6.432  15.555  0.3235 -3.1105 -0.7421
11558TIP3   OH256088   0.504   3.344  16.691  0.4495  0.5851  0.8176
11558TIP3    H156089   0.419   3.328  16.734  0.3408 -1.1328  0.0322
11558TIP3    H256090   0.525   3.434  16.714 -2.3333  1.6055 -0.1870
11559TIP3   OH256091   0.011   5.155  14.763 -0.8708 -0.1536  0.0696
11559TIP3    H156092   0.103   5.167  14.742 -0.4709 -0.3357  1.5537
11559TIP3    H256093  -0.032   5.234  14.732  0.6234  2.3443  3.6982
11560TIP3   OH256094   5.580   2.192   0.412  0.0480  0.3929  0.1751
11560TIP3    H156095   5.613   2.120   0.358  0.3768 -0.4348  1.4348
11560TIP3    H256096   5.657   2.223   0.461 -0.6865 -0.6046  2.0759
11561TIP3   OH256097   5.513   6.009   0.048 -0.2122  0.4170  0.0392
11561TIP3    H156098   5.422   6.002   0.075  0.5042 -0.9028  2.4205
11561TIP3    H256099   5.535   6.101   0.061 -0.5329  0.2547  2.0648
11562TIP3   OH256100   1.339   5.908  11.143  0.5069 -0.1320  0.0548
11562TIP3    H156101   1.323   5.839  11.079 -1.0696 -0.9889  1.2975
11562TIP3    H256102   1.372   5.981  11.092 -0.2080 -0.9558 -1.6605
11563TIP3   OH256103   1.678   5.416  11.242 -0.1882 -0.0638  0.1609
11563TIP3    H156104   1.658   5.323  11.251 -0.8066  0.0322 -0.2043
11563TIP3    H256105   1.594   5.457  11.221 -0.0080  0.6465  0.8186
11564TIP3   OH256106   3.521   2.079   2.077  0.3184  0.1685 -0.2676
11564TIP3    H156107   3.556   2.164   2.104  0.1647  0.8758 -2.1714
11564TIP3    H256108   3.510   2.031   2.159  0.0320  2.1165  0.8972
11565TIP3   OH256109   1.981   4.996   5.724 -0.4419 -0.6405 -0.1886
11565TIP3    H156110   2.009   5.081   5.759 -1.4356 -0.3363 -0.1019
11565TIP3    H256111   1.992   4.935   5.797  0.5400 -0.6601 -0.3325
11566TIP3   OH256112   4.111   1.654  15.095  0.0907  0.0855  0.4313
11566TIP3    H156113   4.099   1.614  15.009 -0.5445  1.3135 -0.0810
11566TIP3    H256114   4.139   1.582  15.152 -0.4659 -0.9507 -0.5697
11567TIP3   OH256115   5.562   1.775  11.006 -0.0776 -0.2070 -0.0040
11567TIP3    H156116   5.477   1.799  10.969 -0.1503 -0.4427  0.0073
11567TIP3    H256117   5.602   1.719  10.939  0.2737  0.2948 -0.2197
11568TIP3   OH256118   4.579   1.250  13.913 -0.1166 -0.3066 -0.1680
11568TIP3    H156119   4.587   1.345  13.898 -1.5595  0.3723  2.7921
11568TIP3    H256120   4.656   1.227  13.965 -0.9017 -0.2598  1.0476
11569TIP3   OH256121   2.406   3.199   1.765 -0.2779  0.6962  0.0126
11569TIP3    H156122   2.324   3.177   1.722  0.2805 -1.1554 -0.2198
11569TIP3    H256123   2.457   3.244   1.698  0.0744 -0.9852 -0.9059
11570TIP3   OH256124   0.096   5.527   6.275 -0.1013  0.1077  0.3122
11570TIP3    H156125   0.119   5.607   6.228 -0.0466  0.4465  0.9159
11570TIP3    H256126   0.178   5.499   6.316 -0.2452  0.0442  0.5589
11571TIP3   OH256127   4.853   4.391   2.948 -0.0059 -0.4223 -0.6388
11571TIP3    H156128   4.942   4.383   2.915 -0.4958  0.3230 -2.2532
11571TIP3    H256129   4.847   4.325   3.017  1.9616 -0.0574 -0.0612
11572TIP3   OH256130   0.028   5.549  14.455 -0.0609  0.3169  0.0911
11572TIP3    H156131   0.001   5.592  14.536 -0.7805 -0.2998  0.1900
11572TIP3    H256132   0.108   5.594  14.430 -0.0672  0.8094  0.9082
11573TIP3   OH256133   3.013   1.858  16.514  0.0349 -0.0652 -0.1972
11573TIP3    H156134   2.956   1.935  16.518 -0.1469  0.0573 -3.0566
11573TIP3    H256135   3.101   1.893  16.498  0.0642 -0.4262 -0.8571
11574TIP3   OH256136   6.580   3.950  16.284  0.1707 -0.8235  0.0001
11574TIP3    H156137   6.648   3.961  16.218 -0.7271  3.8341 -0.4646
11574TIP3    H256138   6.627   3.932  16.365  1.6982 -0.8828 -0.8649
11575TIP3   OH256139   6.402   1.101   0.414 -0.0190 -0.2030  0.2520
11575TIP3    H156140   6.435   1.078   0.501  1.6278 -0.3746 -0.3730
11575TIP3    H256141   6.453   1.177   0.389  0.2200 -0.7338 -0.9488
11576TIP3   OH256142   2.954   6.158  12.461 -0.3270  0.3806 -0.2589
11576TIP3    H156143   3.003   6.132  12.538  0.1319 -1.7854 -1.1996
11576TIP3    H256144   2.866   6.123  12.475 -0.4277  0.5582 -0.4364
11577TIP3   OH256145   5.061   2.513   4.632  0.6433  0.1568 -0.5735
11577TIP3    H156146   5.001   2.485   4.700  0.3494 -1.2089 -1.3676
11577TIP3    H256147   5.118   2.578   4.675 -0.0022 -0.1273  0.7486
11578TIP3   OH256148   6.176   1.262  13.755 -0.3752 -0.0852  0.3344
11578TIP3    H156149   6.125   1.197  13.707 -0.5455  0.3952 -0.1528
11578TIP3    H256150   6.221   1.212  13.823  1.1276 -1.0650 -1.2872
11579TIP3   OH256151   1.032   6.706  15.968  0.0878  0.3798 -0.0992
11579TIP3    H156152   1.058   6.644  16.036  0.2251 -0.0206 -0.5119
11579TIP3    H256153   1.102   6.771  15.966 -0.1652  0.6797  0.4890
11580TIP3   OH256154   2.206   2.145   0.583 -0.6098  0.2478 -0.0395
11580TIP3    H156155   2.223   2.120   0.492  0.6770  0.5286  0.1077
11580TIP3    H256156   2.121   2.105   0.603 -2.1063  2.1810 -2.0907
11581TIP3   OH256157   5.399   6.091   6.646 -0.6526  0.2012 -0.1819
11581TIP3    H156158   5.453   6.119   6.572  2.1971 -2.7287  0.5951
11581TIP3    H256159   5.321   6.054   6.605  0.3347 -0.2965 -1.6828
11582TIP3   OH256160   6.374   0.312   2.677  0.1067 -0.5502  0.0516
11582TIP3    H156161   6.404   0.247   2.741 -1.4939 -1.6214 -0.2173
11582TIP3    H256162   6.291   0.344   2.713  0.9050  1.4269  0.2058
11583TIP3   OH256163   2.234   0.972  12.548 -0.4827 -0.7426 -0.4502
11583TIP3    H156164   2.283   0.916  12.609 -0.8509  0.2986  0.8371
11583TIP3    H256165   2.195   0.910  12.486  1.2743 -1.7053 -0.6784
11584TIP3   OH256166   0.079   0.158   4.660 -0.8353  0.1338  0.4152
11584TIP3    H156167   0.002   0.210   4.682 -1.3076 -0.3299 -0.0888
11584TIP3    H256168   0.043   0.074   4.631 -0.0874 -0.4515  1.1695
11585TIP3   OH256169   1.287   2.328   2.323  0.2364  0.2211 -0.2854
11585TIP3    H156170   1.244   2.413   2.316 -0.0909 -0.0036 -1.1410
11585TIP3    H256171   1.224   2.266   2.285  0.3142 -0.4581  0.6533
11586TIP3   OH256172   6.634   1.285   0.550  0.2445  0.1955  0.1463
11586TIP3    H156173   6.613   1.313   0.461 -0.0767  0.0167  0.1655
11586TIP3    H256174   6.696   1.351   0.582 -1.1644  1.4073  0.5117
11587TIP3   OH256175   6.778   4.250  16.160 -0.1980  0.5452 -0.3522
11587TIP3    H156176   6.839   4.322  16.142 -0.5986  0.8650 -0.4517
11587TIP3    H256177   6.696   4.294  16.183 -0.0547  0.1460  1.0337
11588TIP3   OH256178   3.149   3.183  12.015 -0.2242 -0.2544 -0.0152
11588TIP3    H156179   3.144   3.103  11.963 -0.2853  0.8563 -1.8157
11588TIP3    H256180   3.059   3.216  12.016 -0.0067  0.3463 -0.2171
11589TIP3   OH256181   6.229   4.413  12.555 -0.9495  0.8057  0.2531
11589TIP3    H156182   6.270   4.492  12.521 -0.3495 -0.4411 -2.1576
11589TIP3    H256183   6.238   4.419  12.650 -0.2748  3.2389  0.0895
11590TIP3   OH256184   4.039   4.444   3.389 -0.6498 -0.1684  0.4753
11590TIP3    H156185   4.133   4.460   3.376 -0.4133 -1.3280  0.6729
11590TIP3    H256186   3.996   4.506   3.330  0.2338  0.5039  0.5159
11591TIP3   OH256187   4.406   4.172  11.901 -0.2304 -0.1335 -0.3418
11591TIP3    H156188   4.383   4.082  11.920 -0.8617 -0.1359 -1.0644
11591TIP3    H256189   4.482   4.190  11.956 -0.9466 -0.6597  0.8481
11592TIP3   OH256190   1.395   1.018   2.374 -0.0044  0.5879  0.2282
11592TIP3    H156191   1.371   1.007   2.282 -2.3602  0.4552  0.7838
11592TIP3    H256192   1.487   0.993   2.378 -0.1711 -0.6537 -1.8711
11593TIP3   OH256193   1.710   3.398   5.319  0.1995  0.4216 -0.9989
11593TIP3    H156194   1.651   3.434   5.252  0.5326 -0.2890 -1.6940
11593TIP3    H256195   1.796   3.433   5.296  0.2853  0.3153 -0.8351
11594TIP3   OH256196   5.775   3.290  16.918  0.6120  0.2896  0.1133
11594TIP3    H156197   5.696   3.262  16.965  1.4162 -0.7963  0.8618
11594TIP3    H256198   5.749   3.293  16.826 -0.7940  1.7339  0.5158
11595TIP3   OH256199   3.714   3.317   4.259  0.0888  0.4886 -0.2916
11595TIP3    H156200   3.748   3.345   4.344  0.4371 -1.6610  0.3247
11595TIP3    H256201   3.790   3.323   4.200 -0.2998  2.5939 -0.6891
11596TIP3   OH256202   5.126   5.623   0.394  0.0176 -0.8191  0.1145
11596TIP3    H156203   5.105   5.716   0.387  1.6000 -0.4086  0.5025
11596TIP3    H256204   5.085   5.595   0.476 -0.0947 -0.3607  0.2141
11597TIP3   OH256205   5.996   5.710   1.727  0.2746 -0.4343  0.1040
11597TIP3    H156206   6.046   5.750   1.657  1.5349 -1.0983  0.6037
11597TIP3    H256207   5.915   5.762   1.732  2.1678  2.6594  1.3005
11598TIP3   OH256208   0.873   0.504   6.227 -0.5276  0.4514  0.2367
11598TIP3    H156209   0.933   0.579   6.229 -0.5577  0.4665  0.5601
11598TIP3    H256210   0.921   0.437   6.178 -0.8059  0.9382 -0.7264
11599TIP3   OH256211   3.693   1.057  12.188  0.0908  0.7424  0.2055
11599TIP3    H156212   3.769   1.005  12.159  0.3723  1.4039 -0.2642
11599TIP3    H256213   3.627   0.991  12.210  0.4066  0.1801 -0.4726
11600TIP3   OH256214   6.558   3.294  16.807  0.3035 -0.0909 -0.0291
11600TIP3    H156215   6.497   3.293  16.881  1.3765 -0.9216  0.8855
11600TIP3    H256216   6.531   3.220  16.752  1.0046 -1.0226  0.8426
11601TIP3   OH256217   6.109   1.181   1.720 -0.0194 -0.1004 -0.0548
11601TIP3    H156218   6.059   1.162   1.799  1.4701  1.7694  1.4468
11601TIP3    H256219   6.172   1.110   1.713  0.6487  0.3307  1.2088
11602TIP3   OH256220   5.562   0.349   4.594 -0.5834  0.2418 -0.6961
11602TIP3    H156221   5.502   0.315   4.660  0.5918 -1.5100 -0.4704
11602TIP3    H256222   5.609   0.420   4.639  0.8964 -1.5602  0.7724
11603TIP3   OH256223   1.098   5.983  13.552 -0.4487  0.0520  0.2819
11603TIP3    H156224   1.141   5.923  13.491  1.1798  0.4875  0.9605
11603TIP3    H256225   1.025   6.019  13.501  1.2149  0.8885 -1.6660
11604TIP3   OH256226   3.556   5.710  15.962 -0.1656  0.4560 -0.0940
11604TIP3    H156227   3.545   5.623  15.924  2.0563  0.1116 -0.0889
11604TIP3    H256228   3.606   5.695  16.043 -0.2255  1.6772  0.1899
11605TIP3   OH256229   5.173   6.480   3.749  0.2812 -0.1747 -0.1347
11605TIP3    H156230   5.084   6.474   3.714  0.0366 -0.2788  0.5094
11605TIP3    H256231   5.175   6.563   3.796 -0.3119 -1.3993  2.1748
11606TIP3   OH256232   2.505   2.131   4.934  0.0366 -0.1372 -0.1598
11606TIP3    H156233   2.567   2.123   4.862 -0.0847  1.1778 -0.4199
11606TIP3    H256234   2.524   2.216   4.973 -2.8364  1.2251 -1.4425
11607TIP3   OH256235   5.353   2.476   1.590 -0.3336  0.0739 -0.6384
11607TIP3    H156236   5.368   2.543   1.524 -1.8057  1.1905  0.0701
11607TIP3    H256237   5.276   2.429   1.559 -0.1288 -0.3824 -0.4586
11608TIP3   OH256238   4.770   6.171   2.794  0.5083 -0.0246  0.7813
11608TIP3    H156239   4.784   6.118   2.716  1.7362 -0.4722  1.2860
11608TIP3    H256240   4.858   6.200   2.820 -0.1265  2.6043  0.2940
11609TIP3   OH256241   0.698   2.442   5.137  0.3239  0.1457 -0.7107
11609TIP3    H156242   0.670   2.530   5.162 -0.0203  0.0818 -0.8710
11609TIP3    H256243   0.618   2.390   5.135  0.6053 -0.3518  0.0766
11610TIP3   OH256244   4.243   5.569   5.670 -0.0720 -0.2508  0.2620
11610TIP3    H156245   4.294   5.548   5.591 -1.7014  0.6108 -1.0742
11610TIP3    H256246   4.281   5.651   5.701 -0.0444 -0.0924 -0.1842
11611TIP3   OH256247   3.292   4.476  11.758 -0.8940 -0.0924  0.0441
11611TIP3    H156248   3.327   4.496  11.844 -2.7780  3.2555  0.2216
11611TIP3    H256249   3.336   4.395  11.732  1.8894  0.3114  2.8734
11612TIP3   OH256250   2.458   4.252   3.109  0.1097  0.0499 -0.0282
11612TIP3    H156251   2.505   4.251   3.026  0.4933  0.3495  0.1768
11612TIP3    H256252   2.426   4.342   3.117 -0.8543 -0.2558 -0.3541
11613TIP3   OH256253   1.085   3.967  13.312 -0.3747 -0.3872 -0.0227
11613TIP3    H156254   1.083   3.886  13.261  3.4986 -1.0598  0.5145
11613TIP3    H256255   1.159   4.016  13.276  0.6743  0.4365  2.9497
11614TIP3   OH256256   2.342   0.412  16.324 -0.0189 -0.0357 -0.5513
11614TIP3    H156257   2.260   0.364  16.326  0.4189 -0.8252 -1.1315
11614TIP3    H256258   2.397   0.370  16.390  0.5593 -0.7125 -1.4373
11615TIP3   OH256259   2.399   6.180  17.045  0.9535  0.1603 -0.5314
11615TIP3    H156260   2.407   6.096  17.002  1.4121 -0.3056  0.4364
11615TIP3    H256261   2.467   6.235  17.006  1.4199 -0.2795 -0.3366
11616TIP3   OH256262   6.579   1.850   5.571 -0.5638 -0.2668  0.1671
11616TIP3    H156263   6.665   1.808   5.575 -1.0456 -1.2936 -0.0048
11616TIP3    H256264   6.517   1.781   5.596 -1.6844 -0.5894 -3.0808
11617TIP3   OH256265   2.321   1.543   1.789  0.3785 -0.0121 -0.1367
11617TIP3    H156266   2.273   1.504   1.716 -1.9456  0.0514  1.2543
11617TIP3    H256267   2.347   1.630   1.758 -1.6135  0.4775 -0.5375
11618TIP3   OH256268   2.765   0.419  15.777 -0.5828 -0.3201  0.2597
11618TIP3    H156269   2.771   0.424  15.682 -1.0715  0.2125  0.2483
11618TIP3    H256270   2.848   0.456  15.808  0.0431 -1.4931  0.0415
11619TIP3   OH256271   5.148   5.077  13.231  0.6112 -0.1939  0.2081
11619TIP3    H156272   5.067   5.041  13.196 -1.5736  2.0035  2.5273
11619TIP3    H256273   5.191   5.003  13.273 -1.5932 -0.9773  1.2571
11620TIP3   OH256274   5.317   6.166   3.736 -0.2703 -0.0268 -0.2176
11620TIP3    H156275   5.382   6.207   3.679 -0.4662  2.3369  1.1267
11620TIP3    H256276   5.280   6.094   3.684  1.2098  0.5379 -2.1357
11621TIP3   OH256277   2.810   3.965   2.484  0.1435 -0.3557 -0.4723
11621TIP3    H156278   2.878   4.014   2.439  0.3076 -0.6808 -0.5783
11621TIP3    H256279   2.844   3.952   2.573  0.4584 -0.9927 -0.6832
11622TIP3   OH256280   1.271   6.575  15.349 -0.3620  0.4199 -0.3654
11622TIP3    H156281   1.330   6.499  15.357 -1.8417 -0.7959 -0.6627
11622TIP3    H256282   1.193   6.550  15.398 -1.5481  1.0689 -1.8564
11623TIP3   OH256283   4.902   6.428   3.980  0.2077 -0.6776 -0.1889
11623TIP3    H156284   4.975   6.489   3.976 -0.7996  0.5690 -0.4187
11623TIP3    H256285   4.926   6.357   3.920  1.4647 -0.5950  0.1879
11624TIP3   OH256286   0.339   3.566  13.706  0.0527 -0.5856 -0.0145
11624TIP3    H156287   0.279   3.541  13.636 -1.3705  1.7045  0.2735
11624TIP3    H256288   0.284   3.571  13.784  0.8103  0.6240  0.4700
11625TIP3   OH256289   0.105   2.833  13.068  0.4174 -0.3216  0.1831
11625TIP3    H156290   0.185   2.849  13.019  0.2087 -2.0801 -0.8352
11625TIP3    H256291   0.128   2.762  13.128 -0.7649 -2.1322 -1.3756
11626TIP3   OH256292   2.770   3.700   5.029 -0.1057  0.0461  0.2514
11626TIP3    H156293   2.693   3.745   4.995 -0.1598 -0.2897 -0.0671
11626TIP3    H256294   2.775   3.619   4.979  1.0939  0.5706 -0.5139
11627TIP3   OH256295   3.917   3.402   1.210  0.3194 -0.2185  0.3817
11627TIP3    H156296   3.983   3.365   1.270  0.0241 -0.9615  0.2514
11627TIP3    H256297   3.910   3.337   1.140  0.8421  0.7605 -0.5988
11628TIP3   OH256298   1.722   4.633   1.183 -0.3815  0.0704 -0.2851
11628TIP3    H156299   1.817   4.631   1.186 -0.2907  2.0859 -0.1117
11628TIP3    H256300   1.694   4.589   1.263  0.4766  0.8317  0.4532
11629TIP3   OH256301   5.841   5.009   0.839  0.4072  0.2090 -0.1455
11629TIP3    H156302   5.782   4.934   0.848  0.4167  0.1819 -0.3009
11629TIP3    H256303   5.898   5.003   0.915  0.0806  0.3522  0.1147
11630TIP3   OH256304   0.868   0.872  14.172  0.4844 -0.1885  0.0570
11630TIP3    H156305   0.879   0.786  14.212  0.3457  0.9331  2.7677
11630TIP3    H256306   0.803   0.859  14.103 -1.5159 -1.8503  2.0976
11631TIP3   OH256307   0.176   5.185  13.499 -0.0446  0.0622  0.4118
11631TIP3    H156308   0.180   5.101  13.452 -0.1675 -0.4122  1.2398
11631TIP3    H256309   0.177   5.251  13.429 -1.1361 -0.6482 -0.3023
11632TIP3   OH256310   5.383   4.616   1.580 -0.1491 -0.2469  0.1440
11632TIP3    H156311   5.289   4.616   1.564 -0.2327  1.2974  0.4558
11632TIP3    H256312   5.420   4.568   1.506 -1.1156 -0.0354 -0.5044
11633TIP3   OH256313   4.582   2.795   5.833 -0.7099 -0.2007 -0.1155
11633TIP3    H156314   4.558   2.707   5.860  0.8863 -0.6120  0.0389
11633TIP3    H256315   4.676   2.791   5.816 -0.7616  1.2627 -0.9454
11634TIP3   OH256316   1.492   2.716   2.343 -0.0540 -0.0887  0.1642
11634TIP3    H156317   1.573   2.666   2.348 -0.4645 -0.6777  1.2252
11634TIP3    H256318   1.454   2.693   2.258  0.5501 -0.3342 -0.0397
11635TIP3   OH256319   2.607   0.307   2.444  0.1402 -0.4644 -0.5892
11635TIP3    H156320   2.680   0.280   2.388  0.5761 -1.8493  0.6000
11635TIP3    H256321   2.547   0.232   2.442  0.0151 -0.4059  0.5349
11636TIP3   OH256322   3.786   2.618   1.255  0.4921  0.0963  0.1501
11636TIP3    H156323   3.708   2.587   1.301  0.0934 -2.6586 -2.1326
11636TIP3    H256324   3.856   2.559   1.284  1.3738  1.4055  0.8061
11637TIP3   OH256325   5.532   4.321  15.883 -0.1533 -0.3486  0.6762
11637TIP3    H156326   5.601   4.351  15.942  0.4372 -0.7541  0.1940
11637TIP3    H256327   5.566   4.240  15.845  0.2990  0.8764 -1.6856
11638TIP3   OH256328   1.629   5.002  15.957  0.4547 -1.3586  0.2872
11638TIP3    H156329   1.709   4.955  15.932  1.0681 -1.0897  1.6502
11638TIP3    H256330   1.558   4.944  15.930  0.9980 -0.8725 -2.4927
11639TIP3   OH256331   5.919   3.535   4.843 -0.6836  0.1802  0.1586
11639TIP3    H156332   5.838   3.487   4.858 -0.6694 -0.1486 -0.7359
11639TIP3    H256333   5.961   3.540   4.929 -0.6183 -1.5277  0.2488
11640TIP3   OH256334   3.447   4.318   5.838 -0.2689 -0.1897  0.3073
11640TIP3    H156335   3.372   4.376   5.853 -0.3243 -0.5142  1.3414
11640TIP3    H256336   3.523   4.372   5.859 -0.3038 -0.3814  0.9395
11641TIP3   OH256337   6.586   1.795  11.463  0.1129 -0.7670  0.0288
11641TIP3    H156338   6.638   1.734  11.410  0.0836 -2.2498  1.6187
11641TIP3    H256339   6.497   1.786  11.429  0.5510  0.5819 -1.6312
11642TIP3   OH256340   4.294   2.017   3.071 -0.0915 -0.3148 -0.0118
11642TIP3    H156341   4.252   2.092   3.113  0.4540 -0.3846  0.6686
11642TIP3    H256342   4.370   2.055   3.026  1.0082 -0.6396  1.5197
11643TIP3   OH256343   5.452   5.465   5.757 -0.3522 -0.1330  0.2783
11643TIP3    H156344   5.468   5.456   5.663 -0.8098  0.5662  0.1233
11643TIP3    H256345   5.374   5.413   5.773  1.0267 -2.1531  0.7189
11644TIP3   OH256346   0.283   1.374  14.183 -0.1804 -0.6390  0.2852
11644TIP3    H156347   0.247   1.335  14.263 -0.5902  0.2537  0.5450
11644TIP3    H256348   0.374   1.345  14.181 -0.3069 -1.0840  0.8068
11645TIP3   OH256349   2.041   2.009  15.554 -0.2673  0.6116 -0.8501
11645TIP3    H156350   1.961   2.029  15.505 -0.8961 -2.3144 -1.2551
11645TIP3    H256351   2.012   1.947  15.621  1.6119 -0.2738 -0.8129
11646TIP3   OH256352   3.368   0.217  13.387 -0.4458 -0.2068  0.3641
11646TIP3    H156353   3.329   0.239  13.303  0.4166 -1.0202 -0.2719
11646TIP3    H256354   3.294   0.190  13.442 -1.0591  0.7063  0.0058
11647TIP3   OH256355   5.620   4.293  12.023  0.5796  0.1614  0.1330
11647TIP3    H156356   5.657   4.295  11.935 -0.5366 -0.9045 -0.3931
11647TIP3    H256357   5.582   4.205  12.031  1.5529 -0.1454  2.0668
11648TIP3   OH256358   3.439   0.900   5.316  0.4075  0.0033 -0.7895
11648TIP3    H156359   3.438   0.973   5.378  0.7715  0.3493 -1.1785
11648TIP3    H256360   3.485   0.830   5.362  1.3864  0.5211 -0.9361
11649TIP3   OH256361   2.706   6.119   5.074 -0.3470  0.5296  0.2093
11649TIP3    H156362   2.765   6.057   5.030 -0.2924  0.2057  0.7274
11649TIP3    H256363   2.624   6.113   5.025  0.1664  1.3118 -0.7998
11650TIP3   OH256364   5.900   6.593  12.179  0.3448 -0.1775  0.1051
11650TIP3    H156365   5.951   6.603  12.098 -1.3431 -2.1221 -1.3176
11650TIP3    H256366   5.960   6.619  12.249  2.0713  0.9999 -1.7195
11651TIP3   OH256367   3.066   4.290   5.240  0.7375  0.0271 -0.3331
11651TIP3    H156368   2.975   4.295   5.269  1.5489 -0.5523  2.6611
11651TIP3    H256369   3.075   4.202   5.205  0.5881 -0.6824  1.3060
11652TIP3   OH256370   5.894   5.824   4.122 -0.8598  0.2373 -0.4151
11652TIP3    H156371   5.896   5.914   4.089 -1.1705  0.4337  0.1040
11652TIP3    H256372   5.890   5.770   4.043 -0.8461  0.6823 -0.7225
11653TIP3   OH256373   2.488   5.866   0.072  0.1003  0.2865  0.3311
11653TIP3    H156374   2.409   5.821   0.102  0.7762 -1.1606  0.0538
11653TIP3    H256375   2.550   5.795   0.053  1.3158  1.3646  0.1206
11654TIP3   OH256376   2.989   1.956  16.188 -0.8492  0.5749 -0.5863
11654TIP3    H156377   3.083   1.973  16.187 -1.1004  2.1078 -1.8951
11654TIP3    H256378   2.981   1.868  16.226  1.0311  0.7601  0.3419
11655TIP3   OH256379   5.791   1.202  15.503 -0.1781 -0.5058  0.5007
11655TIP3    H156380   5.774   1.136  15.435  1.8198 -0.9768  0.3861
11655TIP3    H256381   5.814   1.150  15.581 -2.0238  0.0377  1.4631
11656TIP3   OH256382   0.691   3.113  17.103  0.5584 -0.0190  0.2869
11656TIP3    H156383   0.629   3.182  17.079  0.7581 -0.3433 -1.3021
11656TIP3    H256384   0.635   3.040  17.131 -0.0250 -1.0740 -3.1358
11657TIP3   OH256385   1.976   3.237  15.939  0.3106  1.1356  0.1013
11657TIP3    H156386   1.913   3.266  15.873  1.8501  0.5462 -1.7049
11657TIP3    H256387   1.923   3.191  16.004 -1.0226 -0.3747 -1.9355
11658TIP3   OH256388   5.574   4.731   0.229 -0.3013  0.6941  0.1312
11658TIP3    H156389   5.558   4.642   0.195 -2.0119  1.0188  0.0155
11658TIP3    H256390   5.514   4.740   0.302  2.1983  0.6042  2.3684
11659TIP3   OH256391   0.874   0.076   6.584  0.1988  0.2335 -0.0284
11659TIP3    H156392   0.841  -0.014   6.587  1.0414 -0.1040 -0.5396
11659TIP3    H256393   0.901   0.095   6.674  2.2186 -0.9019 -0.3227
11660TIP3   OH256394   0.574   6.056  16.515 -0.2019  0.1557  0.5279
11660TIP3    H156395   0.601   5.964  16.517 -0.6074 -0.0040 -0.4710
11660TIP3    H256396   0.635   6.097  16.453 -1.2788  0.1082 -0.5979
11661TIP3   OH256397   0.110   0.040  13.806  0.5459 -0.0743 -0.2255
11661TIP3    H156398   0.029   0.010  13.765  0.1037  0.1539  0.4653
11661TIP3    H256399   0.087   0.052  13.898  1.7564 -1.4580  0.2834
11662TIP3   OH256400   0.743   3.292   4.314 -0.5380 -0.0556  0.3103
11662TIP3    H156401   0.705   3.379   4.307 -0.4574  0.1205  1.8832
11662TIP3    H256402   0.775   3.286   4.404  1.6149 -0.8328 -0.4388
11663TIP3   OH256403   5.640   0.090   2.154  0.7660  0.2601  0.1844
11663TIP3    H156404   5.615   0.152   2.086 -1.2302 -0.8528 -0.1700
11663TIP3    H256405   5.638   0.005   2.110  3.3884 -0.1414  0.6726
11664TIP3   OH256406   4.407   4.980  13.964 -0.7890 -0.2920  0.4534
11664TIP3    H156407   4.384   5.073  13.964  0.1301 -0.0514  0.1744
11664TIP3    H256408   4.355   4.942  13.893 -1.9713 -0.2103  1.2522
11665TIP3   OH256409   0.762   4.729  15.281 -0.5525 -0.4003 -0.2804
11665TIP3    H156410   0.769   4.785  15.359 -0.3923  0.2190 -0.7263
11665TIP3    H256411   0.750   4.641  15.315  0.2145 -0.2325  0.4614
11666TIP3   OH256412   5.711   4.673  12.322 -0.4603 -0.7515 -0.6008
11666TIP3    H156413   5.657   4.711  12.253 -0.5021  1.1833  0.4298
11666TIP3    H256414   5.705   4.735  12.394  1.3105 -1.6368  0.3799
11667TIP3   OH256415   2.447   5.329   1.406 -0.1238 -0.1138  0.8941
11667TIP3    H156416   2.444   5.424   1.402 -1.9438 -0.0851  1.6828
11667TIP3    H256417   2.355   5.302   1.407  0.3320 -1.9612 -0.5678
11668TIP3   OH256418   1.994   2.603   3.711  0.3051  0.3142 -0.5150
11668TIP3    H156419   1.919   2.662   3.722  1.7865  2.7467 -2.4615
11668TIP3    H256420   2.018   2.611   3.618  2.3018 -1.2616 -0.2168
11669TIP3   OH256421   2.707   3.056  13.301  0.4366  0.8203 -0.3870
11669TIP3    H156422   2.758   3.125  13.259  0.5007  1.0892  0.1197
11669TIP3    H256423   2.664   3.010  13.229  1.7945  0.2572 -0.8747
11670TIP3   OH256424   2.263   6.226   6.496  0.2009 -0.0523 -0.2046
11670TIP3    H156425   2.315   6.306   6.501  1.2544 -0.7331  0.0986
11670TIP3    H256426   2.197   6.235   6.564 -1.4725  1.7460 -1.9257
11671TIP3   OH256427   1.023   5.832   1.800  0.0547  0.6141 -0.0805
11671TIP3    H156428   1.004   5.743   1.770  1.9901 -0.6293  2.0233
11671TIP3    H256429   1.024   5.825   1.896  2.6658  2.2770  0.1157
11672TIP3   OH256430   6.415   3.744  12.115  0.6743  0.3895 -0.3030
11672TIP3    H156431   6.407   3.833  12.083 -0.8476  1.5246  2.8246
11672TIP3    H256432   6.464   3.751  12.197 -2.7751 -0.9049  2.1255
11673TIP3   OH256433   5.913   0.818  17.251  0.2214  0.8051 -0.1830
11673TIP3    H156434   5.912   0.766  17.170  2.2031  1.1990 -0.5210
11673TIP3    H256435   5.827   0.804  17.290 -0.7236  0.4635 -2.2669
11674TIP3   OH256436   4.546   4.553   5.736 -0.0908  0.1287  0.5262
11674TIP3    H156437   4.455   4.548   5.706  0.3690  0.6006 -1.0669
11674TIP3    H256438   4.594   4.586   5.660  0.8965  3.2714  2.3473
11675TIP3   OH256439   1.840   1.981  11.619 -0.5165 -0.2496  0.2960
11675TIP3    H156440   1.911   1.932  11.577  0.0745  1.0252 -0.2541
11675TIP3    H256441   1.880   2.018  11.698 -1.3992 -1.9421  1.5948
11676TIP3   OH256442   0.061   2.444  15.764 -0.4307  0.1350 -0.3727
11676TIP3    H156443   0.110   2.383  15.819 -0.1562  0.3755 -0.3475
11676TIP3    H256444  -0.007   2.391  15.723 -1.4687  0.1746  1.1887
11677TIP3   OH256445   4.427   5.653   4.248  0.1981 -0.4215 -0.4616
11677TIP3    H156446   4.481   5.708   4.191  2.1543 -2.3948 -0.6732
11677TIP3    H256447   4.342   5.649   4.205  0.8748  0.1766 -1.9251
11678TIP3   OH256448   3.655   1.575  12.477  0.0455 -0.2092  0.2479
11678TIP3    H156449   3.563   1.569  12.452  0.0141  3.2138 -1.0975
11678TIP3    H256450   3.702   1.586  12.394  1.4719 -0.3818  0.9949
11679TIP3   OH256451   2.422   1.980  16.602 -0.3167 -0.3779 -0.4882
11679TIP3    H156452   2.449   1.990  16.693 -0.5703 -2.5594 -0.1202
11679TIP3    H256453   2.504   1.983  16.553 -0.0073 -0.8137 -0.0088
11680TIP3   OH256454   4.035   4.268  12.957 -0.0372  0.3804 -0.0969
11680TIP3    H156455   4.042   4.362  12.939  1.0521  0.1349 -1.1136
11680TIP3    H256456   4.124   4.235  12.944 -0.4918 -0.8621 -0.1815
11681TIP3   OH256457   3.123   2.452   3.132  0.0251  0.4171 -0.3121
11681TIP3    H156458   3.206   2.499   3.139  0.2429 -0.1087  1.0176
11681TIP3    H256459   3.147   2.360   3.127 -0.4730  0.2422  0.3293
11682TIP3   OH256460   0.090   0.107   5.950 -0.2637 -0.4644 -0.2563
11682TIP3    H156461   0.138   0.190   5.949 -1.4319  0.2232 -0.8860
11682TIP3    H256462   0.021   0.118   5.885 -1.7898 -1.1187  1.1742
11683TIP3   OH256463   5.840   3.181   2.304 -0.3092  0.1313  0.1013
11683TIP3    H156464   5.867   3.184   2.396 -0.3016  1.4321  0.0791
11683TIP3    H256465   5.875   3.262   2.266 -2.6604  1.0386 -0.3565
11684TIP3   OH256466   0.338   0.116  16.222 -0.0324 -0.0978 -0.1801
11684TIP3    H156467   0.414   0.173  16.235  0.4932 -0.4302 -1.5550
11684TIP3    H256468   0.263   0.175  16.222  0.5429  0.7243 -2.1006
11685TIP3   OH256469   1.414   6.762  14.777  0.5133 -0.2570 -0.1245
11685TIP3    H156470   1.333   6.721  14.809  0.3635 -0.1731 -0.3969
11685TIP3    H256471   1.419   6.736  14.685 -1.2814  2.9554 -1.2697
11686TIP3   OH256472   6.116   2.788  15.514 -0.4575  0.2075 -0.5168
11686TIP3    H156473   6.066   2.869  15.502  1.0161  1.0483 -1.2868
11686TIP3    H256474   6.099   2.737  15.435  0.4460  0.8199 -1.1247
11687TIP3   OH256475   1.085   0.699   3.164  0.1597 -0.0063  0.2864
11687TIP3    H156476   1.109   0.792   3.172 -0.0770  0.2382 -1.4739
11687TIP3    H256477   1.057   0.674   3.252  0.3093  1.5698  0.8185
11688TIP3   OH256478   4.924   0.093   2.335  0.0345  0.6338  0.0552
11688TIP3    H156479   4.883   0.084   2.249  2.4256 -0.5186 -1.0659
11688TIP3    H256480   4.851   0.102   2.396 -1.7860  0.0029 -1.9269
11689TIP3   OH256481   6.645   1.380   3.726  0.3748  0.1244 -0.8486
11689TIP3    H156482   6.730   1.335   3.735  0.9094  0.7183 -2.5030
11689TIP3    H256483   6.599   1.329   3.658 -0.3711  0.1427 -0.3635
11690TIP3   OH256484   4.039   6.025  11.603  0.9306 -0.0499  0.2833
11690TIP3    H156485   3.992   6.070  11.533 -0.3980 -1.2964  0.3126
11690TIP3    H256486   4.112   5.982  11.560  1.1839  0.6770 -0.0228
11691TIP3   OH256487   4.959   6.766   2.611 -0.2363 -0.2613  0.3073
11691TIP3    H156488   5.019   6.804   2.547 -0.6065 -0.9268 -0.4481
11691TIP3    H256489   4.872   6.793   2.582 -0.4148 -0.6644  0.4586
11692TIP3   OH256490   5.632   0.909   6.510  0.0929 -0.2774 -0.2466
11692TIP3    H156491   5.614   0.818   6.535  0.1366 -0.6159 -1.4008
11692TIP3    H256492   5.549   0.954   6.525  0.3760 -0.2380  1.4165
11693TIP3   OH256493   4.655   5.584  12.830 -0.6638  0.0800  0.6915
11693TIP3    H156494   4.691   5.560  12.915 -1.9470  1.6695  1.7661
11693TIP3    H256495   4.650   5.680  12.833 -1.6939  0.1036 -0.7642
11694TIP3   OH256496   3.804   2.216  13.061  0.3061 -0.0575 -0.2044
11694TIP3    H156497   3.888   2.184  13.028 -0.6768 -2.6822 -0.3858
11694TIP3    H256498   3.782   2.157  13.132 -0.1958  2.2113  1.6342
11695TIP3   OH256499   0.348   2.372  12.773  0.3544  0.3230 -0.1857
11695TIP3    H156500   0.268   2.403  12.816 -0.4652  0.3458 -1.6524
11695TIP3    H256501   0.405   2.345  12.845  0.4658  3.5991  1.1410
11696TIP3   OH256502   6.690   4.385   4.500 -0.1546  0.4542 -0.0709
11696TIP3    H156503   6.768   4.340   4.533  0.3646  0.7809 -0.8095
11696TIP3    H256504   6.622   4.317   4.496 -0.4299  0.5338  2.2156
11697TIP3   OH256505   5.471   1.086   3.521 -0.3826  0.3581 -0.2493
11697TIP3    H156506   5.505   1.043   3.600  0.2038 -0.2307 -0.8046
11697TIP3    H256507   5.394   1.035   3.497 -1.4589  1.4582  0.7903
11698TIP3   OH256508   5.009   4.007  14.072  0.4070 -0.0991 -0.2267
11698TIP3    H156509   5.067   3.999  13.996  0.6415  0.4423 -0.1107
11698TIP3    H256510   5.035   3.935  14.129  2.0186  1.0031  0.5049
11699TIP3   OH256511   3.760   5.455  10.734  0.1937 -0.7492 -0.0956
11699TIP3    H156512   3.664   5.454  10.734  0.1013 -1.5627 -3.0275
11699TIP3    H256513   3.784   5.372  10.775 -0.3039 -0.3272  1.0986
11700TIP3   OH256514   4.944   4.915  13.164 -0.3046 -0.0229  0.3142
11700TIP3    H156515   4.903   4.829  13.172  1.0457 -0.8893 -1.4051
11700TIP3    H256516   4.921   4.945  13.076  1.1120  0.3292  0.0345
11701TIP3   OH256517   2.830   4.013   3.087 -0.2485 -0.1965 -0.7677
11701TIP3    H156518   2.761   3.949   3.101 -0.8803  0.0167 -2.6449
11701TIP3    H256519   2.908   3.975   3.129 -1.3259 -0.6790  0.9098
11702TIP3   OH256520   0.825   2.217   2.470  0.1055  0.5351  0.0713
11702TIP3    H156521   0.835   2.288   2.407  0.7804  0.3338 -0.0516
11702TIP3    H256522   0.863   2.141   2.426 -0.3507  0.1571  0.3162
11703TIP3   OH256523   3.284   5.633  14.451  0.3215 -0.1092  0.9225
11703TIP3    H156524   3.197   5.648  14.488  0.0985  1.3346 -0.0887
11703TIP3    H256525   3.332   5.714  14.470  0.6588  0.0812 -0.5910
11704TIP3   OH256526   4.951   2.901  14.568 -0.9364 -0.0062  0.3846
11704TIP3    H156527   4.931   2.927  14.479 -1.9779 -1.8442  0.0249
11704TIP3    H256528   5.026   2.842  14.559 -2.1023 -1.5750  0.4605
11705TIP3   OH256529   3.276   2.957  17.124  0.2467  0.3267 -0.6481
11705TIP3    H156530   3.184   2.933  17.110  0.4852  0.0669 -1.8854
11705TIP3    H256531   3.305   2.899  17.194 -0.2832 -0.2413 -0.8890
11706TIP3   OH256532   4.133   1.213  12.904  0.1361 -0.7529 -0.2921
11706TIP3    H156533   4.071   1.267  12.952  1.6524  0.1586  0.7343
11706TIP3    H256534   4.129   1.128  12.947  0.8704 -0.1856  0.9644
11707TIP3   OH256535   6.629   1.730   0.671 -0.2328 -0.0140  0.7002
11707TIP3    H156536   6.590   1.808   0.631 -0.0430  0.2812  1.0791
11707TIP3    H256537   6.627   1.748   0.765 -1.1277 -0.9150  0.8645
11708TIP3   OH256538   1.537   4.860   2.817 -0.1964  0.2255 -0.0340
11708TIP3    H156539   1.540   4.770   2.850  2.5046  0.5959  0.9915
11708TIP3    H256540   1.550   4.851   2.722 -0.3462 -0.4737  0.0068
11709TIP3   OH256541   2.366   3.302   0.644  0.0039 -0.0730  0.1103
11709TIP3    H156542   2.447   3.256   0.665 -0.4515 -0.7103  0.5228
11709TIP3    H256543   2.381   3.392   0.673  0.1117 -0.4770  1.3567
11710TIP3   OH256544   5.899   6.062   0.857  0.1569 -0.1584 -0.0052
11710TIP3    H156545   5.985   6.021   0.853 -0.3589 -1.2786 -0.1420
11710TIP3    H256546   5.868   6.043   0.946  0.1896  0.5507  0.1633
11711TIP3   OH256547   1.818   4.796  15.945  0.1814  0.5261  0.5637
11711TIP3    H156548   1.888   4.820  15.884 -0.6572  0.5907 -0.3979
11711TIP3    H256549   1.864   4.767  16.024  1.2790  1.1150  0.1660
11712TIP3   OH256550   4.797   4.653  13.794  0.4081  0.1278  0.8494
11712TIP3    H156551   4.839   4.592  13.734 -0.7086 -0.8221  0.9932
11712TIP3    H256552   4.847   4.644  13.875  0.6139 -0.1630  0.6935
11713TIP3   OH256553   0.927   2.010   0.739 -0.1278 -0.0395 -0.1071
11713TIP3    H156554   1.005   2.019   0.794  0.4831  0.2786 -0.9997
11713TIP3    H256555   0.869   1.953   0.789  1.2241 -1.3814  0.0031
11714TIP3   OH256556   1.489   3.100   2.598 -0.5301  0.6544 -0.0409
11714TIP3    H156557   1.571   3.148   2.599  0.6625 -1.2591  0.2817
11714TIP3    H256558   1.465   3.092   2.691 -0.0154 -0.4478  0.0127
11715TIP3   OH256559   0.682   2.117  14.145  0.1182  0.0276 -0.3717
11715TIP3    H156560   0.729   2.151  14.070 -2.5815  2.0765 -1.2832
11715TIP3    H256561   0.747   2.116  14.216  2.2608 -0.2787 -2.2302
11716TIP3   OH256562   2.704   4.080  11.526  0.2635  0.1256 -0.2887
11716TIP3    H156563   2.737   4.004  11.575  1.2376  0.2772 -0.6795
11716TIP3    H256564   2.613   4.087  11.552 -0.4863 -2.4739 -1.7700
11717TIP3   OH256565   2.956   6.098   6.635  0.1157  0.3260  0.2994
11717TIP3    H156566   2.999   6.076   6.552 -1.2488 -2.1646  0.1367
11717TIP3    H256567   2.982   6.027   6.694 -3.4980 -1.2931  0.2173
11718TIP3   OH256568   4.978   0.179  11.202 -0.3516  0.4725 -0.3326
11718TIP3    H156569   5.003   0.196  11.111  0.0130  1.7368 -0.0211
11718TIP3    H256570   4.909   0.113  11.197  0.1279  0.0437 -1.4812
11719TIP3   OH256571   6.655   4.702  12.483  0.7038  0.6291  0.0352
11719TIP3    H156572   6.697   4.788  12.479  0.0891  0.8940 -1.1214
11719TIP3    H256573   6.567   4.717  12.448  0.6681 -0.5263 -0.4082
11720TIP3   OH256574   4.756   3.037  12.332  0.0454 -0.1177 -0.6146
11720TIP3    H156575   4.786   3.081  12.412  1.5265 -1.5992 -0.2956
11720TIP3    H256576   4.714   3.106  12.281  1.2251  1.4109  0.3846
11721TIP3   OH256577   0.256   5.935  12.818  0.1897  0.1261 -0.4336
11721TIP3    H156578   0.261   6.005  12.883  0.5232 -0.5844  0.3289
11721TIP3    H256579   0.171   5.947  12.776 -0.7245 -0.3171  1.2222
11722TIP3   OH256580   4.039   3.552  12.271  0.0909 -0.4094 -0.4007
11722TIP3    H156581   4.077   3.557  12.358  2.1788  0.9767 -1.3009
11722TIP3    H256582   3.946   3.571  12.284 -0.0149 -1.9809  1.6778
11723TIP3   OH256583   4.756   3.553  10.743 -0.4173  0.5443  0.5668
11723TIP3    H156584   4.829   3.560  10.804  0.8713  1.4091 -1.0056
11723TIP3    H256585   4.732   3.460  10.745  1.3509  0.0377  0.4611
11724TIP3   OH256586   3.237   2.908   4.302 -0.1557  0.0024  0.2445
11724TIP3    H156587   3.298   2.881   4.234 -0.0604  0.0390  0.3153
11724TIP3    H256588   3.155   2.927   4.255 -0.1129 -0.0457  0.1502
11725TIP3   OH256589   1.025   1.029   0.170 -0.0935 -0.1170 -0.4510
11725TIP3    H156590   0.969   1.010   0.245  0.0415 -2.0407 -0.7864
11725TIP3    H256591   1.083   1.098   0.201 -0.5195 -0.3626  0.9860
11726TIP3   OH256592   6.223   4.184  13.587 -0.2555  0.2001 -0.4102
11726TIP3    H156593   6.204   4.091  13.600 -2.9320  0.7886  0.6354
11726TIP3    H256594   6.282   4.206  13.660 -0.4194 -0.4488 -0.0717
11727TIP3   OH256595   6.544   3.257   1.148 -0.1848 -0.1441  0.6585
11727TIP3    H156596   6.569   3.292   1.234  0.7989 -0.4368  0.5026
11727TIP3    H256597   6.608   3.293   1.087 -0.2720 -0.7320  0.2047
11728TIP3   OH256598   1.778   1.319   3.683  0.0901  0.1630 -0.0917
11728TIP3    H156599   1.737   1.391   3.634 -0.6225 -0.8140 -0.9759
11728TIP3    H256600   1.794   1.356   3.770 -2.2971  0.7572  0.1637
11729TIP3   OH256601   1.718   0.255  11.181  0.1272  0.1371 -0.0799
11729TIP3    H156602   1.645   0.259  11.119  2.1459 -0.5301 -2.7034
11729TIP3    H256603   1.698   0.180  11.236 -0.8474 -0.4597 -1.1894
11730TIP3   OH256604   3.039   0.219   6.356  0.5215  0.0993 -0.1560
11730TIP3    H156605   2.976   0.290   6.365  0.3753  0.0410 -0.6861
11730TIP3    H256606   3.078   0.210   6.443  0.6690  0.9407 -0.1286
11731TIP3   OH256607   0.907   0.694   5.134 -0.7820 -0.5829 -0.3732
11731TIP3    H156608   0.877   0.773   5.090  0.4644  0.1192 -0.0062
11731TIP3    H256609   0.859   0.691   5.216 -0.2649  0.2207 -0.0390
11732TIP3   OH256610   2.787   4.128  15.036  0.7078  0.4310  0.3893
11732TIP3    H156611   2.704   4.143  14.991  0.7233 -2.1015 -0.6688
11732TIP3    H256612   2.792   4.198  15.101 -1.0928  2.0558 -1.0886
11733TIP3   OH256613   0.827   0.182  13.124  0.1722  0.4393  0.3856
11733TIP3    H156614   0.812   0.143  13.210  0.5428 -0.3599  0.0968
11733TIP3    H256615   0.783   0.267  13.128  0.6957  0.6687  1.5699
11734TIP3   OH256616   4.210   2.095   5.262  0.3914 -0.0225  0.2044
11734TIP3    H156617   4.293   2.142   5.251 -0.3760  2.9227  4.4509
11734TIP3    H256618   4.144   2.153   5.225 -0.1185 -0.3134  0.6349
11735TIP3   OH256619   3.424   2.238  16.707 -0.2186 -0.2319 -0.4843
11735TIP3    H156620   3.445   2.326  16.738 -1.1506 -0.4995  1.0463
11735TIP3    H256621   3.425   2.245  16.611  2.9546  0.6198 -0.4887
11736TIP3   OH256622   0.293   5.942  16.302 -0.4287 -0.6250 -0.2326
11736TIP3    H156623   0.359   6.004  16.270 -0.0188  0.4620  2.4456
11736TIP3    H256624   0.343   5.867  16.334 -0.2694  0.4723  2.4062
11737TIP3   OH256625   0.242   1.027   0.043  0.0380  0.5200  0.0344
11737TIP3    H156626   0.316   0.978   0.006 -1.4296 -1.4391 -0.4712
11737TIP3    H256627   0.250   1.114   0.005  1.8742  0.2647 -0.2800
11738TIP3   OH256628   4.248   2.126   6.593  0.1490 -0.3099  0.0367
11738TIP3    H156629   4.276   2.117   6.502  0.2903  2.7876 -0.3308
11738TIP3    H256630   4.329   2.134   6.643  0.0684 -1.8628  0.4587
11739TIP3   OH256631   2.986   1.286   3.140  0.3958 -0.1842 -0.0974
11739TIP3    H156632   3.067   1.254   3.178 -0.3347 -2.0921 -0.0132
11739TIP3    H256633   2.979   1.377   3.169  1.3762 -0.6606  1.7692
11740TIP3   OH256634   4.052   4.476  11.670 -0.3106 -0.4633 -0.6877
11740TIP3    H156635   4.081   4.414  11.737  1.3641 -1.5015 -2.2741
11740TIP3    H256636   4.122   4.542  11.668 -0.1715 -0.6337 -1.6345
11741TIP3   OH256637   3.676   1.884   2.441  0.6540 -0.2513 -0.1087
11741TIP3    H156638   3.672   1.935   2.522  0.3162 -0.1863 -0.1623
11741TIP3    H256639   3.664   1.793   2.470  2.2682 -0.4331  0.1000
11742TIP3   OH256640   6.708   0.122   5.327  0.1274 -0.3501 -0.0961
11742TIP3    H156641   6.783   0.129   5.386 -0.5597 -0.2008  0.7885
11742TIP3    H256642   6.632   0.124   5.385 -0.5818  0.0588 -1.0165
11743TIP3   OH256643   0.973   5.502   4.785  0.1830 -0.3621  0.5078
11743TIP3    H156644   0.986   5.590   4.751 -0.6752 -0.6441 -0.6273
11743TIP3    H256645   0.965   5.447   4.707  0.3799 -1.4003  1.1889
11744TIP3   OH256646   6.220   5.869  13.714 -0.1466  0.3774  0.1182
11744TIP3    H156647   6.193   5.960  13.699 -0.7800  0.3864  1.1833
11744TIP3    H256648   6.295   5.876  13.773  0.3319  0.2355 -0.4702
11745TIP3   OH256649   0.325   0.354   0.166 -0.4187  0.6107  0.0672
11745TIP3    H156650   0.363   0.437   0.137  0.6015  0.3249  0.5574
11745TIP3    H256651   0.397   0.292   0.161 -0.9418 -0.0505  0.5810
11746TIP3   OH256652   1.440   2.942   0.632 -0.2988  0.1740  0.6143
11746TIP3    H156653   1.497   2.964   0.707 -0.2885  1.1223  0.3409
11746TIP3    H256654   1.472   2.856   0.603  0.2757  0.1940  1.1455
11747TIP3   OH256655   3.914   4.944  10.663 -0.0377  0.6084  0.1422
11747TIP3    H156656   3.855   5.003  10.710  0.6994  1.2255  0.3031
11747TIP3    H256657   3.961   5.001  10.602 -1.1965 -0.2061 -1.6029
11748TIP3   OH256658   6.793   2.064  13.005 -0.5461 -0.1820 -0.0890
11748TIP3    H156659   6.816   2.130  13.071 -1.8249  0.7801 -0.5706
11748TIP3    H256660   6.856   2.078  12.935 -0.3996  0.0872  0.0934
11749TIP3   OH256661   1.549   1.740   4.896  0.2747 -0.4761 -0.0752
11749TIP3    H156662   1.563   1.756   4.989  1.2028  0.2202 -0.3133
11749TIP3    H256663   1.463   1.778   4.878 -0.4436 -1.6611  0.7162
11750TIP3   OH256664   1.169   5.252  11.719  0.1446 -0.1755  0.6039
11750TIP3    H156665   1.087   5.219  11.683 -0.0341 -0.9896  1.6785
11750TIP3    H256666   1.236   5.194  11.683 -0.1472 -1.6872  2.3293
11751TIP3   OH256667   0.801   6.557   5.291  0.4049 -0.2067  0.1357
11751TIP3    H156668   0.884   6.595   5.321  0.4821 -1.1775  1.2448
11751TIP3    H256669   0.818   6.532   5.200  0.8658  0.8866 -0.0930
11752TIP3   OH256670   2.948   6.474   4.189 -0.0816  0.1789  0.0874
11752TIP3    H156671   3.037   6.439   4.199  0.4053  1.7816  2.2047
11752TIP3    H256672   2.933   6.477   4.095  1.3849 -1.8071 -0.2767
11753TIP3   OH256673   3.664   6.453  16.322  0.3591 -0.3045  0.1595
11753TIP3    H156674   3.678   6.471  16.229  1.2681  0.9534  0.5213
11753TIP3    H256675   3.752   6.449  16.359 -0.0141 -0.1434  1.0833
11754TIP3   OH256676   1.420   0.043   6.113  0.0278  0.1594  0.1038
11754TIP3    H156677   1.448  -0.045   6.088  1.8228  0.8142 -0.3349
11754TIP3    H256678   1.495   0.098   6.093 -1.5307  2.0283 -0.9473
11755TIP3   OH256679   3.827   2.169  15.869  0.1884  0.4108  0.3288
11755TIP3    H156680   3.808   2.250  15.822  2.0249  1.1374  0.7516
11755TIP3    H256681   3.886   2.121  15.811  1.2750  0.6372  1.2130
11756TIP3   OH256682   5.416   0.810   5.063  0.1598  0.2886  0.1956
11756TIP3    H156683   5.372   0.783   4.982  1.0140  2.6591 -1.1376
11756TIP3    H256684   5.348   0.856   5.112  0.1166  0.4673 -0.0287
11757TIP3   OH256685   1.650   4.035  16.416 -0.2461  0.0560  0.0212
11757TIP3    H156686   1.690   3.965  16.468 -0.4939 -0.3785 -0.3682
11757TIP3    H256687   1.724   4.076  16.370  0.0270  0.6803  0.9754
11758TIP3   OH256688   5.545   6.682   0.297 -0.4356 -0.2064  0.2014
11758TIP3    H156689   5.456   6.697   0.330 -0.5176 -0.1212 -0.0562
11758TIP3    H256690   5.571   6.599   0.336  0.2789  0.8655  2.2045
11759TIP3   OH256691   3.702   3.577   1.215  0.3218 -1.0299 -0.2887
11759TIP3    H156692   3.684   3.617   1.300  1.0940 -1.5550  0.1276
11759TIP3    H256693   3.756   3.501   1.234  1.7014 -0.3658 -1.3715
11760TIP3   OH256694   4.876   0.319   4.923 -0.1392 -0.6138  0.4390
11760TIP3    H156695   4.880   0.326   5.018  0.4898 -1.6316  0.5030
11760TIP3    H256696   4.792   0.357   4.899 -1.8862 -3.4354  1.7128
11761TIP3   OH256697   2.223   1.560  14.407  0.7314  0.1501  0.1140
11761TIP3    H156698   2.138   1.602  14.419  0.1195 -0.8940 -0.3997
11761TIP3    H256699   2.261   1.603  14.331 -0.9205 -1.7116 -1.9016
11762TIP3   OH256700   1.369   4.535  12.174  0.4859  0.5730  0.1961
11762TIP3    H156701   1.415   4.498  12.099 -0.4466  0.9211 -0.5716
11762TIP3    H256702   1.431   4.527  12.247  1.4088  0.2340 -0.6046
11763TIP3   OH256703   2.801   4.553  14.304  0.3419  0.6365 -0.5819
11763TIP3    H156704   2.783   4.518  14.216  0.1002 -0.4337 -0.1170
11763TIP3    H256705   2.896   4.570  14.303  0.7460 -1.3577 -0.3894
11764TIP3   OH256706   6.763   4.474  12.649 -0.2461  0.0162  0.1579
11764TIP3    H156707   6.858   4.464  12.647 -0.2188  0.2742  0.1903
11764TIP3    H256708   6.748   4.568  12.649 -0.5516  0.0013 -1.6750
11765TIP3   OH256709   1.160   6.593  16.714 -0.1914  0.1906 -0.0580
11765TIP3    H156710   1.096   6.647  16.760 -1.6787 -0.1652 -1.5875
11765TIP3    H256711   1.183   6.524  16.777 -0.7210  0.7738  0.7908
11766TIP3   OH256712   2.118   3.608   3.930 -0.1338  0.1307 -0.1358
11766TIP3    H156713   2.038   3.658   3.913 -0.0046  0.1997 -0.5529
11766TIP3    H256714   2.119   3.541   3.863 -0.3041 -0.4383  0.4224
11767TIP3   OH256715   4.661   5.203   4.744 -0.1841  0.5536 -0.0906
11767TIP3    H156716   4.620   5.274   4.695 -1.3273  0.0173  0.0605
11767TIP3    H256717   4.629   5.123   4.703 -2.0638  0.0611  2.1565
11768TIP3   OH256718   5.833   5.494   2.085 -0.1045 -0.4681  0.2646
11768TIP3    H156719   5.775   5.449   2.146 -0.5839  0.2311  0.3373
11768TIP3    H256720   5.816   5.587   2.099 -0.2039 -0.2909 -0.9079
11769TIP3   OH256721   5.177   1.703  11.691 -0.6652 -0.2384  0.1966
11769TIP3    H156722   5.268   1.676  11.702 -0.6759  0.2624  1.7880
11769TIP3    H256723   5.150   1.662  11.609  1.0269 -0.2632 -0.3924
11770TIP3   OH256724   1.690   3.941  16.010  0.4396 -0.3344  0.5570
11770TIP3    H156725   1.768   3.980  16.048 -1.2674  1.4570  2.4580
11770TIP3    H256726   1.694   3.963  15.917  1.9499  0.0990  0.7096
11771TIP3   OH256727   2.936   0.692   5.767 -0.6629  0.3273 -0.1544
11771TIP3    H156728   2.916   0.599   5.778 -0.4207  0.3551  0.6162
11771TIP3    H256729   3.031   0.698   5.776 -0.6903  0.6672 -0.0438
11772TIP3   OH256730   4.095   6.299   3.689 -0.3687  0.0824  0.3837
11772TIP3    H156731   4.045   6.372   3.653 -1.4814 -1.9133 -2.5821
11772TIP3    H256732   4.030   6.248   3.737 -0.1600 -0.1811  0.3884
11773TIP3   OH256733   6.389   5.934   1.343 -0.2003  0.3191  0.6924
11773TIP3    H156734   6.386   5.957   1.436 -1.2960  0.8211  0.5535
11773TIP3    H256735   6.311   5.974   1.306  0.5472  0.6611 -0.5810
11774TIP3   OH256736   5.281   6.412  13.626 -0.0687  0.1800  0.2819
11774TIP3    H156737   5.196   6.379  13.597  0.2141 -1.8982  1.5947
11774TIP3    H256738   5.266   6.440  13.716  0.3484  1.1006  0.0758
11775TIP3   OH256739   6.555   6.613   1.318  0.3197 -0.2392  0.0812
11775TIP3    H156740   6.597   6.552   1.378 -0.2585 -2.6909 -1.8801
11775TIP3    H256741   6.627   6.653   1.269  0.7907  1.7017  2.1388
11776TIP3   OH256742   0.602   1.978   6.613  0.4410 -0.5132  0.1149
11776TIP3    H156743   0.643   2.054   6.655  0.9935 -1.4258  1.2721
11776TIP3    H256744   0.549   1.938   6.681 -1.4244 -0.1016 -1.0180
11777TIP3   OH256745   0.686   5.567   5.711 -0.3147 -0.3824 -0.0613
11777TIP3    H156746   0.703   5.593   5.620  0.3269  0.9432  0.4164
11777TIP3    H256747   0.758   5.605   5.761 -0.4416 -1.4374  0.9654
11778TIP3   OH256748   3.359   3.983  11.706  0.0690  0.1102 -0.3467
11778TIP3    H156749   3.340   4.004  11.798 -0.3678 -0.8416 -0.2044
11778TIP3    H256750   3.445   3.942  11.709 -0.9105 -2.0772 -0.0042
11779TIP3   OH256751   0.259   5.258  14.013 -0.2697  0.1341  0.1516
11779TIP3    H156752   0.220   5.345  14.021  0.0628  0.5530 -2.0974
11779TIP3    H256753   0.353   5.272  14.028  0.0098  0.4956 -1.6724
11780TIP3   OH256754   1.369   2.872  14.049 -0.0473 -0.6974  0.2248
11780TIP3    H156755   1.360   2.921  14.131  1.0723 -1.5590  0.8888
11780TIP3    H256756   1.290   2.894  13.999 -1.2234 -0.9109  1.9367
11781TIP3   OH256757   5.876   3.493  13.303 -0.0564  0.2333  0.6250
11781TIP3    H156758   5.831   3.542  13.372  0.2990  0.9288  0.3690
11781TIP3    H256759   5.813   3.426  13.275 -1.2592  1.6951 -0.2794
11782TIP3   OH256760   2.955   4.985   1.486  0.2170 -0.3100 -0.4324
11782TIP3    H156761   2.897   4.921   1.445 -1.0350 -0.6900  1.7290
11782TIP3    H256762   2.961   4.956   1.577  1.6179  1.2916  0.0347
11783TIP3   OH256763   2.287   4.224   3.634  0.2098 -0.6175  0.1201
11783TIP3    H156764   2.381   4.222   3.653 -0.1400 -1.1586  1.9401
11783TIP3    H256765   2.256   4.136   3.656 -0.9918  0.0250  1.1377
11784TIP3   OH256766   4.484   5.338  11.895  0.0475 -0.5495  0.1387
11784TIP3    H156767   4.496   5.367  11.985  1.7836  0.5471 -0.4135
11784TIP3    H256768   4.521   5.407  11.841 -0.9058 -1.2053 -1.4447
11785TIP3   OH256769   1.274   4.159   4.105 -0.1234  0.1558  0.2285
11785TIP3    H156770   1.269   4.133   4.197 -3.7407  0.9355  0.4255
11785TIP3    H256771   1.284   4.254   4.108  1.9885 -0.0061 -0.2936
11786TIP3   OH256772   0.899   3.450   2.866  0.3272  0.1656  0.4891
11786TIP3    H156773   0.847   3.480   2.941 -0.0860 -1.0832  0.7162
11786TIP3    H256774   0.837   3.445   2.794  0.9428  2.5019 -0.3032
11787TIP3   OH256775   5.617   6.762  11.650 -0.1144  0.2141 -0.3311
11787TIP3    H156776   5.588   6.766  11.559 -1.5856  2.1556  0.1712
11787TIP3    H256777   5.620   6.669  11.670 -3.1702 -0.2198 -1.3646
11788TIP3   OH256778   1.791   4.578   0.383 -0.6287 -0.5485 -0.3079
11788TIP3    H156779   1.766   4.643   0.318 -0.5426  1.4360  1.5557
11788TIP3    H256780   1.828   4.506   0.331  1.6227  1.9030 -2.3933
11789TIP3   OH256781   5.213   6.063   4.691  0.2092  0.0725 -0.2396
11789TIP3    H156782   5.245   6.015   4.768 -0.6482 -2.2697 -1.2627
11789TIP3    H256783   5.170   6.141   4.728 -0.6238 -1.2267  1.7096
11790TIP3   OH256784   2.922   4.749   1.127 -0.1673  0.1603  0.5491
11790TIP3    H156785   2.996   4.706   1.170 -1.2619  0.0734  2.4662
11790TIP3    H256786   2.886   4.682   1.069  0.6960 -0.0878  0.2842
11791TIP3   OH256787   2.407   1.593  13.127  0.2077  0.3984  0.5166
11791TIP3    H156788   2.321   1.604  13.168  0.6566  0.4723  1.4590
11791TIP3    H256789   2.388   1.584  13.033 -0.8967 -0.6052  0.8205
11792TIP3   OH256790   2.467   0.601   4.207 -0.5332 -0.2046 -0.0161
11792TIP3    H156791   2.464   0.506   4.208 -0.8521 -0.2149 -0.7445
11792TIP3    H256792   2.394   0.626   4.150 -0.6664  0.4888  0.4454
11793TIP3   OH256793   1.043   6.328  13.944 -0.0503  0.2084 -0.6625
11793TIP3    H156794   1.118   6.275  13.971  0.5551  0.4568 -1.8235
11793TIP3    H256795   1.015   6.373  14.024  1.0698  0.1603 -0.2318
11794TIP3   OH256796   2.534   3.884  14.769  0.3329  0.1284 -0.1140
11794TIP3    H156797   2.620   3.877  14.727  1.1901 -1.3249  1.7768
11794TIP3    H256798   2.480   3.822  14.721  1.1091 -0.9940  0.4274
11795TIP3   OH256799   6.242   4.534  13.618 -0.2437 -0.1707  0.0680
11795TIP3    H156800   6.241   4.554  13.712 -0.0366 -2.4134  0.5992
11795TIP3    H256801   6.314   4.471  13.608 -0.1634  0.1461 -1.6407
11796TIP3   OH256802   4.654   2.314   5.074  0.8607  0.0660 -0.2817
11796TIP3    H156803   4.736   2.308   5.122 -0.1617  1.3002  1.7749
11796TIP3    H256804   4.679   2.308   4.982  3.2842  0.8238  0.2606
11797TIP3   OH256805   5.767   0.885   2.889  0.5465  0.4813 -0.2280
11797TIP3    H156806   5.849   0.934   2.897 -0.0385  1.3032  0.8727
11797TIP3    H256807   5.735   0.906   2.801  1.5230  0.1220 -0.6811
11798TIP3   OH256808   6.277   0.870  16.894  0.3566  0.3839  0.4252
11798TIP3    H156809   6.307   0.847  16.983 -1.2299 -2.5126  0.3233
11798TIP3    H256810   6.184   0.889  16.905  0.5691  2.0456 -0.3721
11799TIP3   OH256811   3.997   0.440  12.284 -0.3958 -0.6717  0.7543
11799TIP3    H156812   4.010   0.531  12.311  1.0138 -1.2872  2.3792
11799TIP3    H256813   3.925   0.443  12.221  0.5530  1.7246 -0.3152
11800TIP3   OH256814   5.868   1.505  12.179 -0.2651  0.5133  0.6772
11800TIP3    H156815   5.838   1.532  12.092  0.1457 -1.2058 -0.0329
11800TIP3    H256816   5.789   1.473  12.223 -0.6646  2.3107  1.3471
11801TIP3   OH256817   4.021   5.433   5.157 -0.1686  0.0197  0.5585
11801TIP3    H156818   4.024   5.363   5.222 -2.1508 -0.2522  0.4100
11801TIP3    H256819   4.000   5.389   5.075 -0.2709  0.6451  0.2387
11802TIP3   OH256820   5.415   5.286  12.560 -0.2003 -0.2480 -0.1579
11802TIP3    H156821   5.449   5.354  12.619  0.3739 -0.2838 -0.4374
11802TIP3    H256822   5.320   5.287  12.574 -0.2959  1.1673 -0.7615
11803TIP3   OH256823   5.143   0.158   5.932 -0.0394 -0.1419  0.1606
11803TIP3    H156824   5.070   0.208   5.895 -0.0521  1.3552  2.0639
11803TIP3    H256825   5.221   0.210   5.913  0.5004 -1.4292 -1.3251
11804TIP3   OH256826   6.483   3.074   2.298  0.1953 -1.3507 -0.2939
11804TIP3    H156827   6.482   3.107   2.208 -2.1725  2.3548  0.9108
11804TIP3    H256828   6.391   3.058   2.319  0.1802  1.5523  2.5487
11805TIP3   OH256829   0.626   2.091  15.786 -0.3714 -0.2328 -0.4002
11805TIP3    H156830   0.668   2.170  15.750  0.4111 -0.0886  0.7878
11805TIP3    H256831   0.542   2.086  15.741 -0.8901  1.8709  0.2437
11806TIP3   OH256832   1.414   5.771   3.345 -0.3073 -0.4840  0.1496
11806TIP3    H156833   1.421   5.679   3.321  0.7529 -0.3624 -0.0607
11806TIP3    H256834   1.371   5.770   3.430  0.7220 -1.2584  0.6844
11807TIP3   OH256835   1.945   5.786  11.532 -0.5323  0.9884 -0.7031
11807TIP3    H156836   2.027   5.813  11.573  0.6410 -2.5192 -0.4209
11807TIP3    H256837   1.886   5.767  11.605 -0.2549 -0.1255 -0.7487
11808TIP3   OH256838   1.342   4.273  11.438  0.5318  0.1438  0.6954
11808TIP3    H156839   1.325   4.193  11.389 -1.7913  1.1762 -0.2971
11808TIP3    H256840   1.384   4.332  11.375  2.5856 -0.3251  1.5207
11809TIP3   OH256841   6.801   3.932   0.508  0.3403  0.2151  0.2680
11809TIP3    H156842   6.736   3.869   0.477  0.9017  0.3278 -1.2217
11809TIP3    H256843   6.766   3.965   0.590 -1.5632  0.4083 -0.5851
11810TIP3   OH256844   2.811   0.448  15.507 -0.6714 -0.0572 -1.1117
11810TIP3    H156845   2.762   0.528  15.489 -1.4151 -0.6205 -1.6862
11810TIP3    H256846   2.835   0.415  15.420 -1.1040 -0.8887 -0.9291
11811TIP3   OH256847   5.028   3.081   5.284  0.2038 -0.0287 -0.3441
11811TIP3    H156848   5.106   3.128   5.255 -0.4396  1.2274 -0.0822
11811TIP3    H256849   5.025   3.004   5.227  1.2377  0.2660 -0.8261
11812TIP3   OH256850   5.863   2.074  16.289 -0.2377  0.2010  0.2455
11812TIP3    H156851   5.855   2.026  16.207 -0.7091 -0.0895  0.4577
11812TIP3    H256852   5.925   2.021  16.341 -1.5461 -0.7613  0.8812
11813TIP3   OH256853   3.086   4.165   3.624  0.5724  0.6585  0.5328
11813TIP3    H156854   3.157   4.109   3.592 -1.4526 -0.8745 -1.6484
11813TIP3    H256855   3.081   4.147   3.718  0.4443 -2.4058  0.0242
11814TIP3   OH256856   1.434   1.704   4.030  0.3651 -0.3173  0.1518
11814TIP3    H156857   1.460   1.725   3.941 -1.6320  0.0280 -0.3955
11814TIP3    H256858   1.411   1.788   4.069  0.8196 -0.5136  0.8786
11815TIP3   OH256859   5.773   2.695  14.369 -0.1961  0.0456 -0.4320
11815TIP3    H156860   5.701   2.634  14.380  0.3741 -0.3256  2.0215
11815TIP3    H256861   5.733   2.782  14.379 -0.4615 -0.1205 -0.0319
11816TIP3   OH256862   2.237   3.975   3.529  0.2247 -0.5588  0.6123
11816TIP3    H156863   2.165   3.913   3.539 -0.3140 -0.2927 -1.2482
11816TIP3    H256864   2.236   3.999   3.436  1.2902  1.1740  0.9909
11817TIP3   OH256865   4.547   4.351  14.645 -0.1269 -0.5137  0.5724
11817TIP3    H156866   4.512   4.340  14.734 -0.1841 -1.9239  0.4019
11817TIP3    H256867   4.591   4.268  14.627 -1.2284 -0.7548 -1.1973
11818TIP3   OH256868   6.309   6.382   0.821 -0.2611 -0.0608 -0.0853
11818TIP3    H156869   6.292   6.436   0.899 -2.1891 -0.8449  0.0962
11818TIP3    H256870   6.332   6.296   0.856 -1.2463 -0.4468 -0.3468
11819TIP3   OH256871   0.087   5.565  15.386 -0.1850  0.0169  0.4816
11819TIP3    H156872   0.049   5.618  15.456 -0.4099 -0.0735  0.4305
11819TIP3    H256873   0.019   5.563  15.318  1.3773  3.1827 -1.3910
11820TIP3   OH256874   2.156   1.527   1.427  0.0413  0.0852 -0.6937
11820TIP3    H156875   2.229   1.474   1.460 -0.6782  0.1583  1.1312
11820TIP3    H256876   2.122   1.477   1.353 -1.0640 -2.4645  1.3921
11821TIP3   OH256877   4.543   2.041   4.731  0.7613 -0.0154  0.0933
11821TIP3    H156878   4.501   1.958   4.752  2.2133 -0.4020  1.6869
11821TIP3    H256879   4.471   2.098   4.705 -0.4635 -1.2801  0.5781
11822TIP3   OH256880   2.664   0.731  12.138  0.0066  0.0250 -0.2360
11822TIP3    H156881   2.654   0.637  12.119  3.5529 -1.1056  2.3382
11822TIP3    H256882   2.582   0.756  12.180 -0.4803 -2.3643  0.4052
11823TIP3   OH256883   5.794   2.107  12.900  0.4001 -0.0407  0.5157
11823TIP3    H156884   5.854   2.044  12.861  0.8668  0.3700  0.5745
11823TIP3    H256885   5.832   2.192  12.882  0.5097  0.1682  1.6636
11824TIP3   OH256886   0.745   2.420  13.225 -0.0463 -0.0894 -0.0545
11824TIP3    H156887   0.799   2.478  13.171  0.8095 -1.2432 -0.4943
11824TIP3    H256888   0.754   2.454  13.314 -2.0676  2.2953 -0.6359
11825TIP3   OH256889   3.770   2.178   2.440  0.1587  0.3105  0.1809
11825TIP3    H156890   3.860   2.149   2.425  0.1650  0.0716  0.6740
11825TIP3    H256891   3.738   2.122   2.510 -0.9720 -0.8465 -1.1918
11826TIP3   OH256892   1.018   0.851  10.379 -0.1062  0.5694 -0.2869
11826TIP3    H156893   1.070   0.775  10.354 -0.2414  0.5493 -0.5014
11826TIP3    H256894   1.004   0.899  10.298  0.3248  1.0374 -0.0877
11827TIP3   OH256895   2.045   2.708  15.511  0.1630 -0.1204  0.0185
11827TIP3    H156896   2.120   2.746  15.557  0.3740 -1.5144  0.8707
11827TIP3    H256897   1.971   2.724  15.569  0.1965 -0.7035  0.2292
11828TIP3   OH256898   2.726   2.603   2.885 -0.3636  0.1483 -0.1676
11828TIP3    H156899   2.724   2.553   2.803 -0.5174 -0.4123  0.1745
11828TIP3    H256900   2.772   2.684   2.863  2.0543 -1.1422 -0.1732
11829TIP3   OH256901   5.884   6.667   5.497  0.7985 -0.6595  0.1054
11829TIP3    H156902   5.894   6.756   5.530 -0.2129 -1.1583  1.8869
11829TIP3    H256903   5.939   6.614   5.554  0.2146 -1.3630  0.0334
11830TIP3   OH256904   2.418   2.094   1.929 -0.4075 -0.1026  0.5177
11830TIP3    H156905   2.482   2.069   1.996 -0.8944  0.3295  1.1589
11830TIP3    H256906   2.413   2.189   1.935 -0.2628 -0.0377 -0.3213
11831TIP3   OH256907   4.623   0.861   6.449 -0.4773 -0.6716  0.2577
11831TIP3    H156908   4.611   0.951   6.420 -0.3950 -0.8504 -0.3482
11831TIP3    H256909   4.710   0.860   6.490 -1.4748  0.0835  2.5331
11832TIP3   OH256910   1.089   0.268  12.467  0.3751  0.4797  0.7711
11832TIP3    H156911   1.041   0.325  12.407  0.3245 -1.2817 -0.9788
11832TIP3    H256912   1.022   0.217  12.512  0.4497  1.2787  1.8251
11833TIP3   OH256913   0.313   1.020  16.772 -0.3205 -0.5471 -0.4593
11833TIP3    H156914   0.379   1.000  16.838 -1.4100 -1.3222  0.4379
11833TIP3    H256915   0.289   1.112  16.790  0.3577 -0.3270 -0.6614
11834TIP3   OH256916   4.431   3.130  17.119 -0.0833 -0.0877  0.2686
11834TIP3    H156917   4.350   3.178  17.134 -0.3559 -0.6364  0.5632
11834TIP3    H256918   4.446   3.081  17.200 -0.5281 -1.5519 -0.5073
11835TIP3   OH256919   1.109   5.019   3.835  0.2579  0.7350  0.0382
11835TIP3    H156920   1.019   4.987   3.840  1.0143 -1.3963  1.1079
11835TIP3    H256921   1.137   4.999   3.746 -0.0282  0.5362 -0.0077
11836TIP3   OH256922   3.876   0.561   1.828 -0.4679 -0.1260  0.1685
11836TIP3    H156923   3.964   0.540   1.861 -0.9765 -1.2740  0.8507
11836TIP3    H256924   3.892   0.614   1.750  0.8233  0.1061  0.5623
11837TIP3   OH256925   1.659   0.977   2.845  0.2687  0.2925 -0.4797
11837TIP3    H156926   1.741   0.938   2.873  0.5349  1.6792  0.7621
11837TIP3    H256927   1.684   1.059   2.802 -0.4604  1.0467  0.4774
11838TIP3   OH256928   0.858   4.213  13.977 -0.1855 -0.4813  0.2484
11838TIP3    H156929   0.767   4.198  13.951 -0.4803 -2.3936  2.1105
11838TIP3    H256930   0.904   4.133  13.952  0.7964  0.0751  0.1985
11839TIP3   OH256931   3.722   4.290   1.616  0.2089  0.4147  0.7564
11839TIP3    H156932   3.815   4.312   1.610  0.2900  0.1289  0.9277
11839TIP3    H256933   3.677   4.370   1.591  0.4964  0.7672  1.3331
11840TIP3   OH256934   0.767   4.776   1.005  0.4366  0.3458 -0.1531
11840TIP3    H156935   0.723   4.694   1.029 -0.1223  0.8005  0.4143
11840TIP3    H256936   0.859   4.751   0.994  0.6521 -0.0354  1.9512
11841TIP3   OH256937   0.370   2.797   5.763  0.2267  0.0887  0.8499
11841TIP3    H156938   0.296   2.778   5.820  0.3312 -0.5465  0.7750
11841TIP3    H256939   0.407   2.879   5.797  0.1819 -0.1943  1.5808
11842TIP3   OH256940   5.351   4.415  11.784  0.6308  0.4940 -0.1102
11842TIP3    H156941   5.411   4.472  11.832 -0.8358  2.0283  0.0102
11842TIP3    H256942   5.291   4.380  11.850  0.2285  0.5113 -0.4538
11843TIP3   OH256943   6.223   2.658  13.077  0.6119  0.5576 -0.0693
11843TIP3    H156944   6.178   2.709  13.009 -1.0197  0.6243  1.0163
11843TIP3    H256945   6.235   2.571  13.038 -0.2179  0.6178 -0.4835
11844TIP3   OH256946   6.530   4.167  14.192 -0.6152 -0.5654  0.0258
11844TIP3    H156947   6.529   4.259  14.167 -0.7131 -0.3067  0.9259
11844TIP3    H256948   6.620   4.139  14.178 -0.5940 -0.3400 -0.2935
11845TIP3   OH256949   3.977   1.328  14.203  0.2171  0.2277 -0.2965
11845TIP3    H156950   3.883   1.337  14.186  0.1559  0.9737  0.3889
11845TIP3    H256951   4.017   1.325  14.117 -0.6134 -2.3765 -0.6838
11846TIP3   OH256952   2.287   1.849  14.875  0.4538 -0.0604 -0.0589
11846TIP3    H156953   2.356   1.893  14.824 -0.8146  1.2182 -0.7269
11846TIP3    H256954   2.332   1.819  14.954  2.1918 -0.9452 -1.3024
11847TIP3   OH256955   2.560   2.347   3.405 -0.6478  0.4467  0.2319
11847TIP3    H156956   2.486   2.295   3.437  1.4936 -1.8905  1.7724
11847TIP3    H256957   2.627   2.339   3.473  2.0051  0.2309 -2.1914
11848TIP3   OH256958   2.993   2.278  11.566 -0.5512  0.0878 -0.3364
11848TIP3    H156959   3.043   2.356  11.591 -3.7108  2.1037  0.2781
11848TIP3    H256960   3.008   2.216  11.637  1.4142  0.3876 -0.4323
11849TIP3   OH256961   6.281   4.904  13.082 -0.3622  0.3695  0.9156
11849TIP3    H156962   6.359   4.959  13.070  0.3042 -0.3273  1.8708
11849TIP3    H256963   6.316   4.815  13.091 -1.2315  0.1055  1.7903
11850TIP3   OH256964   3.438   4.135   6.511 -0.5037 -0.0191  0.1235
11850TIP3    H156965   3.512   4.074   6.516  1.1438  1.9560  0.8818
11850TIP3    H256966   3.465   4.201   6.447 -1.1880  1.2728  1.1280
11851TIP3   OH256967   2.948   4.142   0.337  0.3042  0.2686  0.3017
11851TIP3    H156968   2.876   4.130   0.276 -0.5486  0.7876  1.1809
11851TIP3    H256969   3.013   4.191   0.287 -1.0012  2.0236  0.2274
11852TIP3   OH256970   0.854   2.927  16.404 -0.7176 -0.3375 -0.1507
11852TIP3    H156971   0.772   2.971  16.384 -0.2936  0.5299 -0.0113
11852TIP3    H256972   0.843   2.838  16.368 -2.1404 -0.6087  0.8982
11853TIP3   OH256973   4.050   2.703  10.263  0.1732  0.5626  0.1408
11853TIP3    H156974   4.114   2.702  10.191 -1.1813  0.3057 -1.1004
11853TIP3    H256975   4.010   2.616  10.260 -1.0901  1.1265  0.0996
11854TIP3   OH256976   1.938   1.070  12.744 -0.0768  0.1737  0.5195
11854TIP3    H156977   1.937   1.118  12.660  0.3615 -0.8214 -0.0652
11854TIP3    H256978   1.946   0.978  12.719  0.5806 -0.0971  1.6864
11855TIP3   OH256979   3.119   2.334   0.668  0.5651  0.0759  0.4649
11855TIP3    H156980   3.073   2.261   0.626 -0.8308  1.0496  0.2323
11855TIP3    H256981   3.127   2.307   0.760 -2.1056  0.5790  0.9225
11856TIP3   OH256982   4.111   5.018   2.478  0.3211  0.5890 -0.6435
11856TIP3    H156983   4.164   5.091   2.446 -0.6879  0.1572 -3.6091
11856TIP3    H256984   4.176   4.953   2.506  1.2416  1.8713  0.3266
11857TIP3   OH256985   4.583   4.942   4.663  0.2019 -0.3761  0.2060
11857TIP3    H156986   4.499   4.897   4.654 -0.0293  0.1428 -0.2789
11857TIP3    H256987   4.632   4.889   4.727 -1.0013  0.0633  1.5461
11858TIP3   OH256988   2.257   3.092   5.540 -0.3458  0.5443  0.1275
11858TIP3    H156989   2.274   3.141   5.621 -0.8459  1.7026 -0.4473
11858TIP3    H256990   2.324   3.123   5.479 -0.6476  0.4918 -0.2320
11859TIP3   OH256991   1.567   4.639   2.389 -0.3796 -0.4640 -0.1785
11859TIP3    H156992   1.567   4.669   2.298 -0.8780 -2.2639 -0.8019
11859TIP3    H256993   1.648   4.590   2.398  1.4376  2.5222  1.4153
11860TIP3   OH256994   0.238   3.270   6.195  0.3870 -0.6457  0.2438
11860TIP3    H156995   0.246   3.360   6.227 -0.4807 -1.0051  1.5648
11860TIP3    H256996   0.281   3.217   6.263  0.2214 -1.2956 -0.1508
11861TIP3   OH256997   3.811   1.861   0.733  0.4086 -0.1554  0.3580
11861TIP3    H156998   3.842   1.873   0.823 -0.7969  2.2830  0.5268
11861TIP3    H256999   3.740   1.798   0.739 -1.0692  1.5326  1.5183
11862TIP3   OH257000   5.105   3.015  16.257  0.2298  0.2690 -0.2241
11862TIP3    H157001   5.045   3.049  16.323 -1.6187 -0.6520 -1.3303
11862TIP3    H257002   5.190   3.012  16.301 -0.9926 -0.8254  2.3195
11863TIP3   OH257003   5.031   2.257   1.962 -0.2692  0.2644 -0.1513
11863TIP3    H157004   4.955   2.236   1.908 -1.3533  1.1953  0.9323
11863TIP3    H257005   5.041   2.352   1.952  0.4314  0.2189  0.1184
11864TIP3   OH257006   2.491   4.218   0.962 -0.3912 -0.1542 -0.9427
11864TIP3    H157007   2.499   4.314   0.962 -0.2742 -0.1638 -0.7601
11864TIP3    H257008   2.404   4.201   0.998 -0.9262 -0.0766 -2.1595
11865TIP3   OH257009   0.052   5.730   1.232 -0.1002  0.2433 -0.2218
11865TIP3    H157010   0.062   5.768   1.320  0.0542  0.2460 -0.2400
11865TIP3    H257011   0.108   5.784   1.177  1.6228 -1.1252  0.0668
11866TIP3   OH257012   1.921   0.155   4.119 -0.5411 -0.0175  0.1122
11866TIP3    H157013   1.887   0.184   4.034  1.1893  1.3260 -0.1776
11866TIP3    H257014   2.002   0.109   4.098  0.7173  1.6434  1.0606
11867TIP3   OH257015   0.138   3.177   4.267  0.3029  0.7059  0.1702
11867TIP3    H157016   0.219   3.228   4.273  1.2435 -0.7673  0.5053
11867TIP3    H257017   0.106   3.194   4.179  2.2642 -0.4864 -0.8452
11868TIP3   OH257018   3.499   0.076  12.664  0.0791 -0.1260 -0.2349
11868TIP3    H157019   3.405   0.066  12.648 -0.2130  0.7305  0.8751
11868TIP3    H257020   3.520   0.163  12.632  0.3636 -0.0691  0.0998
11869TIP3   OH257021   6.448   2.630  11.663 -0.6819 -0.8946  0.0261
11869TIP3    H157022   6.467   2.546  11.621  2.5170 -0.7660  0.8947
11869TIP3    H257023   6.458   2.695  11.593  0.6594 -0.9912  0.1009
11870TIP3   OH257024   2.263   6.088  16.660 -0.0867 -0.0102  0.0892
11870TIP3    H157025   2.173   6.087  16.691  0.1274  0.6361  0.7615
11870TIP3    H257026   2.317   6.085  16.739  0.4688  1.1681 -0.2143
11871TIP3   OH257027   3.176   2.026   2.019  0.0491  0.4237 -0.0098
11871TIP3    H157028   3.214   2.107   2.052  1.3134 -0.0933 -0.1464
11871TIP3    H257029   3.154   1.976   2.098  1.7312 -0.1965  0.1101
11872TIP3   OH257030   3.078   3.157  14.906  0.0250 -0.1835 -0.5162
11872TIP3    H157031   3.136   3.095  14.950  0.7507  0.9848  0.2538
11872TIP3    H257032   3.001   3.163  14.962 -0.8046 -1.6162 -1.4577
11873TIP3   OH257033   0.621   4.536   5.062 -0.0948 -0.1986 -0.0157
11873TIP3    H157034   0.570   4.600   5.112 -0.3667 -0.3022 -0.1547
11873TIP3    H257035   0.666   4.484   5.129 -0.7901 -0.6135  0.1519
11874TIP3   OH257036   1.330   5.607  15.527 -0.3178 -0.3365 -0.2661
11874TIP3    H157037   1.287   5.524  15.545 -0.6758 -0.2106 -0.5245
11874TIP3    H257038   1.402   5.585  15.468  0.2836 -0.6158  0.5500
11875TIP3   OH257039   4.109   2.817   2.723 -1.0397  0.1274  0.1538
11875TIP3    H157040   4.120   2.868   2.804  0.8921  0.9610 -0.5620
11875TIP3    H257041   4.107   2.726   2.752 -1.3389  0.4499  1.2114
11876TIP3   OH257042   6.700   5.130  17.230  0.2197  0.1385  0.0261
11876TIP3    H157043   6.753   5.078  17.290  0.5821  0.8152  0.3023
11876TIP3    H257044   6.719   5.093  17.143  1.5793  0.7063  0.0536
11877TIP3   OH257045   0.582   2.658   5.296 -0.4352  0.2385  0.0542
11877TIP3    H157046   0.509   2.685   5.241 -0.4337 -2.0821 -1.2137
11877TIP3    H257047   0.558   2.688   5.384 -2.9046 -0.4243 -0.3263
11878TIP3   OH257048   6.428   1.384  16.851 -0.3458  0.2708 -0.6162
11878TIP3    H157049   6.354   1.416  16.903 -0.9811 -1.7211 -0.1923
11878TIP3    H257050   6.505   1.401  16.906 -0.8834 -0.7260  0.5068
11879TIP3   OH257051   0.275   2.416   0.584 -0.1439 -0.0403  0.4197
11879TIP3    H157052   0.286   2.506   0.614  0.4988 -0.8429  2.8092
11879TIP3    H257053   0.281   2.363   0.664  0.4167 -2.2679 -1.0047
11880TIP3   OH257054   0.111   3.309   3.036 -0.5888  0.1185  0.4503
11880TIP3    H157055   0.171   3.336   3.106 -0.3695 -1.4175  0.8950
11880TIP3    H257056   0.168   3.293   2.960 -0.6928  0.6789  0.2502
11881TIP3   OH257057   5.888   3.275   1.871 -0.0300 -0.4434 -0.0225
11881TIP3    H157058   5.884   3.188   1.830  1.6142  0.0896 -1.4650
11881TIP3    H257059   5.902   3.335   1.797 -2.1371  1.2142  0.8113
11882TIP3   OH257060   4.082   0.558  13.879  0.2348 -0.1609 -0.4199
11882TIP3    H157061   4.158   0.601  13.841 -0.0840  1.2429  0.4756
11882TIP3    H257062   4.116   0.512  13.956  0.5305 -1.3821 -1.2412
11883TIP3   OH257063   4.492   6.055  17.226 -0.3418  0.2288  0.3231
11883TIP3    H157064   4.413   6.091  17.185 -1.4119 -3.0745 -0.8012
11883TIP3    H257065   4.484   6.078  17.319 -1.2287  2.1653 -0.1794
11884TIP3   OH257066   1.907   1.675  15.538  0.1186  0.4567 -0.0450
11884TIP3    H157067   1.998   1.692  15.562  0.3159  0.5110 -0.7946
11884TIP3    H257068   1.910   1.594  15.487 -0.3980 -0.1156  0.8090
11885TIP3   OH257069   4.677   6.165  14.858 -0.0744 -0.6692  0.6047
11885TIP3    H157070   4.682   6.101  14.788  3.1751 -0.4228  0.4491
11885TIP3    H257071   4.669   6.114  14.938  0.0046 -1.1408  0.3116
11886TIP3   OH257072   4.352   2.817   4.999  0.2869 -0.4821  0.0330
11886TIP3    H157073   4.424   2.761   5.027  1.2721  0.6132 -0.2372
11886TIP3    H257074   4.349   2.808   4.904 -1.5735 -2.4181  0.1883
11887TIP3   OH257075   4.174   0.766   5.888 -0.0227 -0.2506 -0.2961
11887TIP3    H157076   4.215   0.852   5.888  0.1050 -0.2993 -1.0772
11887TIP3    H257077   4.177   0.737   5.979  0.2897  0.4007 -0.0981
11888TIP3   OH257078   3.883   1.401  13.279  0.5757  0.0326  0.1437
11888TIP3    H157079   3.962   1.420  13.329  1.2053  0.3553 -0.9267
11888TIP3    H257080   3.821   1.470  13.305  0.9574  0.3103  0.3331
11889TIP3   OH257081   5.507   3.538  16.944  0.5464 -0.3924  0.5652
11889TIP3    H157082   5.444   3.480  16.902  1.0576 -0.9284  0.5266
11889TIP3    H257083   5.456   3.585  17.010  0.2239 -1.2820  0.9704
11890TIP3   OH257084   3.516   0.318   1.635 -0.0862 -0.1119 -0.7626
11890TIP3    H157085   3.490   0.258   1.565  0.7248 -1.1778 -0.1965
11890TIP3    H257086   3.612   0.320   1.629  0.0092 -0.4083  0.4432
11891TIP3   OH257087   2.343   3.379   3.735 -0.4646 -0.4017  0.2537
11891TIP3    H157088   2.343   3.295   3.690 -2.7078 -0.5149  0.3406
11891TIP3    H257089   2.358   3.357   3.827  0.7353 -0.4984  0.0508
11892TIP3   OH257090   3.669   5.929   2.952  0.0061  0.4575  0.2621
11892TIP3    H157091   3.665   5.834   2.946  2.0674  0.4350 -3.7679
11892TIP3    H257092   3.578   5.957   2.943 -0.4136 -1.1013 -0.7668
11893TIP3   OH257093   5.000   2.009  16.152 -0.4092  0.2862  0.2256
11893TIP3    H157094   5.001   2.055  16.068  3.0853  0.7468  0.3800
11893TIP3    H257095   5.020   1.918  16.130 -0.5020  0.2055  0.4725
11894TIP3   OH257096   5.298   4.001   0.210  0.0763 -0.1682 -0.6694
11894TIP3    H157097   5.278   4.005   0.117  1.2079  0.1346 -0.9128
11894TIP3    H257098   5.261   3.917   0.239 -1.5372  0.3721 -1.0580
11895TIP3   OH257099   4.425   4.838  16.458  0.3591 -0.1656 -0.0448
11895TIP3    H157100   4.390   4.750  16.472 -0.2236 -0.0098 -0.4671
11895TIP3    H257101   4.473   4.859  16.538 -0.9345 -0.1975  0.7656
11896TIP3   OH257102   3.269   3.141   3.449  0.2328  0.9529 -0.0324
11896TIP3    H157103   3.282   3.141   3.354  2.4729  0.9242  0.2049
11896TIP3    H257104   3.353   3.112   3.484  0.2501  3.1652  2.0307
11897TIP3   OH257105   4.664   4.366   3.289 -0.2727 -0.4357 -0.2521
11897TIP3    H157106   4.596   4.307   3.321 -0.5920  0.2425  0.3732
11897TIP3    H257107   4.703   4.402   3.369  2.1725 -2.2600 -0.5272
11898TIP3   OH257108   3.998   1.918  15.028  0.1217 -0.3155  0.3745
11898TIP3    H157109   4.013   1.834  15.070 -0.7828 -0.8242 -0.2948
11898TIP3    H257110   3.908   1.941  15.052 -0.1161 -0.2133 -0.5735
11899TIP3   OH257111   6.503   6.594  12.657  0.4277  0.5729  0.4363
11899TIP3    H157112   6.421   6.550  12.682  0.2076 -1.6305 -3.3636
11899TIP3    H257113   6.572   6.538  12.693  0.1650 -0.3478 -0.4441
11900TIP3   OH257114   4.983   4.041   3.955 -0.6594 -0.1684 -0.2091
11900TIP3    H157115   4.892   4.066   3.945 -1.0155 -1.4347 -0.2975
11900TIP3    H257116   4.980   3.953   3.992  0.5303 -0.0331  0.2487
11901TIP3   OH257117   2.881   3.090  10.807  0.2576 -0.4930 -0.5419
11901TIP3    H157118   2.955   3.141  10.775  1.2461 -1.5218 -0.0023
11901TIP3    H257119   2.889   3.005  10.763 -0.0489 -0.9331  0.2229
11902TIP3   OH257120   3.718   4.731   4.776 -0.2579  0.3294 -0.3115
11902TIP3    H157121   3.739   4.718   4.869  2.4406 -3.9414 -1.2396
11902TIP3    H257122   3.627   4.704   4.769 -0.2319 -0.2331  1.0235
11903TIP3   OH257123   5.198   5.570  14.003 -0.0837  0.4720  0.1336
11903TIP3    H157124   5.145   5.603  14.074 -0.7885 -0.5507  0.1075
11903TIP3    H257125   5.229   5.648  13.957 -3.7362  1.1561 -1.4714
11904TIP3   OH257126   0.181   4.433  16.741  0.4333  0.4203  0.2874
11904TIP3    H157127   0.164   4.397  16.828  1.1860  0.8566  0.6259
11904TIP3    H257128   0.229   4.364  16.695  1.0463  0.6289  0.6126
11905TIP3   OH257129   3.323   0.740   2.259 -0.0754  0.1335 -0.0365
11905TIP3    H157130   3.277   0.727   2.176  2.1348 -1.2829 -1.1515
11905TIP3    H257131   3.400   0.792   2.235  1.1457 -1.1895  0.9196
11906TIP3   OH257132   3.324   3.186   5.249 -0.2064 -0.4271 -0.2564
11906TIP3    H157133   3.349   3.094   5.236 -1.9729 -0.9838  0.0612
11906TIP3    H257134   3.263   3.203   5.177  1.3627  1.0546 -1.3225
11907TIP3   OH257135   4.449   6.451  13.257 -0.1570 -0.1648 -1.0827
11907TIP3    H157136   4.366   6.408  13.241  0.5030 -1.1040 -2.1081
11907TIP3    H257137   4.515   6.393  13.218  1.3075 -0.9513  2.1901
11908TIP3   OH257138   0.346   5.230   6.109  0.2671 -0.1384 -0.2204
11908TIP3    H157139   0.351   5.157   6.047 -0.7441 -0.8625  0.5346
11908TIP3    H257140   0.330   5.189   6.194 -0.6776  0.9826  0.1627
11909TIP3   OH257141   4.582   3.629  13.388  0.0419  0.1462  0.0835
11909TIP3    H157142   4.594   3.722  13.370 -0.8199 -0.0774 -1.8868
11909TIP3    H257143   4.660   3.603  13.438  1.3954  1.4359 -1.2787
11910TIP3   OH257144   1.601   6.438   0.475 -0.5055 -0.5136 -0.0722
11910TIP3    H157145   1.575   6.352   0.442 -0.4993 -0.3542 -0.4998
11910TIP3    H257146   1.557   6.500   0.418 -1.4426 -0.2093  0.9445
11911TIP3   OH257147   2.024   6.474  10.837  0.6526  0.1943 -0.2013
11911TIP3    H157148   2.097   6.420  10.866  1.3156  1.1388 -0.0755
11911TIP3    H257149   2.036   6.557  10.882 -0.4968  0.3704 -0.1884
11912TIP3   OH257150   4.066   4.890   5.214  0.7436  0.3331  0.2266
11912TIP3    H157151   4.050   4.921   5.125  0.7552  1.7010  0.6825
11912TIP3    H257152   4.086   4.797   5.204  3.6963  1.0464 -1.5259
11913TIP3   OH257153   5.281   2.056  13.546 -0.1560  0.7065  0.4589
11913TIP3    H157154   5.284   1.967  13.582  0.7358  0.4018 -0.3194
11913TIP3    H257155   5.364   2.095  13.575 -0.3104  1.1024  0.3615
11914TIP3   OH257156   3.284   0.480  14.446  0.6736  0.0384 -0.1020
11914TIP3    H157157   3.308   0.555  14.391 -0.0267  0.3995  0.0766
11914TIP3    H257158   3.254   0.414  14.384 -0.2238  0.4865 -0.1529
11915TIP3   OH257159   4.547   5.679   5.553  0.2402 -0.0732 -0.0211
11915TIP3    H157160   4.575   5.589   5.539 -3.0864 -1.2516  0.0585
11915TIP3    H257161   4.547   5.718   5.466 -0.5175 -0.9036 -0.4063
11916TIP3   OH257162   2.876   5.605   4.276 -0.3147 -0.5538 -0.2545
11916TIP3    H157163   2.877   5.510   4.268  1.0775 -0.5970  0.2033
11916TIP3    H257164   2.834   5.636   4.196 -1.1823 -1.5579 -0.2098
11917TIP3   OH257165   4.770   3.150  11.931  0.2833 -0.1454  0.6335
11917TIP3    H157166   4.685   3.169  11.891 -0.2341 -2.7531  0.3033
11917TIP3    H257167   4.754   3.157  12.025 -0.0370  0.2915  0.5499
11918TIP3   OH257168   5.010   5.170   5.704 -0.4019  0.0045  0.0237
11918TIP3    H157169   5.054   5.200   5.784  1.2793 -1.3358 -0.3342
11918TIP3    H257170   4.975   5.084   5.727 -1.0610  0.1800 -0.3077
11919TIP3   OH257171   4.207   0.506   5.776 -0.6261  0.0284  0.1787
11919TIP3    H157172   4.210   0.453   5.856 -0.5554 -0.6105 -0.2413
11919TIP3    H257173   4.217   0.596   5.807  0.2874 -0.2728  0.8138
11920TIP3   OH257174   5.873   6.511   4.793 -0.1842  0.8896  0.3730
11920TIP3    H157175   5.811   6.556   4.736 -0.0533  0.0909 -0.4292
11920TIP3    H257176   5.858   6.418   4.777  0.4922  0.6617  0.9604
11921TIP3   OH257177   6.569   2.171   3.720 -0.3028  1.0564 -0.2195
11921TIP3    H157178   6.477   2.191   3.702 -0.3417  1.0971  0.0233
11921TIP3    H257179   6.593   2.228   3.792 -0.6571 -0.3326  1.0539
11922TIP3   OH257180   0.068   3.901   0.918  0.2271 -0.5330  0.2821
11922TIP3    H157181   0.046   3.980   0.967 -0.5644 -1.6511  1.8066
11922TIP3    H257182   0.164   3.898   0.920  0.2288 -0.3765  1.5174
11923TIP3   OH257183   2.444   3.484   5.089  0.3163  0.3610  0.0657
11923TIP3    H157184   2.446   3.488   5.185 -1.3873 -0.0671  0.1543
11923TIP3    H257185   2.427   3.574   5.062  2.1295  0.7429  0.0660
11924TIP3   OH257186   3.986   4.900  13.345 -0.5493 -0.2279 -0.1886
11924TIP3    H157187   3.986   4.964  13.417 -1.6765 -1.6266  1.1354
11924TIP3    H257188   4.058   4.841  13.366 -1.5552 -1.2721  0.4353
11925TIP3   OH257189   2.562   3.402   5.622  0.2523 -0.2896  0.0590
11925TIP3    H157190   2.636   3.454   5.654  1.5779 -1.9603 -0.1736
11925TIP3    H257191   2.601   3.338   5.562 -1.3188 -1.5199  0.2749
11926TIP3   OH257192   5.698   5.239  12.242  0.1029  0.2201  0.4657
11926TIP3    H157193   5.629   5.303  12.261  0.0588 -0.0788  1.3428
11926TIP3    H257194   5.765   5.289  12.196 -0.6294  0.5482 -0.2695
11927TIP3   OH257195   3.464   1.396   4.013 -0.2866  0.1963 -0.2683
11927TIP3    H157196   3.405   1.357   4.077  0.2930 -0.5001 -0.1361
11927TIP3    H257197   3.408   1.448   3.956 -0.9704 -0.1656  0.0693
11928TIP3   OH257198   4.341   0.397  14.833  0.2605  0.1729  0.3987
11928TIP3    H157199   4.247   0.408  14.820  0.4797  1.4295 -0.3880
11928TIP3    H257200   4.380   0.470  14.784  1.6066  0.0962  1.3088
11929TIP3   OH257201   5.258   6.075   2.658  0.3087  0.2010 -0.4392
11929TIP3    H157202   5.314   6.060   2.734 -0.6848  0.3052  0.3483
11929TIP3    H257203   5.315   6.065   2.582  1.0286 -1.2901  0.2726
11930TIP3   OH257204   1.369   2.281  14.192 -0.5445 -0.2753 -0.1799
11930TIP3    H157205   1.301   2.288  14.126  0.5962  2.6429 -1.2210
11930TIP3    H257206   1.329   2.317  14.271 -0.5795  0.4176 -0.5026
11931TIP3   OH257207   6.291   2.783   4.832  0.3317 -0.4160 -0.2284
11931TIP3    H157208   6.267   2.864   4.786  2.2353  0.4670  0.2064
11931TIP3    H257209   6.351   2.739   4.772  0.9632 -0.4350  0.4060
11932TIP3   OH257210   3.345   2.727  15.962  0.1715  0.0656 -0.2038
11932TIP3    H157211   3.366   2.820  15.954 -0.9600  0.1549 -2.9240
11932TIP3    H257212   3.374   2.704  16.051  3.0292  2.3200 -0.4009
11933TIP3   OH257213   4.604   5.761  11.927  0.1295 -0.6174  0.1760
11933TIP3    H157214   4.574   5.708  12.001 -0.7260 -0.5174 -0.0797
11933TIP3    H257215   4.556   5.844  11.937  0.0388 -0.5865 -0.4605
11934TIP3   OH257216   5.332   6.653  13.167  0.4705  0.1885  0.4350
11934TIP3    H157217   5.344   6.558  13.159  0.8610  0.3855 -3.4246
11934TIP3    H257218   5.421   6.688  13.176  0.8328  0.2937 -2.5306
11935TIP3   OH257219   2.262   0.841  11.791  0.2305  0.3230  0.2833
11935TIP3    H157220   2.342   0.884  11.761  0.7600 -0.2931  0.7797
11935TIP3    H257221   2.261   0.858  11.886 -1.2963  2.0623  0.0136
11936TIP3   OH257222   0.317   1.036   0.743 -0.6728 -0.5147 -0.3325
11936TIP3    H157223   0.390   0.991   0.699  0.1868 -0.5546  1.0641
11936TIP3    H257224   0.358   1.081   0.817 -2.0659 -0.4975  0.4641
11937TIP3   OH257225   1.551   2.239  11.297  0.0428 -0.4333  0.3698
11937TIP3    H157226   1.531   2.254  11.204 -0.4273 -1.2340  0.3365
11937TIP3    H257227   1.645   2.219  11.298  0.1584  0.0699  0.1340
11938TIP3   OH257228   2.241   4.448  14.834  0.7573  0.1541  0.1634
11938TIP3    H157229   2.163   4.480  14.788  0.6052  1.3784  1.1932
11938TIP3    H257230   2.274   4.378  14.779 -0.2195  0.6088 -1.0693
11939TIP3   OH257231   0.113   6.090  13.291  0.4301 -0.1087 -0.1306
11939TIP3    H157232   0.187   6.126  13.243 -0.1441  2.7108  0.9263
11939TIP3    H257233   0.036   6.111  13.237  0.2285 -1.7275 -0.5195
11940TIP3   OH257234   3.279   5.449  14.244 -0.1073  0.2105  0.2215
11940TIP3    H157235   3.343   5.381  14.265 -1.3336 -0.7517  0.9821
11940TIP3    H257236   3.251   5.483  14.329 -0.7269  0.4886 -0.0855
11941TIP3   OH257237   6.520   2.261   5.256 -0.3014  0.0482  0.0299
11941TIP3    H157238   6.615   2.254   5.263  0.0248 -0.6248 -3.3053
11941TIP3    H257239   6.487   2.176   5.286  0.1095  0.2306  1.0478
11942TIP3   OH257240   4.179   4.769   5.951  0.0538 -0.3105 -0.4602
11942TIP3    H157241   4.260   4.719   5.963  0.4603  0.2507 -0.8059
11942TIP3    H257242   4.110   4.704   5.954  0.3493 -0.6051  1.6472
11943TIP3   OH257243   3.134   0.884  11.081  0.2312  0.1434  0.1122
11943TIP3    H157244   3.222   0.868  11.116  0.3524 -0.0622 -0.2779
11943TIP3    H257245   3.075   0.863  11.153  0.4339 -1.1013 -0.0683
11944TIP3   OH257246   0.286   2.711  11.587 -0.3105 -0.3881 -0.5305
11944TIP3    H157247   0.206   2.761  11.603 -0.8002 -1.4374  0.4120
11944TIP3    H257248   0.357   2.771  11.612 -0.8979 -0.2509  0.8803
11945TIP3   OH257249   5.802   6.249   4.732 -0.5787 -0.1312  0.4117
11945TIP3    H157250   5.708   6.267   4.744 -0.6683 -0.3766  0.1109
11945TIP3    H257251   5.806   6.204   4.648 -0.1649  0.0697  0.3220
11946TIP3   OH257252   2.429   1.710  13.446 -0.0276 -0.7063 -0.1288
11946TIP3    H157253   2.342   1.685  13.414  0.3180  0.1408 -1.8903
11946TIP3    H257254   2.415   1.792  13.493 -0.0926 -0.0606 -1.2306
11947TIP3   OH257255   0.243   6.321   0.361  0.3954 -0.1567 -0.3152
11947TIP3    H157256   0.289   6.333   0.278  0.6409 -0.4379 -0.2214
11947TIP3    H257257   0.308   6.284   0.420  0.8416  1.9853  0.6358
11948TIP3   OH257258   2.216   2.353  15.973 -0.1933  0.0829 -0.5822
11948TIP3    H157259   2.301   2.312  15.964 -0.4739 -0.3509 -1.4371
11948TIP3    H257260   2.161   2.309  15.908 -1.3735 -0.4350  0.7240
11949TIP3   OH257261   1.993   4.843  15.717 -0.2665 -0.3687 -0.0995
11949TIP3    H157262   2.065   4.848  15.781  0.1094  1.1034 -0.5997
11949TIP3    H257263   2.037   4.827  15.634 -0.4344  1.2525 -0.5227
11950TIP3   OH257264   0.152   6.340   0.012  0.6008  0.0560  0.2445
11950TIP3    H157265   0.239   6.318   0.046  0.4417  0.0843  0.6710
11950TIP3    H257266   0.108   6.256   0.003  1.0248 -0.0604 -0.9605
11951TIP3   OH257267   1.622   2.680  12.364 -0.1202 -0.0715 -0.9557
11951TIP3    H157268   1.628   2.607  12.303  1.3299 -0.3109 -0.5618
11951TIP3    H257269   1.642   2.642  12.450 -0.3442  0.5931 -0.6011
11952TIP3   OH257270   1.300   3.155  17.177  0.0832  0.0387  0.4876
11952TIP3    H157271   1.350   3.155  17.259  0.3514 -1.2238  0.3361
11952TIP3    H257272   1.221   3.206  17.197  0.5015  0.3887  1.2963
11953TIP3   OH257273   6.813   3.008  15.160 -0.3312  0.4451 -0.5371
11953TIP3    H157274   6.731   3.031  15.203 -1.0393 -3.8198  0.8305
11953TIP3    H257275   6.786   2.981  15.072 -0.1979  0.2994 -0.5326
11954TIP3   OH257276   6.670   6.117   4.979  0.3641  0.4017  0.6785
11954TIP3    H157277   6.629   6.039   5.018  0.3336  0.0308 -0.0765
11954TIP3    H257278   6.668   6.182   5.049 -1.0070  0.2114  0.8555
11955TIP3   OH257279   0.101   0.762  12.868 -0.5254  0.3437 -0.0831
11955TIP3    H157280   0.068   0.707  12.939 -1.2840  0.3058 -0.4633
11955TIP3    H257281   0.026   0.775  12.810  0.0287  0.5685 -0.7631
11956TIP3   OH257282   1.937   6.485   3.439 -0.4387 -0.0928 -0.0006
11956TIP3    H157283   1.854   6.460   3.400 -0.9377 -0.0570  1.0023
11956TIP3    H257284   1.928   6.463   3.532  0.3274  0.7468  0.2930
11957TIP3   OH257285   5.494   2.765   6.227  0.0023  0.0954 -0.0834
11957TIP3    H157286   5.466   2.854   6.245 -1.4378 -0.1137 -1.0364
11957TIP3    H257287   5.587   2.763   6.249 -0.1904  1.5223  0.9758
11958TIP3   OH257288   3.433   0.369  17.209  0.2753 -0.2037  0.3995
11958TIP3    H157289   3.484   0.290  17.190  0.3121  0.0992 -0.8573
11958TIP3    H257290   3.499   0.434  17.237  0.5116 -0.0056 -0.5921
11959TIP3   OH257291   5.169   2.234   1.457  0.0271 -0.1422  0.4564
11959TIP3    H157292   5.108   2.180   1.508 -0.6172 -0.1206 -0.2783
11959TIP3    H257293   5.222   2.170   1.410  1.3702 -0.1970  1.9581
11960TIP3   OH257294   3.885   3.767   3.869  0.3626 -0.4934  0.6957
11960TIP3    H157295   3.808   3.713   3.886 -2.2476  3.0606  1.2750
11960TIP3    H257296   3.919   3.788   3.955  0.3069  0.0929  0.5822
11961TIP3   OH257297   1.705   5.895  17.165  0.4223 -0.4602 -0.1191
11961TIP3    H157298   1.663   5.814  17.192 -0.4692 -0.0337 -0.1946
11961TIP3    H257299   1.643   5.935  17.104 -0.0308  1.2180  1.3824
11962TIP3   OH257300   1.502   0.500  16.866 -1.0101 -0.2508  0.3436
11962TIP3    H157301   1.501   0.526  16.774  0.1196 -2.2725 -0.2713
11962TIP3    H257302   1.429   0.549  16.904 -1.4662  0.6855 -1.5864
11963TIP3   OH257303   6.138   2.385   0.009  0.2664  0.2338  0.5186
11963TIP3    H157304   6.221   2.423   0.038 -0.4816  1.7203  0.7984
11963TIP3    H257305   6.075   2.413   0.074 -0.3680 -1.4935  0.7099
11964TIP3   OH257306   1.441   1.284  13.545 -0.0893 -0.2756 -0.2471
11964TIP3    H157307   1.501   1.210  13.543  0.1237 -0.2238  1.8428
11964TIP3    H257308   1.496   1.360  13.560 -0.5502 -0.0611  0.4086
11965TIP3   OH257309   6.635   5.632   0.603 -0.2249 -0.3488 -0.6308
11965TIP3    H157310   6.580   5.687   0.659 -0.4100 -0.9040 -0.2497
11965TIP3    H257311   6.587   5.626   0.520 -0.7462 -0.8209 -0.3050
11966TIP3   OH257312   1.053   3.458   2.618  0.3174  0.2603 -0.1941
11966TIP3    H157313   0.992   3.460   2.691 -0.2143 -0.4839 -0.6092
11966TIP3    H257314   1.108   3.536   2.631 -1.2646  1.4440 -0.2795
11967TIP3   OH257315   5.841   4.294  11.492 -0.0428  0.4449  0.1366
11967TIP3    H157316   5.753   4.325  11.470 -0.5957 -0.0295  1.5430
11967TIP3    H257317   5.848   4.209  11.448 -0.0477  0.7357 -0.4433
11968TIP3   OH257318   1.901   2.340   3.763 -0.6374  0.7429  0.4301
11968TIP3    H157319   1.842   2.388   3.821  0.4582  1.7439  0.7796
11968TIP3    H257320   1.963   2.406   3.732 -1.1709  0.2369 -1.9098
11969TIP3   OH257321   3.955   1.813   5.837  0.6303 -0.2953  0.0146
11969TIP3    H157322   3.884   1.823   5.900  0.5601  1.6133 -0.3083
11969TIP3    H257323   4.025   1.869   5.872  0.3573  1.3455 -1.8663
11970TIP3   OH257324   5.777   0.763  12.978  0.1803  0.1177  0.1874
11970TIP3    H157325   5.767   0.770  12.883  0.3781 -0.5508  0.1157
11970TIP3    H257326   5.872   0.764  12.992  0.3731 -3.5979  0.0462
11971TIP3   OH257327   4.283   2.831  16.217  0.5105 -0.1325  0.1571
11971TIP3    H157328   4.254   2.750  16.258  0.1068 -0.5060 -0.8199
11971TIP3    H257329   4.322   2.882  16.288  2.4590 -1.9355  0.4600
11972TIP3   OH257330   2.033   3.684  15.907 -0.4337  0.5861 -0.1214
11972TIP3    H157331   1.944   3.655  15.927 -0.1195  0.0088  0.4641
11972TIP3    H257332   2.089   3.612  15.936  0.1512  0.3718 -1.6992
11973TIP3   OH257333   1.924   0.863  12.985  0.4088  0.5983  0.0385
11973TIP3    H157334   1.841   0.821  13.002 -0.6416  2.9606  1.2673
11973TIP3    H257335   1.922   0.884  12.892  1.2590 -2.4670 -0.7710
11974TIP3   OH257336   1.390   5.155   2.265 -0.1735  0.0302 -0.1732
11974TIP3    H157337   1.353   5.097   2.332  0.3603 -0.8156 -0.5908
11974TIP3    H257338   1.483   5.160   2.287  0.0977 -0.6349 -1.1029
11975TIP3   OH257339   1.226   5.487   4.380  0.0129 -0.5506 -0.0202
11975TIP3    H157340   1.212   5.466   4.288 -0.0294 -0.2994 -0.0700
11975TIP3    H257341   1.192   5.576   4.390  3.3491  0.9390 -0.5849
11976TIP3   OH257342   5.664   5.447  13.389  0.8593 -0.1871  0.3662
11976TIP3    H157343   5.573   5.449  13.420  1.2788 -2.6525  2.0163
11976TIP3    H257344   5.663   5.385  13.316  1.0172  0.9641 -0.6707
11977TIP3   OH257345   0.002   1.193  14.724 -0.1337  0.1107  0.0730
11977TIP3    H157346  -0.002   1.139  14.646  0.2110  0.4418 -0.1773
11977TIP3    H257347   0.095   1.213  14.735 -0.1330 -0.2025  0.7571
11978TIP3   OH257348   1.243   2.938   5.779 -0.3838  0.5906  0.3805
11978TIP3    H157349   1.156   2.973   5.799 -1.1056 -0.5773 -0.5532
11978TIP3    H257350   1.248   2.940   5.683  1.2688  2.0771  0.4344
11979TIP3   OH257351   4.165   6.633  12.488  0.3159 -0.0635 -0.0267
11979TIP3    H157352   4.224   6.704  12.513 -0.0339  0.7229 -1.3552
11979TIP3    H257353   4.078   6.663  12.515  0.0855  0.3087 -1.1266
11980TIP3   OH257354   4.234   5.533   0.033  0.2570 -0.3534  0.1649
11980TIP3    H157355   4.282   5.472  -0.023 -1.0887  0.4908 -1.9955
11980TIP3    H257356   4.161   5.482   0.068  1.3718 -1.0199  1.6800
11981TIP3   OH257357   6.397   6.749  12.433 -0.2105  0.1819  0.3779
11981TIP3    H157358   6.452   6.737  12.356 -2.0926 -0.1159 -0.9786
11981TIP3    H257359   6.416   6.674  12.489 -0.3906 -0.7451 -0.7880
11982TIP3   OH257360   4.182   5.759   2.472 -0.5387  0.1290  0.0949
11982TIP3    H157361   4.187   5.690   2.538 -0.7439  0.2346  0.2212
11982TIP3    H257362   4.181   5.840   2.523  0.3686  0.2547 -0.0662
11983TIP3   OH257363   2.434   6.038   3.350  0.4405 -0.2358  0.0089
11983TIP3    H157364   2.354   6.089   3.356  1.0577  0.6970  0.3874
11983TIP3    H257365   2.455   6.037   3.257  1.2025  1.4507  0.1290
11984TIP3   OH257366   1.366   3.467  15.662  0.2644 -0.4012  0.0136
11984TIP3    H157367   1.273   3.472  15.642 -0.0170 -0.9459  1.0967
11984TIP3    H257368   1.409   3.464  15.577 -0.7496 -0.8023 -0.5037
11985TIP3   OH257369   4.675   5.636   6.461 -0.0866  0.2322  0.4375
11985TIP3    H157370   4.669   5.702   6.530  0.6437  0.6313  0.1384
11985TIP3    H257371   4.705   5.557   6.506  2.4469  1.0255  0.3187
11986TIP3   OH257372   4.413   6.092  15.137  0.3375 -0.1547  0.6198
11986TIP3    H157373   4.463   6.035  15.079 -0.4131 -0.3777  0.1732
11986TIP3    H257374   4.406   6.043  15.219 -1.2367 -1.2436 -0.1007
11987TIP3   OH257375   0.486   5.939   3.001 -0.1554  0.1944  0.0373
11987TIP3    H157376   0.465   6.024   3.039  0.3017  0.9834 -1.4090
11987TIP3    H257377   0.406   5.887   3.012 -0.0283  0.3684  2.0430
11988TIP3   OH257378   3.838   3.562  16.947  0.7002 -0.8272  0.0347
11988TIP3    H157379   3.857   3.650  16.978  0.6431 -1.1547  1.0469
11988TIP3    H257380   3.907   3.507  16.985  0.1013 -1.3831  0.3469
11989TIP3   OH257381   4.640   0.132  16.241  0.7692  0.3014  0.2807
11989TIP3    H157382   4.603   0.196  16.180  1.1817  1.0296  0.7678
11989TIP3    H257383   4.728   0.164  16.258  1.0115 -0.4559  0.4716
11990TIP3   OH257384   1.671   0.872  12.088 -0.3155  0.8707 -0.1598
11990TIP3    H157385   1.752   0.921  12.107 -0.7335  1.3852  0.3449
11990TIP3    H257386   1.653   0.892  11.997  0.4024  0.3373 -0.4297
11991TIP3   OH257387   2.254   4.576  13.031 -0.2036  0.5754 -0.6550
11991TIP3    H157388   2.330   4.582  12.973  0.1293 -1.6296 -0.5279
11991TIP3    H257389   2.290   4.549  13.115 -1.1157 -0.5260 -0.5991
11992TIP3   OH257390   5.237   1.684  13.250 -0.1840 -0.0351 -0.4671
11992TIP3    H157391   5.183   1.619  13.205 -0.5234  0.3714 -0.6504
11992TIP3    H257392   5.326   1.665  13.222 -0.4337  0.4689 -1.6361
11993TIP3   OH257393   1.982   5.809  14.180  0.3680 -0.1949 -0.2264
11993TIP3    H157394   2.053   5.748  14.158  0.5366 -0.1547  0.2084
11993TIP3    H257395   1.912   5.787  14.118  0.4388 -0.8142 -0.0922
11994TIP3   OH257396   5.892   1.406   1.823 -0.2656 -0.1345 -0.5235
11994TIP3    H157397   5.970   1.388   1.876  0.1970 -0.7178 -1.3832
11994TIP3    H257398   5.850   1.321   1.814 -0.9855  0.1668 -0.1158
11995TIP3   OH257399   3.539   5.325  13.996  0.1894 -0.0189  0.6923
11995TIP3    H157400   3.502   5.391  13.938 -2.6236 -0.6530  1.6086
11995TIP3    H257401   3.565   5.254  13.938 -2.7965 -0.7548  0.1242
11996TIP3   OH257402   2.223   4.316   2.910  0.0633  0.1883 -0.6001
11996TIP3    H157403   2.242   4.393   2.963 -0.7059  0.7567 -1.1271
11996TIP3    H257404   2.130   4.322   2.890 -0.0513 -0.9683 -0.5189
11997TIP3   OH257405   1.668   5.170  14.040  0.3854 -0.1900  0.3698
11997TIP3    H157406   1.721   5.177  14.119  2.6824 -1.1990 -0.9754
11997TIP3    H257407   1.709   5.099  13.990 -1.2887  0.0793 -1.5000
11998TIP3   OH257408   2.497   3.746   2.603  0.3165  0.2351 -0.3743
11998TIP3    H157409   2.571   3.702   2.561  0.2637  0.2469 -0.4789
11998TIP3    H257410   2.519   3.746   2.696  0.0425 -0.5355 -0.3007
11999TIP3   OH257411   6.502   0.945  16.247  0.2532  0.2378 -0.0504
11999TIP3    H157412   6.435   1.010  16.267 -0.5723 -0.8293  0.7060
11999TIP3    H257413   6.490   0.926  16.154  0.2619  0.8845 -0.1845
12000TIP3   OH257414   6.499   1.700  14.577 -0.0668  0.0874 -0.4759
12000TIP3    H157415   6.467   1.668  14.662  3.7228 -0.4516  0.9470
12000TIP3    H257416   6.560   1.632  14.548 -1.1512  0.3175 -3.7067
12001TIP3   OH257417   1.218   6.525  12.142  0.1953  0.6704 -0.0964
12001TIP3    H157418   1.270   6.512  12.062 -0.0952  0.4541 -0.2543
12001TIP3    H257419   1.169   6.605  12.126 -0.4389  0.2142 -0.4526
12002TIP3   OH257420   3.120   2.976   1.299 -0.1380 -0.7075  0.5814
12002TIP3    H157421   3.193   2.921   1.269 -0.5790 -1.9046  1.5814
12002TIP3    H257422   3.049   2.914   1.315 -1.4090  0.4416 -0.4204
12003TIP3   OH257423   3.955   4.070   1.492 -0.4314 -0.4096  0.1808
12003TIP3    H157424   3.869   4.083   1.453 -0.5198 -1.5418 -0.0398
12003TIP3    H257425   3.948   3.986   1.538  0.0445  0.2746  1.5885
12004TIP3   OH257426   1.900   3.991   0.033  0.5080  0.1788  0.4040
12004TIP3    H157427   1.930   3.903   0.010  0.2096  0.3857 -0.8541
12004TIP3    H257428   1.874   3.985   0.125  1.1072 -0.8764  0.5096
12005TIP3   OH257429   4.981   5.172   5.290  0.1683 -0.3224  0.3964
12005TIP3    H157430   5.047   5.218   5.238 -0.8899  0.8889  0.0594
12005TIP3    H257431   5.005   5.191   5.381  0.2281  0.2008  0.2745
12006TIP3   OH257432   4.892   0.084   4.524  1.4901  0.0032 -0.6730
12006TIP3    H157433   4.844   0.074   4.606  0.0338  3.6114 -0.9109
12006TIP3    H257434   4.845   0.029   4.462  0.0678  0.3905  0.0185
12007TIP3   OH257435   1.297   3.739   5.706  0.5865 -0.5232  0.0658
12007TIP3    H157436   1.334   3.805   5.765  0.1864  0.0045 -0.2745
12007TIP3    H257437   1.231   3.694   5.758 -0.3662  0.5074 -0.2239
12008TIP3   OH257438   2.611   3.654  11.843 -0.4585 -0.6709 -0.3818
12008TIP3    H157439   2.701   3.659  11.877 -0.2466 -0.0300 -0.9943
12008TIP3    H257440   2.556   3.671  11.919 -0.0499 -0.8414 -0.0424
12009TIP3   OH257441   4.455   1.668  14.842  0.3090  0.6618 -0.3875
12009TIP3    H157442   4.396   1.742  14.854 -0.8755  0.1162 -2.3906
12009TIP3    H257443   4.532   1.706  14.800  0.1191  0.9153 -0.5105
12010TIP3   OH257444   5.615   2.577  12.724  0.1114  0.2860 -1.0850
12010TIP3    H157445   5.623   2.668  12.752 -0.8422 -0.3716  1.6674
12010TIP3    H257446   5.696   2.536  12.754  0.1580  0.0397 -1.5397
12011TIP3   OH257447   3.194   1.245   5.864  0.1412 -0.3360  1.0093
12011TIP3    H157448   3.178   1.295   5.944  0.4569  3.6439 -1.2133
12011TIP3    H257449   3.108   1.238   5.822  0.1840 -1.3205  1.0614
12012TIP3   OH257450   0.306   2.656   4.212  0.1381  0.0167  0.7128
12012TIP3    H157451   0.247   2.629   4.141  1.2885 -0.1288 -0.2066
12012TIP3    H257452   0.251   2.710   4.269 -0.3732  1.6954 -1.2444
12013TIP3   OH257453   5.021   4.087  12.469 -0.2973  0.2826  0.4892
12013TIP3    H157454   5.015   4.132  12.385  0.4919  1.0784  0.8452
12013TIP3    H257455   5.108   4.047  12.469 -0.4809 -0.1240  0.7256
12014TIP3   OH257456   4.733   3.846   0.772  0.2202  0.5112 -0.3119
12014TIP3    H157457   4.772   3.763   0.800 -1.7032 -0.4270 -0.2385
12014TIP3    H257458   4.742   3.847   0.677  1.5535  0.9353 -0.1961
12015TIP3   OH257459   3.808   4.507  11.841  0.0554  0.0063  0.1193
12015TIP3    H157460   3.826   4.531  11.932 -1.7883  3.0759 -0.1920
12015TIP3    H257461   3.894   4.507  11.799  1.0124 -1.9322  1.8462
12016TIP3   OH257462   5.017   0.766   3.604 -0.2050  0.1517  0.0894
12016TIP3    H157463   4.988   0.812   3.684 -0.4389  0.1501  0.0072
12016TIP3    H257464   5.053   0.683   3.636 -0.1676  0.2115  0.2052
12017TIP3   OH257465   5.470   0.392   0.709  0.2342 -0.2384 -0.7726
12017TIP3    H157466   5.547   0.433   0.747  0.4522 -0.3401 -1.1005
12017TIP3    H257467   5.503   0.345   0.632  0.1242 -1.6550  0.0059
12018TIP3   OH257468   1.521   5.133  14.482 -0.5121  0.0501 -0.0397
12018TIP3    H157469   1.504   5.041  14.499  0.2765 -0.1992 -0.5554
12018TIP3    H257470   1.441   5.166  14.443 -1.0174 -0.2656  0.7176
12019TIP3   OH257471   5.250   3.122   1.045  0.4180 -0.2382  0.0301
12019TIP3    H157472   5.288   3.132   1.133 -2.0159 -0.1849  1.1797
12019TIP3    H257473   5.175   3.181   1.046  0.7200  0.2613 -2.3775
12020TIP3   OH257474   1.990   3.668  12.799  0.1224  0.1102  0.6328
12020TIP3    H157475   1.956   3.685  12.887  3.3906 -0.2775  2.1337
12020TIP3    H257476   1.929   3.605  12.761 -0.6625 -0.7649  3.1632
12021TIP3   OH257477   0.162   4.407  11.617 -0.0950 -0.6516 -0.7056
12021TIP3    H157478   0.117   4.373  11.695  0.7294 -1.0340 -0.3852
12021TIP3    H257479   0.161   4.502  11.629  2.6240 -0.7633  1.3112
12022TIP3   OH257480   6.436   3.489  13.428  0.2043 -0.4538 -0.1968
12022TIP3    H157481   6.469   3.573  13.396  0.5060 -0.8053 -0.8116
12022TIP3    H257482   6.484   3.423  13.379 -2.2883 -0.9966 -2.1293
12023TIP3   OH257483   3.261   5.642   4.867 -0.1235 -0.2102 -0.2952
12023TIP3    H157484   3.281   5.689   4.948 -0.0660  2.5170 -1.7579
12023TIP3    H257485   3.173   5.608   4.880 -0.2370  0.4580  0.8091
12024TIP3   OH257486   2.142   4.378  13.780  0.0293 -0.1804 -0.3036
12024TIP3    H157487   2.061   4.399  13.827 -0.1519 -0.8425 -0.3010
12024TIP3    H257488   2.116   4.307  13.720  0.5157 -0.1133 -0.5938
12025TIP3   OH257489   6.434   4.615   5.298 -0.6688  0.5394 -0.2731
12025TIP3    H157490   6.366   4.565   5.254  0.6426 -0.8074 -0.8498
12025TIP3    H257491   6.511   4.558   5.296  0.2523  1.6582  1.1223
12026TIP3   OH257492   3.764   4.922  15.607 -0.3046  0.3719 -0.0454
12026TIP3    H157493   3.719   4.966  15.535 -0.0312  0.0222 -0.4348
12026TIP3    H257494   3.817   4.991  15.647 -1.7425  0.9714  0.8996
12027TIP3   OH257495   6.725   5.630   5.729  0.4969  0.5398  0.1610
12027TIP3    H157496   6.773   5.712   5.741  0.8476  0.3618  0.0191
12027TIP3    H257497   6.637   5.648   5.759 -0.2354  1.8150 -2.4494
12028TIP3   OH257498   0.832   4.647  12.637 -0.4467  0.4398  0.4378
12028TIP3    H157499   0.896   4.646  12.565 -1.7363 -0.9081 -0.7435
12028TIP3    H257500   0.885   4.649  12.716  1.1113 -1.7916 -0.4696
12029TIP3   OH257501   4.154   0.522  10.907 -0.3750  0.3592  0.6681
12029TIP3    H157502   4.178   0.613  10.889  0.6068  0.1600  0.9157
12029TIP3    H257503   4.068   0.528  10.950  0.5468  1.3155  2.4883
12030TIP3   OH257504   0.477   4.041  15.876 -0.1251 -0.0477 -0.3975
12030TIP3    H157505   0.510   4.070  15.791  0.0109  0.4152 -0.1931
12030TIP3    H257506   0.540   3.975  15.905 -1.3813 -1.9212 -1.6690
12031TIP3   OH257507   6.525   4.208  15.045  0.5004 -0.4893  0.4496
12031TIP3    H157508   6.513   4.269  15.118 -0.6321  0.6275 -0.6330
12031TIP3    H257509   6.582   4.253  14.984 -1.5589  0.1952 -1.0643
12032TIP3   OH257510   6.486   1.856  12.727 -0.3104 -0.0846 -0.2013
12032TIP3    H157511   6.439   1.864  12.810 -1.2394 -1.4977 -0.5563
12032TIP3    H257512   6.417   1.854  12.661  0.3522 -0.2855 -0.8983
12033TIP3   OH257513   0.948   2.079  11.488 -0.2163 -0.2987  0.1343
12033TIP3    H157514   1.023   2.057  11.433  0.1616 -0.1789  0.5903
12033TIP3    H257515   0.872   2.071  11.430  0.1710 -0.1696 -0.4043
12034TIP3   OH257516   4.620   0.195  17.198 -0.0690 -0.2813 -0.6007
12034TIP3    H157517   4.559   0.242  17.255 -2.1160 -0.9183 -2.1481
12034TIP3    H257518   4.609   0.103  17.222  1.8483 -0.3021  0.4686
12035TIP3   OH257519   0.251   2.966   6.182 -0.3503  0.0818 -0.5586
12035TIP3    H157520   0.164   2.969   6.221 -0.6468 -1.1237 -1.0831
12035TIP3    H257521   0.304   3.022   6.239 -1.1384 -0.3279  0.6347
12036TIP3   OH257522   0.846   3.503   0.926 -0.3611 -0.5984 -0.1452
12036TIP3    H157523   0.803   3.575   0.879  0.8509 -0.5675 -1.2670
12036TIP3    H257524   0.939   3.527   0.927 -0.1050 -1.5626  0.5528
12037TIP3   OH257525   1.230   6.346   4.087  0.2765 -0.0998 -0.5363
12037TIP3    H157526   1.251   6.391   4.005  0.4634  0.6492 -0.0824
12037TIP3    H257527   1.160   6.399   4.126 -1.0158 -1.3734 -1.0020
12038TIP3   OH257528   0.606   0.578   1.431  0.2518  0.4720  0.2446
12038TIP3    H157529   0.573   0.646   1.373  1.4631 -0.3843 -1.5581
12038TIP3    H257530   0.677   0.619   1.480  1.8932  0.2569 -1.8111
12039TIP3   OH257531   2.948   4.223  16.713 -0.0859  0.2740 -0.2603
12039TIP3    H157532   3.011   4.198  16.781 -0.2948 -0.5383 -0.3549
12039TIP3    H257533   2.932   4.316  16.728 -0.0066  0.1428  0.7039
12040TIP3   OH257534   3.437   2.703   2.188 -0.5209  0.0798  0.8969
12040TIP3    H157535   3.350   2.664   2.187 -0.2283 -0.5981  1.2206
12040TIP3    H257536   3.457   2.720   2.096 -1.9815  2.5362  0.9339
12041TIP3   OH257537   5.018   6.037  13.706  0.5355  0.3404 -0.6776
12041TIP3    H157538   5.027   5.946  13.735 -0.4396  1.2612  2.9263
12041TIP3    H257539   5.096   6.081  13.738 -0.2550  1.2956 -0.0065
12042TIP3   OH257540   5.449   1.742   0.119  0.6272 -0.2992  0.5661
12042TIP3    H157541   5.496   1.692   0.052 -0.6784 -0.1114 -0.5533
12042TIP3    H257542   5.400   1.677   0.168  1.5850 -0.4372  1.3718
12043TIP3   OH257543   4.756   2.210   1.949  0.7193 -0.2363  0.3078
12043TIP3    H157544   4.756   2.274   1.878 -0.0531  0.8093  1.2095
12043TIP3    H257545   4.689   2.147   1.925  0.1365  0.3714  0.3161
12044TIP3   OH257546   1.516   1.063  14.449  0.2215  0.3926 -0.0839
12044TIP3    H157547   1.567   0.994  14.493  0.6476  1.4268  1.1159
12044TIP3    H257548   1.432   1.022  14.430 -0.1419 -0.0173  2.1301
12045TIP3   OH257549   1.106   0.451   1.540 -0.2038 -0.1751 -0.2408
12045TIP3    H157550   1.101   0.419   1.450  1.4892 -0.0229 -0.4199
12045TIP3    H257551   1.104   0.372   1.593 -0.0363 -0.3392 -0.4749
12046TIP3   OH257552   1.803   5.549   0.347 -0.1463 -0.3764  0.2875
12046TIP3    H157553   1.882   5.590   0.310 -0.8469  0.2034 -0.5956
12046TIP3    H257554   1.836   5.498   0.422  0.8472  1.2442  1.0169
12047TIP3   OH257555   0.292   5.684   5.721 -0.3048  0.7344  0.3724
12047TIP3    H157556   0.211   5.727   5.751 -0.4011  0.2668  0.7916
12047TIP3    H257557   0.306   5.719   5.633 -2.5849 -1.3845 -0.9413
12048TIP3   OH257558   3.933   0.997   5.166  0.0940 -0.2246 -0.6167
12048TIP3    H157559   3.921   1.039   5.081  2.2329 -1.0459 -1.3823
12048TIP3    H257560   3.929   1.070   5.229  0.2076  0.6355 -1.5825
12049TIP3   OH257561   1.159   5.956   5.636  0.0457  0.0901 -0.4970
12049TIP3    H157562   1.180   6.048   5.650  0.0457  0.2993 -1.7082
12049TIP3    H257563   1.195   5.911   5.712  1.4387  0.9067 -0.6374
12050TIP3   OH257564   4.385   2.068  12.001  0.6876  0.1752 -0.1351
12050TIP3    H157565   4.449   2.131  12.034  0.7139  0.7255 -1.1953
12050TIP3    H257566   4.337   2.040  12.078  0.5781  1.6033  0.3488
12051TIP3   OH257567   0.430   1.775   0.908  0.4737 -0.1541  0.5257
12051TIP3    H157568   0.339   1.805   0.914  0.6288  0.6748 -0.7540
12051TIP3    H257569   0.435   1.731   0.823  1.3799  0.2174  0.3786
12052TIP3   OH257570   2.576   1.269  14.193 -0.3235 -0.3479  0.5947
12052TIP3    H157571   2.588   1.189  14.142  1.2035  1.4002 -2.0090
12052TIP3    H257572   2.604   1.339  14.135 -4.1609  2.4302  1.6679
12053TIP3   OH257573   4.259   0.913   3.031 -0.2091 -1.0334  0.3291
12053TIP3    H157574   4.200   0.905   2.957 -0.7226 -0.6720  0.6959
12053TIP3    H257575   4.346   0.894   2.994 -0.6563 -2.6077 -0.0001
12054TIP3   OH257576   1.451   1.702  13.685 -0.0220  0.0356  1.0261
12054TIP3    H157577   1.437   1.700  13.590  1.7174  0.9931  0.7020
12054TIP3    H257578   1.510   1.629  13.702 -0.8194 -0.5173  1.4898
12055TIP3   OH257579   5.542   5.099   2.334 -0.1422 -0.1240 -0.2791
12055TIP3    H157580   5.501   5.050   2.263  1.4904 -2.9777  0.5552
12055TIP3    H257581   5.484   5.083   2.410 -0.3443  0.4440 -0.3121
12056TIP3   OH257582   5.717   1.295  13.117  0.4614  0.1032  0.0989
12056TIP3    H157583   5.660   1.274  13.191  0.0357  0.5291 -0.1020
12056TIP3    H257584   5.794   1.337  13.157  1.0161 -1.1737  0.4437
12057TIP3   OH257585   5.276   5.289   2.485 -0.3191  0.2239 -0.1101
12057TIP3    H157586   5.194   5.338   2.481 -0.8623 -0.7063 -0.4396
12057TIP3    H257587   5.269   5.237   2.565 -0.4983 -0.6395 -0.6816
12058TIP3   OH257588   6.623   4.350  12.890 -0.1710 -0.3111 -0.7339
12058TIP3    H157589   6.670   4.420  12.846  0.7062 -0.0596  0.5319
12058TIP3    H257590   6.687   4.279  12.898 -1.2784 -1.6161 -2.7126
12059TIP3   OH257591   2.433   5.316   0.185  0.7828 -0.1144 -0.3583
12059TIP3    H157592   2.488   5.238   0.174  0.0083 -0.7918  0.4617
12059TIP3    H257593   2.400   5.310   0.275  0.9649  1.3325 -0.1722
12060TIP3   OH257594   0.435   4.310   3.300 -0.7904 -0.1145  0.0346
12060TIP3    H157595   0.514   4.300   3.353 -0.0657  0.7743 -0.8391
12060TIP3    H257596   0.427   4.227   3.253  0.9644  0.5683 -1.6063
12061TIP3   OH257597   1.775   6.558  11.040 -0.0767  0.2976  0.2033
12061TIP3    H157598   1.765   6.518  10.954 -0.1968  1.6759 -0.4484
12061TIP3    H257599   1.821   6.492  11.092 -1.2886 -1.1360 -0.4663
12062TIP3   OH257600   6.743   4.214  15.873 -0.4085  0.2967  0.0546
12062TIP3    H157601   6.703   4.258  15.948 -1.8533 -0.4805 -0.2142
12062TIP3    H257602   6.837   4.228  15.884 -0.7326  2.2325  0.7116
12063TIP3   OH257603   4.963   0.706  11.419 -0.6494 -0.0353 -0.3672
12063TIP3    H157604   5.007   0.791  11.428 -0.9211  0.1285 -0.5821
12063TIP3    H257605   5.025   0.644  11.457 -1.0505  0.4277  1.0996
12064TIP3   OH257606   5.339   0.925  15.747 -0.0966 -0.0693 -0.4769
12064TIP3    H157607   5.246   0.907  15.764  0.3849  0.1207  3.1957
12064TIP3    H257608   5.367   0.853  15.690 -2.1344 -1.0865 -0.2924
12065TIP3   OH257609   2.327   4.845   3.917  0.3311  0.2345  0.1102
12065TIP3    H157610   2.286   4.914   3.865  0.7024  0.0988 -0.3662
12065TIP3    H257611   2.388   4.802   3.857  1.6299  0.8169  0.9490
12066TIP3   OH257612   6.346   0.498   1.983  0.2026  0.1576 -0.1746
12066TIP3    H157613   6.324   0.458   2.067  0.8995 -0.4049 -0.2460
12066TIP3    H257614   6.275   0.471   1.924 -0.1629  0.3568  0.1737
12067TIP3   OH257615   6.062   3.562   1.101  0.4210  0.0893 -0.7741
12067TIP3    H157616   6.054   3.587   1.009 -1.5147  0.0034 -0.6762
12067TIP3    H257617   6.057   3.466   1.100  1.0560  0.0477 -0.6099
12068TIP3   OH257618   6.181   6.091  16.073  0.0695  0.8272 -0.3280
12068TIP3    H157619   6.245   6.045  16.128 -1.2964 -1.3322 -0.3987
12068TIP3    H257620   6.164   6.030  16.001 -3.1921  0.5359  0.5236
12069TIP3   OH257621   6.239   1.513   3.235 -0.2857 -0.8009 -0.7186
12069TIP3    H157622   6.178   1.537   3.164 -1.1850 -0.4736  0.1360
12069TIP3    H257623   6.305   1.583   3.234  0.3646 -1.3996 -1.9506
12070TIP3   OH257624   0.844   3.302   5.773 -0.1472  0.0324  0.2854
12070TIP3    H157625   0.818   3.306   5.865 -0.3127  0.0134  0.2384
12070TIP3    H257626   0.898   3.380   5.760 -0.7941  0.4649  0.1858
12071TIP3   OH257627   6.572   0.891   0.284 -0.5237 -0.4802  0.4780
12071TIP3    H157628   6.648   0.944   0.308 -0.5322 -0.4307  0.3977
12071TIP3    H257629   6.498   0.951   0.294 -0.4536 -0.2367 -0.3834
12072TIP3   OH257630   1.677   2.781   3.158 -0.3179  0.2462  0.1316
12072TIP3    H157631   1.649   2.718   3.224 -1.0508  1.8336  1.4342
12072TIP3    H257632   1.736   2.733   3.101 -0.9801 -1.6291  0.9584
12073TIP3   OH257633   3.798   3.687   0.221  0.2333 -0.0216  0.4548
12073TIP3    H157634   3.742   3.610   0.226  2.7005 -1.9445  0.5963
12073TIP3    H257635   3.883   3.657   0.253  1.5840  2.5149 -0.4334
12074TIP3   OH257636   1.226   0.594   3.685 -0.2087  0.1100  0.1243
12074TIP3    H157637   1.273   0.582   3.767  0.9877  2.6554 -0.0955
12074TIP3    H257638   1.194   0.506   3.662  1.4760 -1.0840  2.0484
12075TIP3   OH257639   3.899   6.213  12.495  0.0988  0.2137  0.1064
12075TIP3    H157640   3.968   6.271  12.463 -0.2473  0.9636  0.6727
12075TIP3    H257641   3.858   6.178  12.416  2.7004 -2.2410 -0.2956
12076TIP3   OH257642   1.569   4.941   3.578 -0.3784 -0.1769  0.8361
12076TIP3    H157643   1.491   4.921   3.631 -0.9967  0.3206  0.1419
12076TIP3    H257644   1.563   5.035   3.562  0.0294 -0.2503  0.2473
12077TIP3   OH257645   2.983   3.845   3.240 -0.2447 -0.2707  0.0755
12077TIP3    H157646   3.075   3.819   3.233 -0.0854  0.2540  0.1973
12077TIP3    H257647   2.954   3.804   3.322  0.3894  1.0437  0.9842
12078TIP3   OH257648   0.712   5.875  13.993  0.3548 -0.1192 -0.4878
12078TIP3    H157649   0.657   5.952  13.984  1.1890  0.5568  0.0285
12078TIP3    H257650   0.659   5.803  13.958 -0.7188  0.5520 -0.2862
12079TIP3   OH257651   5.041   5.762   0.711  1.2030  0.3429 -0.2327
12079TIP3    H157652   5.050   5.670   0.685  1.3137  0.2942 -0.0286
12079TIP3    H257653   5.112   5.776   0.774  1.6516  0.7787 -0.8215
12080TIP3   OH257654   2.522   4.687   5.353 -0.2823 -0.1168  0.2069
12080TIP3    H157655   2.534   4.592   5.359 -0.2846 -0.0905  0.6931
12080TIP3    H257656   2.546   4.709   5.263 -0.6750 -0.6351 -0.0305
12081TIP3   OH257657   4.316   4.876   3.824  0.1559  0.0170 -0.1847
12081TIP3    H157658   4.302   4.848   3.734 -1.0633  1.2135 -0.3949
12081TIP3    H257659   4.274   4.962   3.830 -1.1109 -0.6554  1.8824
12082TIP3   OH257660   1.601   4.277   4.218 -0.9209  0.0358  0.2656
12082TIP3    H157661   1.650   4.292   4.137 -1.9223 -0.2409 -0.4080
12082TIP3    H257662   1.530   4.341   4.215 -1.3780 -0.4509  0.5683
12083TIP3   OH257663   6.105   5.325   5.474 -0.3353 -0.2242 -0.6592
12083TIP3    H157664   6.199   5.315   5.490 -0.5220 -0.9280  0.0860
12083TIP3    H257665   6.091   5.280   5.391 -0.1973 -1.2246 -0.1633
12084TIP3   OH257666   2.166   6.274   3.797 -0.4715 -0.5134 -0.8490
12084TIP3    H157667   2.230   6.226   3.745  0.3741 -0.8281  0.4606
12084TIP3    H257668   2.092   6.214   3.805 -0.5478 -0.5214 -1.5399
12085TIP3   OH257669   5.938   2.438  14.969 -0.9278  0.3927 -0.2222
12085TIP3    H157670   5.927   2.397  14.884 -1.3581 -0.2812  0.1447
12085TIP3    H257671   5.917   2.530  14.955 -2.6516 -0.0067 -0.5056
12086TIP3   OH257672   4.545   1.734  11.761 -0.6787  0.6691  0.1379
12086TIP3    H157673   4.497   1.806  11.801  0.7869  2.5594 -1.2756
12086TIP3    H257674   4.505   1.724  11.674 -1.5367 -0.9715  0.6842
12087TIP3   OH257675   5.153   0.058   3.599  0.2261 -0.4576 -0.7284
12087TIP3    H157676   5.185   0.147   3.588  0.9653 -0.7108 -0.7004
12087TIP3    H257677   5.061   0.068   3.623  0.2791  0.2896 -0.8168
12088TIP3   OH257678   2.928   0.708   3.496 -0.5146 -0.1287  0.7641
12088TIP3    H157679   2.895   0.661   3.420 -0.8300  0.4966  0.5146
12088TIP3    H257680   2.956   0.793   3.462 -1.7041  0.5846  1.5326
12089TIP3   OH257681   3.177   3.495   0.126 -0.2629  0.4371  0.0082
12089TIP3    H157682   3.195   3.502   0.032  1.5463 -0.0366  0.2915
12089TIP3    H257683   3.217   3.413   0.152 -0.9369  0.4634  1.1700
12090TIP3   OH257684   3.063   0.231   3.407 -0.7508  0.1168 -0.5423
12090TIP3    H157685   3.123   0.287   3.456  0.5223 -0.1792 -1.6854
12090TIP3    H257686   3.056   0.151   3.459  1.6701 -0.7516 -1.4127
12091TIP3   OH257687   5.483   3.677  12.248  0.6684  0.1598 -0.5961
12091TIP3    H157688   5.414   3.611  12.248 -1.5434  2.3098 -0.0925
12091TIP3    H257689   5.497   3.696  12.341  0.7154  0.8980 -0.7486
12092TIP3   OH257690   0.494   3.310   4.557  0.3816  0.0762 -0.7733
12092TIP3    H157691   0.580   3.269   4.562  0.7922  0.8953 -0.9252
12092TIP3    H257692   0.445   3.273   4.630  0.8573 -0.3898 -0.6838
12093TIP3   OH257693   1.218   2.532   0.800  0.4041 -0.1299 -0.2382
12093TIP3    H157694   1.187   2.459   0.746  0.3817 -0.5775  0.3713
12093TIP3    H257695   1.213   2.608   0.742  0.6156 -0.6411 -0.9523
12094TIP3   OH257696   4.591   1.588   0.282  0.5955  0.5156  0.9477
12094TIP3    H157697   4.620   1.497   0.288 -0.3411  0.0881 -0.4161
12094TIP3    H257698   4.498   1.582   0.259  0.9578  1.7869 -1.0911
12095TIP3   OH257699   0.316   5.588   1.643  0.6300 -0.0959 -0.4921
12095TIP3    H157700   0.280   5.535   1.571 -0.7230  0.7119 -0.4534
12095TIP3    H257701   0.246   5.590   1.708  1.5754 -0.2209  0.5601
12096TIP3   OH257702   0.296   0.866  16.052 -0.6998  0.3069  0.0599
12096TIP3    H157703   0.307   0.956  16.084  1.4889  0.0024  0.3606
12096TIP3    H257704   0.310   0.811  16.129  0.8447 -0.3230 -0.6081
12097TIP3   OH257705   6.147   6.101   2.880 -0.1682  0.3764 -0.4318
12097TIP3    H157706   6.172   6.129   2.792 -1.6507  1.0282 -0.6894
12097TIP3    H257707   6.228   6.073   2.922  0.6109  0.4199 -1.8780
12098TIP3   OH257708   6.441   0.181  16.749 -0.3396  0.0395 -0.3169
12098TIP3    H157709   6.354   0.192  16.711 -0.4199  0.2900 -0.0603
12098TIP3    H257710   6.425   0.158  16.841 -0.1411 -0.2578 -0.3542
12099TIP3   OH257711   2.768   4.194  14.398 -0.6105 -0.3798  0.2882
12099TIP3    H157712   2.836   4.167  14.336 -0.7992  0.9274 -0.5225
12099TIP3    H257713   2.788   4.286  14.417 -2.1112  0.0079  0.0832
12100TIP3   OH257714   4.460   1.299   0.686 -0.5323 -0.2069 -0.5922
12100TIP3    H157715   4.422   1.302   0.774 -0.2091  0.1512 -0.4599
12100TIP3    H257716   4.414   1.368   0.638  0.3255  0.6130 -0.2699
12101TIP3   OH257717   2.341   5.704  14.570 -0.5097  0.1507 -0.0362
12101TIP3    H157718   2.248   5.727  14.568 -0.7514 -0.7848 -1.9599
12101TIP3    H257719   2.353   5.661  14.655 -1.6698  0.8566  0.5066
12102TIP3   OH257720   3.144   4.363   4.075  0.3055  0.2508 -0.3613
12102TIP3    H157721   3.135   4.329   4.164 -3.3429  3.0378  0.5814
12102TIP3    H257722   3.235   4.395   4.070  0.2300  1.2861  2.9181
12103TIP3   OH257723   2.208   3.795   1.605 -0.2937 -0.6929 -0.2683
12103TIP3    H157724   2.182   3.728   1.668 -0.9603 -0.2485 -0.0604
12103TIP3    H257725   2.153   3.778   1.528  0.3952 -1.1265 -0.6745
12104TIP3   OH257726   6.660   0.329   0.907 -0.2431  0.6289 -0.2896
12104TIP3    H157727   6.713   0.274   0.850 -1.3743 -1.5827  0.6615
12104TIP3    H257728   6.647   0.410   0.858  1.7229  0.1860 -1.6413
12105TIP3   OH257729   3.461   0.924  14.025  0.0039 -0.3392 -0.2497
12105TIP3    H157730   3.462   0.928  13.929 -0.8150  0.1259 -0.2434
12105TIP3    H257731   3.369   0.931  14.048  0.2495  0.1687  0.6003
12106TIP3   OH257732   4.398   1.422  12.947  0.0089  0.5458  0.1692
12106TIP3    H157733   4.391   1.343  13.000 -0.5848  0.9924  0.7745
12106TIP3    H257734   4.324   1.477  12.975 -1.1978  0.2187 -2.0902
12107TIP3   OH257735   6.327   3.974  11.207  0.1912 -0.2808 -0.2402
12107TIP3    H157736   6.233   3.990  11.196  0.2116  0.5164  0.5881
12107TIP3    H257737   6.363   3.979  11.119 -0.4243  0.3158 -0.4670
12108TIP3   OH257738   1.474   2.036  14.375 -0.2150  0.0493  0.0334
12108TIP3    H157739   1.415   2.080  14.437  0.6970 -0.9811  1.7345
12108TIP3    H257740   1.422   2.025  14.296 -1.7530  0.6667  0.9038
12109TIP3   OH257741   6.782   4.241  15.361  0.3732  0.4634  0.3227
12109TIP3    H157742   6.834   4.205  15.289  0.7006  0.1187  0.7223
12109TIP3    H257743   6.767   4.167  15.420 -1.1609  0.4099 -0.1146
12110TIP3   OH257744   4.599   5.318   0.779 -0.2024  0.0307  0.3055
12110TIP3    H157745   4.517   5.294   0.734  0.5049 -1.1755 -0.4146
12110TIP3    H257746   4.630   5.236   0.817  1.6842 -0.0100 -1.1560
12111TIP3   OH257747   1.006   4.570   5.704 -0.1940 -0.1431  0.3706
12111TIP3    H157748   1.064   4.516   5.650 -0.4861  1.6772 -1.9259
12111TIP3    H257749   1.033   4.660   5.686  1.5628  0.6592  5.5121
12112TIP3   OH257750   2.747   0.298  13.770 -0.2214 -0.2490 -0.4340
12112TIP3    H157751   2.668   0.351  13.766  0.0959  0.2212 -0.5123
12112TIP3    H257752   2.798   0.324  13.693 -0.1744 -0.8511 -0.6168
12113TIP3   OH257753   3.222   4.347  14.326  0.1443 -0.0794  0.2059
12113TIP3    H157754   3.195   4.322  14.414  0.5452  0.6870  0.5596
12113TIP3    H257755   3.149   4.321  14.270  0.4680 -1.8372  0.5604
12114TIP3   OH257756   2.634   5.264  11.796 -0.1810 -0.5152 -0.2396
12114TIP3    H157757   2.694   5.238  11.866  1.1371 -0.2531 -1.2215
12114TIP3    H257758   2.667   5.349  11.766 -1.1713 -0.2663 -0.6758
12115TIP3   OH257759   0.748   2.962  15.366  0.2028 -0.3006 -0.0620
12115TIP3    H157760   0.801   2.906  15.422  0.0841 -0.2270  0.1226
12115TIP3    H257761   0.693   3.012  15.426  0.7417  0.4597 -0.1896
12116TIP3   OH257762   6.128   4.036  12.625  0.0210  0.0895 -0.3554
12116TIP3    H157763   6.110   4.108  12.564 -0.4246  1.4644  1.3298
12116TIP3    H257764   6.221   4.018  12.613  0.3442  1.5411 -0.2057
12117TIP3   OH257765   2.033   0.969   1.452  0.4532 -0.1099 -0.5432
12117TIP3    H157766   2.006   0.901   1.390  0.3893 -2.6945  2.0976
12117TIP3    H257767   1.985   1.047   1.425  0.0247 -1.2396 -3.3477
12118TIP3   OH257768   2.030   4.583  16.458 -0.6721  0.2509 -0.5589
12118TIP3    H157769   1.946   4.540  16.471  1.1925 -3.1439  1.6446
12118TIP3    H257770   2.076   4.528  16.395  1.4730 -0.6925  1.6638
12119TIP3   OH257771   1.179   1.149  14.646 -0.7418  0.1110  0.4923
12119TIP3    H157772   1.215   1.191  14.567  1.6246  0.9301  1.8902
12119TIP3    H257773   1.105   1.204  14.671  0.4248  1.7148  0.5530
12120TIP3   OH257774   3.968   6.376   6.193 -0.0938 -0.3199  0.4119
12120TIP3    H157775   4.000   6.460   6.226 -1.0302  0.5898 -0.8852
12120TIP3    H257776   3.876   6.374   6.220 -0.3581 -0.4265 -0.4909
12121TIP3   OH257777   0.582   6.223  13.903 -0.8966 -0.1967 -0.1122
12121TIP3    H157778   0.568   6.307  13.860 -0.0576  0.7632  1.4286
12121TIP3    H257779   0.495   6.184  13.909 -1.1718  0.0963 -1.7036
12122TIP3   OH257780   5.124   4.352   2.893 -0.0926 -0.2350 -0.1528
12122TIP3    H157781   5.157   4.437   2.867  0.4896 -1.2153 -2.8741
12122TIP3    H257782   5.201   4.295   2.892 -0.4930 -0.8716  1.5254
12123TIP3   OH257783   6.567   2.992  12.364  0.0307  0.1351  0.0835
12123TIP3    H157784   6.583   2.899  12.346 -0.7624  0.3465 -1.9704
12123TIP3    H257785   6.535   3.027  12.281  1.7611  2.6021  0.3778
12124TIP3   OH257786   0.591   2.783   2.496  0.1667  0.1578 -0.3187
12124TIP3    H157787   0.578   2.688   2.492  1.4855 -0.0679  0.1243
12124TIP3    H257788   0.628   2.806   2.411  1.9073 -0.1082  0.3255
12125TIP3   OH257789   4.778   3.388  14.145  0.0656 -0.3549 -0.2070
12125TIP3    H157790   4.795   3.364  14.236  3.4664  2.0919 -0.0056
12125TIP3    H257791   4.826   3.323  14.094 -1.4797 -1.4632 -0.3268
12126TIP3   OH257792   0.811   5.401   3.569  0.0860 -0.4791  0.7074
12126TIP3    H157793   0.785   5.372   3.482 -0.8323  0.5881  0.6077
12126TIP3    H257794   0.889   5.349   3.589  2.6672  1.8280 -2.3065
12127TIP3   OH257795   0.413   4.098  10.990 -0.5121 -0.3001 -1.0214
12127TIP3    H157796   0.488   4.093  10.930  0.0672  0.6529 -0.4262
12127TIP3    H257797   0.363   4.018  10.974  2.0766 -2.3740  0.4331
12128TIP3   OH257798   4.345   4.577   4.266  0.4882 -0.1530  0.0199
12128TIP3    H157799   4.324   4.518   4.193  1.8313  0.0728 -0.5760
12128TIP3    H257800   4.329   4.525   4.344  2.7822 -1.7944 -0.4972
12129TIP3   OH257801   3.375   4.093  16.792 -0.3169  0.4075  0.1792
12129TIP3    H157802   3.288   4.097  16.830  0.2967 -0.0151  1.6876
12129TIP3    H257803   3.414   4.013  16.828  1.3113  1.4762  0.9342
12130TIP3   OH257804   6.403   1.306   0.862  0.4698  0.3377 -0.3753
12130TIP3    H157805   6.455   1.280   0.938 -3.6400  1.3652  3.2141
12130TIP3    H257806   6.411   1.401   0.858 -0.4472  0.4366 -0.2234
12131TIP3   OH257807   6.546   2.222   2.391 -0.4516 -0.5484  0.6079
12131TIP3    H157808   6.593   2.217   2.475 -0.5265 -0.3751  0.6621
12131TIP3    H257809   6.461   2.259   2.414  0.0734  0.9926  0.2529
12132TIP3   OH257810   0.149   5.139  13.114  0.3712 -0.1660 -0.1436
12132TIP3    H157811   0.068   5.093  13.131  1.5547 -1.7243  1.6028
12132TIP3    H257812   0.202   5.078  13.062  0.6190  0.6490 -0.8821
12133TIP3   OH257813   5.300   2.075  11.611  0.0747 -1.0609 -0.3765
12133TIP3    H157814   5.217   2.118  11.630  0.1148 -0.5794 -1.2078
12133TIP3    H257815   5.345   2.070  11.695  0.4285  1.3015 -0.3652
12134TIP3   OH257816   4.633   2.200   4.436  0.1207 -1.0464 -0.0599
12134TIP3    H157817   4.542   2.175   4.424  0.2200 -0.9905 -0.9819
12134TIP3    H257818   4.671   2.197   4.348  0.4265  1.2003 -0.0700
12135TIP3   OH257819   1.275   1.952   4.325 -0.1104 -0.4182 -0.3157
12135TIP3    H157820   1.262   1.944   4.230 -1.4493  0.2326 -0.2058
12135TIP3    H257821   1.230   1.877   4.362 -2.7192  1.1605 -0.0175
12136TIP3   OH257822   6.675   5.043  16.525 -0.5411 -0.3969  0.1908
12136TIP3    H157823   6.647   5.070  16.438  0.2463 -0.4475 -0.0808
12136TIP3    H257824   6.596   5.050  16.579 -0.5190  1.9627  0.0256
12137TIP3   OH257825   5.928   2.897   0.574  0.1503  0.3267 -0.3928
12137TIP3    H157826   5.860   2.880   0.509 -0.9291  1.4871  0.3841
12137TIP3    H257827   5.995   2.830   0.558 -0.8140 -0.3585 -1.6733
12138TIP3   OH257828   1.319   0.732   0.092  0.7090  0.3078 -0.3853
12138TIP3    H157829   1.309   0.803   0.154 -0.9697  0.1933 -0.4687
12138TIP3    H257830   1.343   0.774   0.010  0.5033  0.7102 -0.2405
12139TIP3   OH257831   5.135   4.970   3.062 -0.4876 -0.2133 -0.2428
12139TIP3    H157832   5.053   5.009   3.033 -1.1712  0.5285  2.4229
12139TIP3    H257833   5.110   4.903   3.125  0.9232 -1.2443 -0.7141
12140TIP3   OH257834   2.330   6.367   1.083 -0.1179 -0.3943 -0.3931
12140TIP3    H157835   2.348   6.304   1.153  0.4099 -0.9470 -1.0189
12140TIP3    H257836   2.272   6.320   1.023  0.8844 -0.5661 -1.2574
12141TIP3   OH257837   3.886   4.923   2.322  0.2687  0.2232  0.0867
12141TIP3    H157838   3.891   5.004   2.271  0.4431  0.4727  0.4913
12141TIP3    H257839   3.957   4.932   2.386 -0.5846  0.3703  1.0293
12142TIP3   OH257840   2.855   0.970   1.473 -0.2393 -0.5805 -0.0760
12142TIP3    H157841   2.805   1.042   1.512  0.3073  0.1794 -0.7467
12142TIP3    H257842   2.816   0.891   1.510 -1.8769 -0.0093 -0.5125
12143TIP3   OH257843   3.165   3.445   5.624 -0.4346 -0.0638  0.3917
12143TIP3    H157844   3.154   3.401   5.708 -0.7433 -0.3602  0.1981
12143TIP3    H257845   3.256   3.429   5.599 -0.9123 -1.8235 -0.3629
12144TIP3   OH257846   4.912   6.636   0.987  0.3510 -0.7570  0.2057
12144TIP3    H157847   4.858   6.663   0.913  0.7297 -0.0346  0.1746
12144TIP3    H257848   4.908   6.541   0.987  1.5063 -0.8712 -1.6596
12145TIP3   OH257849   1.627   3.240  12.877  0.0780  0.7154  0.1388
12145TIP3    H157850   1.592   3.151  12.874  0.2278  0.6679 -0.2895
12145TIP3    H257851   1.668   3.247  12.963 -0.5257  0.6021  0.4429
12146TIP3   OH257852   5.090   3.554   1.262  0.2996 -0.3119 -0.6116
12146TIP3    H157853   5.131   3.602   1.190 -1.9587 -0.2419 -1.9476
12146TIP3    H257854   5.060   3.472   1.222 -0.4564 -0.5418  0.3911
12147TIP3   OH257855   1.872   2.628  12.027  0.3264 -0.2483  0.1328
12147TIP3    H157856   1.937   2.692  12.056  0.5362 -0.5290  0.2833
12147TIP3    H257857   1.791   2.678  12.019  1.0350  0.6128 -2.2636
12148TIP3   OH257858   6.226   1.380   4.578  0.3060  0.2448 -0.7071
12148TIP3    H157859   6.320   1.384   4.594  0.1854 -0.3503  0.2821
12148TIP3    H257860   6.206   1.286   4.581 -0.6851  0.4607  1.5539
12149TIP3   OH257861   1.105   3.456  11.688  0.0092  0.3707 -0.2407
12149TIP3    H157862   1.051   3.378  11.678  0.7369 -0.1595 -0.1527
12149TIP3    H257863   1.043   3.528  11.692 -0.6570 -0.1627 -0.7432
12150TIP3   OH257864   1.194   1.689   3.256 -0.4861 -0.3306 -0.7045
12150TIP3    H157865   1.211   1.621   3.321  0.0474 -0.0765 -0.5737
12150TIP3    H257866   1.252   1.666   3.183  1.6784  1.4240  0.3579
12151TIP3   OH257867   5.768   2.466   4.048 -0.2394  0.7673  0.2342
12151TIP3    H157868   5.718   2.450   4.127  1.3502 -0.0524  1.1392
12151TIP3    H257869   5.857   2.483   4.079  0.0452  2.3589 -1.2817
12152TIP3   OH257870   4.376   2.217   1.683  0.3724 -0.0209  0.4495
12152TIP3    H157871   4.319   2.150   1.721  1.4015  0.7863  3.7632
12152TIP3    H257872   4.460   2.205   1.728  0.9115  2.7637  0.3708
12153TIP3   OH257873   1.997   3.586   4.564  0.0558 -0.3385 -0.3792
12153TIP3    H157874   1.983   3.529   4.641 -0.1206  1.8700  1.3284
12153TIP3    H257875   1.917   3.575   4.512  0.1306 -1.8100 -0.2292
12154TIP3   OH257876   1.277   0.998   2.810 -0.1477  0.3029  0.5261
12154TIP3    H157877   1.279   0.910   2.845 -0.4081  0.0298 -0.1291
12154TIP3    H257878   1.308   1.054   2.882 -0.8200 -0.2127  1.2319
12155TIP3   OH257879   3.003   0.600  14.186 -0.4161 -1.0334  0.4690
12155TIP3    H157880   3.065   0.655  14.233 -0.1227 -2.2249  1.5272
12155TIP3    H257881   2.956   0.553  14.254 -1.6349 -1.0723 -0.3625
12156TIP3   OH257882   4.441   6.124   0.264  0.1849  0.1386  0.1726
12156TIP3    H157883   4.439   6.194   0.330  1.6852  1.3699 -0.9965
12156TIP3    H257884   4.440   6.043   0.315 -0.9758  0.9940  1.6025
12157TIP3   OH257885   5.371   4.136  12.826 -0.3159 -0.0865  0.0218
12157TIP3    H157886   5.347   4.049  12.794 -0.3044 -0.8363  1.9145
12157TIP3    H257887   5.399   4.121  12.917  1.9534  1.5475 -0.3289
12158TIP3   OH257888   3.383   1.533   5.083 -0.1553  0.2962 -0.0419
12158TIP3    H157889   3.364   1.447   5.122  3.9885  0.1511  2.3065
12158TIP3    H257890   3.353   1.596   5.149  1.0685  0.3675  0.4664
12159TIP3   OH257891   6.283   6.681  13.880 -0.1418  0.2796 -0.1741
12159TIP3    H157892   6.324   6.603  13.843 -0.6664 -0.5076  0.8633
12159TIP3    H257893   6.249   6.728  13.804  1.8046  0.4736 -0.9728
12160TIP3   OH257894   3.551   0.758   0.357  0.2451 -0.4593 -0.3858
12160TIP3    H157895   3.543   0.851   0.380 -3.6270 -0.6909 -0.1925
12160TIP3    H257896   3.508   0.712   0.430 -0.1984 -2.2123 -1.6960
12161TIP3   OH257897   5.951   2.057   5.714 -0.8182  0.1699 -0.1021
12161TIP3    H157898   5.993   2.031   5.797  0.3739 -2.1927 -1.3239
12161TIP3    H257899   5.987   2.144   5.695  0.1555  0.0567  1.0713
12162TIP3   OH257900   2.706   1.148  11.868 -0.1908  0.2674 -0.1482
12162TIP3    H157901   2.783   1.155  11.811  0.0077  0.6963  0.1737
12162TIP3    H257902   2.742   1.119  11.952 -0.2468  1.4469  0.3002
12163TIP3   OH257903   3.918   0.954   2.596  0.9017  0.0175  0.5291
12163TIP3    H157904   3.981   0.968   2.666  0.7993  1.2671  0.3869
12163TIP3    H257905   3.851   1.021   2.610  0.7376  0.1145 -0.5962
12164TIP3   OH257906   2.388   0.464  12.515  0.2448 -0.6268  0.4008
12164TIP3    H157907   2.418   0.390  12.567 -0.9671 -0.1552  1.8386
12164TIP3    H257908   2.311   0.498  12.562  1.1103  1.9339  0.1578
12165TIP3   OH257909   0.801   4.486  15.433 -0.0020 -0.0935 -0.6722
12165TIP3    H157910   0.852   4.478  15.352 -0.2703  2.0164 -1.1100
12165TIP3    H257911   0.866   4.510  15.500 -0.1016  0.4575 -0.7690
12166TIP3   OH257912   2.178   3.066   2.877  0.0631 -0.0483  0.2130
12166TIP3    H157913   2.177   3.020   2.793 -1.8721 -0.8043  0.5876
12166TIP3    H257914   2.117   3.139   2.865 -2.9822 -2.1200  1.8805
12167TIP3   OH257915   6.386   1.889  11.182  0.2200  0.1085  0.7435
12167TIP3    H157916   6.382   1.981  11.208 -1.1951  0.2468  0.1212
12167TIP3    H257917   6.435   1.890  11.099 -2.4095  0.7467 -0.9076
12168TIP3   OH257918   2.244   1.707   0.535 -0.0901 -0.1005 -0.1619
12168TIP3    H157919   2.198   1.689   0.453 -1.7091 -3.2393  1.2435
12168TIP3    H257920   2.177   1.743   0.593  0.4008 -0.2513  0.5124
12169TIP3   OH257921   4.541   3.531   0.868 -0.7805  0.0539  0.3000
12169TIP3    H157922   4.584   3.568   0.945  0.1062 -1.2282  0.4440
12169TIP3    H257923   4.611   3.521   0.804 -1.5424  1.2499 -0.7471
12170TIP3   OH257924   4.548   2.432   3.347  0.3213 -0.0581  0.0071
12170TIP3    H157925   4.472   2.424   3.290 -0.1421  1.5940  0.3244
12170TIP3    H257926   4.619   2.458   3.289  0.5985 -1.3133 -0.2438
12171TIP3   OH257927   1.596   5.672   0.051 -0.0763  0.3378  0.6237
12171TIP3    H157928   1.559   5.595   0.007  0.1415 -0.2388  1.4264
12171TIP3    H257929   1.520   5.725   0.074 -0.1373  1.7089 -2.2218
12172TIP3   OH257930   0.214   6.386  12.332  0.4020 -0.0184 -0.3415
12172TIP3    H157931   0.285   6.355  12.388  1.4473  0.6488 -1.2542
12172TIP3    H257932   0.160   6.441  12.388  1.3900  0.5807  0.0361
12173TIP3   OH257933   4.266   2.795   4.285 -0.3705 -0.0378 -0.0607
12173TIP3    H157934   4.269   2.881   4.329 -2.0088  0.6372 -1.1652
12173TIP3    H257935   4.355   2.780   4.256  0.0578  1.0567  0.6158
12174TIP3   OH257936   5.985   2.558   5.973 -0.1516 -0.5129 -0.0949
12174TIP3    H157937   5.910   2.500   5.977  1.1778 -2.5641 -2.4500
12174TIP3    H257938   6.061   2.502   5.988  1.0636  1.1351  0.3096
12175TIP3   OH257939   3.202   1.350  12.986  0.1462  0.2236 -0.0806
12175TIP3    H157940   3.211   1.258  12.960  0.6057 -0.2408  1.5640
12175TIP3    H257941   3.246   1.354  13.071 -1.7783  1.4726  0.9175
12176TIP3   OH257942   6.056   6.387   3.491 -0.3709 -0.5395  0.0784
12176TIP3    H157943   6.087   6.450   3.425  1.2382 -2.3463 -0.9933
12176TIP3    H257944   5.961   6.396   3.488 -0.2724  0.5694 -1.3603
12177TIP3   OH257945   4.613   6.296  12.057  0.5139  0.1490 -0.2826
12177TIP3    H157946   4.550   6.285  12.128  0.5239 -1.0715 -0.4349
12177TIP3    H257947   4.698   6.281  12.097  0.6773  1.1682 -0.2111
12178TIP3   OH257948   4.203   2.960   4.077  0.0705  0.1472 -0.1916
12178TIP3    H157949   4.214   2.896   4.146  1.1080 -0.2699 -0.7268
12178TIP3    H257950   4.285   3.009   4.076  0.6135 -0.7282 -1.9851
12179TIP3   OH257951   2.270   3.452   1.121 -0.0087  0.2255  0.2362
12179TIP3    H157952   2.286   3.369   1.076  0.1850  1.3740 -1.9913
12179TIP3    H257953   2.237   3.510   1.052  2.7494  2.8778  0.9326
12180TIP3   OH257954   5.032   4.493   1.673 -0.4207 -0.3581 -0.0015
12180TIP3    H157955   5.070   4.562   1.620  0.4298 -0.4214  0.5097
12180TIP3    H257956   5.031   4.416   1.616 -1.2537  0.0265 -0.5298
12181TIP3   OH257957   5.509   5.504   5.482 -0.5610 -0.2222 -0.1124
12181TIP3    H157958   5.468   5.579   5.440  1.6784  0.6153 -0.9590
12181TIP3    H257959   5.488   5.430   5.426 -3.6270 -0.5515  1.2431
12182TIP3   OH257960   5.720   4.604   1.710 -0.4277  0.0189  0.1002
12182TIP3    H157961   5.767   4.520   1.699 -0.0685  0.2783 -0.4240
12182TIP3    H257962   5.789   4.667   1.729 -0.7594  0.1044  1.0428
12183TIP3   OH257963   5.815   2.214  13.614  0.2374  0.4245  0.6038
12183TIP3    H157964   5.779   2.303  13.623 -0.0319  0.4276 -0.4218
12183TIP3    H257965   5.788   2.186  13.527 -0.7071 -1.1297  1.3494
12184TIP3   OH257966   4.362   3.912  14.682  0.6551 -0.5664 -0.0852
12184TIP3    H157967   4.325   3.824  14.673 -2.2410  0.6174 -1.1130
12184TIP3    H257968   4.360   3.929  14.777 -0.6407 -0.9332 -0.0180
12185TIP3   OH257969   2.380   4.316   0.703  0.1766 -0.2896  0.6167
12185TIP3    H157970   2.337   4.300   0.786  0.3462  2.2391  1.2886
12185TIP3    H257971   2.468   4.348   0.726 -0.2120  1.7113 -0.3984
12186TIP3   OH257972   0.376   4.782   4.263 -0.7451 -0.2280 -0.0501
12186TIP3    H157973   0.288   4.812   4.287 -0.6010 -0.2057  0.4699
12186TIP3    H257974   0.371   4.763   4.169 -1.0685  0.6389 -0.2250
12187TIP3   OH257975   3.897   2.412   4.598  0.3812 -0.6972  0.5802
12187TIP3    H157976   3.988   2.439   4.611 -0.1593  1.3635  0.5615
12187TIP3    H257977   3.861   2.402   4.686 -0.2933  2.1966  0.7523
12188TIP3   OH257978   6.175   0.470  14.576 -0.1509  0.2560 -0.8938
12188TIP3    H157979   6.124   0.398  14.541 -1.0686  0.7010 -0.5051
12188TIP3    H257980   6.172   0.458  14.671  0.7628  0.0955 -0.8786
12189TIP3   OH257981   4.090   5.618  10.448 -0.3360  0.0046 -0.5809
12189TIP3    H157982   4.050   5.534  10.469  0.3432 -0.6016 -1.6123
12189TIP3    H257983   4.036   5.683  10.494 -1.1690 -0.9491 -0.1807
12190TIP3   OH257984   5.640   5.056   2.631  0.1901 -0.0830  0.1178
12190TIP3    H157985   5.714   5.055   2.571  0.6698 -1.6790  0.6708
12190TIP3    H257986   5.677   5.075   2.717 -0.6062  3.0797 -0.1232
12191TIP3   OH257987   3.191   1.979  12.965 -0.1440 -0.1004 -0.5161
12191TIP3    H157988   3.113   1.925  12.970 -0.9810  1.0055 -1.1598
12191TIP3    H257989   3.167   2.050  12.906  0.5533  1.5575  1.1034
12192TIP3   OH257990   2.134   1.991   3.511  0.0907 -0.3310 -0.1478
12192TIP3    H157991   2.046   2.004   3.546 -0.2344  2.2207 -1.6706
12192TIP3    H257992   2.122   1.987   3.416  1.6422  0.5563 -0.4188
12193TIP3   OH257993   1.882   3.068  12.016 -0.6348 -0.2030  0.1612
12193TIP3    H157994   1.820   3.023  12.072 -0.0847  0.6506  1.5074
12193TIP3    H257995   1.861   3.161  12.027  0.8104  0.0945  0.5858
12194TIP3   OH257996   4.243   1.375  11.830  0.1266  0.0583 -0.3758
12194TIP3    H157997   4.257   1.419  11.747 -0.5031  0.6649 -0.1654
12194TIP3    H257998   4.204   1.441  11.887 -1.2919 -0.8890 -0.2013
12195TIP3   OH257999   1.695   4.904   5.923 -0.3645 -0.3986  0.0102
12195TIP3    H158000   1.693   4.995   5.892  0.2238 -0.3017  0.2345
12195TIP3    H258001   1.624   4.898   5.986  1.5809  0.8530  2.5270
12196TIP3   OH258002   3.019   2.559   5.605  0.0742  0.2887 -0.2636
12196TIP3    H158003   3.106   2.534   5.634 -0.4172 -0.8076  0.3360
12196TIP3    H258004   2.997   2.496   5.537 -0.5181  0.1392  0.0623
12197TIP3   OH258005   5.221   6.062  12.248 -0.1668  0.3422  0.4255
12197TIP3    H158006   5.149   6.003  12.229  0.8836 -1.4724  1.7017
12197TIP3    H258007   5.282   6.050  12.175 -0.7532  1.2129 -0.2121
12198TIP3   OH258008   4.782   1.949  15.315  0.5508  0.2365  0.0207
12198TIP3    H158009   4.692   1.979  15.301  0.8382  1.3674  0.4835
12198TIP3    H258010   4.780   1.902  15.398  0.1881 -0.6671 -0.4851
12199TIP3   OH258011   3.696   3.196   0.521 -0.3769 -0.1506 -0.2975
12199TIP3    H158012   3.698   3.199   0.616  0.0228  2.5667 -0.3331
12199TIP3    H258013   3.776   3.241   0.493 -1.0573  0.1457 -1.9032
12200TIP3   OH258014   5.187   3.666   3.312 -0.2273  0.2317 -0.4693
12200TIP3    H158015   5.191   3.620   3.396 -1.0176  1.6749  0.3978
12200TIP3    H258016   5.165   3.598   3.249  0.7890 -0.9642  0.3994
12201TIP3   OH258017   6.191   6.436  14.750  0.1133 -0.0150  0.1870
12201TIP3    H158018   6.202   6.525  14.715 -0.0332 -0.4739 -1.0904
12201TIP3    H258019   6.272   6.391  14.727 -0.0224 -0.3560  0.3772
12202TIP3   OH258020   3.180   6.220   1.112 -0.3749  0.3747  0.4017
12202TIP3    H158021   3.177   6.306   1.152  0.0282  0.6280 -0.1029
12202TIP3    H258022   3.245   6.228   1.042  0.8021 -0.7240  1.2928
12203TIP3   OH258023   1.974   4.818  11.292 -0.7527  0.4501 -0.1072
12203TIP3    H158024   1.982   4.843  11.200 -1.1389  0.3110 -0.1779
12203TIP3    H258025   2.030   4.881  11.339  1.1207 -0.7375 -0.6291
12204TIP3   OH258026   4.501   1.629  10.769 -0.6073 -0.8371 -0.5637
12204TIP3    H158027   4.477   1.563  10.834 -0.8158 -0.4198 -0.2167
12204TIP3    H258028   4.443   1.613  10.695  0.4889 -2.1546 -1.2017
12205TIP3   OH258029   6.101   5.295   0.483 -0.6309  0.0789  0.1572
12205TIP3    H158030   6.138   5.358   0.422  0.0994  0.1919  0.6933
12205TIP3    H258031   6.051   5.234   0.428  1.3740 -0.8101 -0.7993
12206TIP3   OH258032   5.793   0.212   4.562  0.1612  0.4191  0.3327
12206TIP3    H158033   5.831   0.177   4.642  1.3291  0.7384 -0.0657
12206TIP3    H258034   5.716   0.261   4.591 -1.5439 -2.3779  0.9212
12207TIP3   OH258035   3.037   3.026   5.670  0.1227  0.1218 -0.0330
12207TIP3    H158036   3.112   3.085   5.677  0.1815 -0.0029  0.3733
12207TIP3    H258037   2.978   3.070   5.608  0.3312  0.4290 -0.0153
12208TIP3   OH258038   5.527   3.834   3.497 -0.0403 -0.3489 -0.2791
12208TIP3    H158039   5.552   3.752   3.539  0.5560 -0.1292 -0.1931
12208TIP3    H258040   5.431   3.830   3.492 -0.2407  0.1093  2.1185
12209TIP3   OH258041   2.663   4.697   2.103 -0.1449 -0.0760  0.0760
12209TIP3    H158042   2.741   4.644   2.086  0.5016  0.8934 -0.0680
12209TIP3    H258043   2.598   4.666   2.040  0.6499  0.1753 -0.9000
12210TIP3   OH258044   4.101   2.390   0.838 -0.3084  0.6916 -0.3018
12210TIP3    H158045   4.106   2.485   0.845  0.4118  0.5522  2.1717
12210TIP3    H258046   4.188   2.359   0.865 -0.4156 -0.6793 -1.3828
12211TIP3   OH258047   5.230   0.840   4.848 -0.8142  0.4458  0.1696
12211TIP3    H158048   5.198   0.928   4.826 -2.5972 -0.5082 -1.3298
12211TIP3    H258049   5.165   0.781   4.809  0.7271 -1.5588  0.5078
12212TIP3   OH258050   4.168   3.547   4.979  0.0981  0.3072  0.0923
12212TIP3    H158051   4.161   3.560   4.884 -1.5650 -0.8248  0.0273
12212TIP3    H258052   4.114   3.617   5.016  0.2955  0.4075  0.1923
12213TIP3   OH258053   2.050   6.607   5.033  0.0995  0.4519 -0.0412
12213TIP3    H158054   1.958   6.620   5.012  0.2740 -0.1157 -1.2273
12213TIP3    H258055   2.092   6.587   4.949  1.4102  1.2836  0.3752
12214TIP3   OH258056   0.638   1.328   0.088  0.0751  0.0480 -0.6500
12214TIP3    H158057   0.730   1.307   0.106 -0.1825 -1.0446 -0.5511
12214TIP3    H258058   0.589   1.253   0.121 -0.9108  0.8805 -0.1545
12215TIP3   OH258059   6.005   4.935   0.568  0.3512  0.4825  0.2536
12215TIP3    H158060   5.984   4.845   0.544  1.9363  0.1182  0.0966
12215TIP3    H258061   5.971   4.945   0.657 -2.4375  0.7184 -0.7291
12216TIP3   OH258062   1.298   3.205   1.551  0.6595  0.2085  0.6420
12216TIP3    H158063   1.384   3.232   1.521  0.2554  0.1847 -0.6006
12216TIP3    H258064   1.277   3.128   1.498 -0.5714  0.8534  0.1295
12217TIP3   OH258065   6.566   3.041  15.272 -0.3927  0.0164 -0.1354
12217TIP3    H158066   6.575   2.974  15.204  1.8724 -1.4175  1.4138
12217TIP3    H258067   6.480   3.024  15.311 -0.8556 -0.4271 -1.3064
12218TIP3   OH258068   0.879   0.166   5.195 -0.0342 -0.0157 -0.3370
12218TIP3    H158069   0.965   0.151   5.234 -0.2710  0.6591  0.4834
12218TIP3    H258070   0.892   0.241   5.137 -0.4607  1.3898  1.2923
12219TIP3   OH258071   1.828   2.468  16.273  0.2520 -0.1395  0.3487
12219TIP3    H158072   1.741   2.500  16.247 -0.6334 -1.6348  1.3491
12219TIP3    H258073   1.863   2.428  16.193 -0.1200  0.1466  0.0351
12220TIP3   OH258074   6.283   1.732  16.653  0.8544  0.5260 -0.5379
12220TIP3    H158075   6.283   1.737  16.557  1.2094  0.6299 -0.5308
12220TIP3    H258076   6.250   1.644  16.672  0.5420  0.5933 -0.7488
12221TIP3   OH258077   3.578   6.413  15.936  0.2330 -0.4558 -0.2499
12221TIP3    H158078   3.642   6.350  15.902 -1.0858 -2.4311  0.6836
12221TIP3    H258079   3.499   6.396  15.884 -0.1325  0.4948 -0.0130
12222TIP3   OH258080   3.270   0.504   3.799  0.4414 -0.1260 -0.3326
12222TIP3    H158081   3.343   0.449   3.827  1.0750  1.0001  0.3227
12222TIP3    H258082   3.264   0.490   3.704 -0.6360 -2.7013  0.0237
12223TIP3   OH258083   0.613   4.819   3.915 -0.0911 -0.8479 -0.8304
12223TIP3    H158084   0.545   4.770   3.961 -1.2428 -1.1947 -2.8016
12223TIP3    H258085   0.595   4.910   3.935 -0.6627 -0.9854 -0.7167
12224TIP3   OH258086   2.766   4.005   4.468  0.3519 -0.0703 -0.3908
12224TIP3    H158087   2.776   3.933   4.407 -0.6349  0.5043 -1.2663
12224TIP3    H258088   2.695   4.058   4.431 -2.3565 -1.2059  2.6554
12225TIP3   OH258089   6.507   2.704  13.523 -0.2421 -0.5317 -0.2984
12225TIP3    H158090   6.566   2.734  13.592 -2.2018  1.3473  0.6896
12225TIP3    H258091   6.475   2.785  13.483 -1.2417 -1.5252 -1.5817
12226TIP3   OH258092   3.757   4.286   4.909  0.6264 -0.0596 -0.2046
12226TIP3    H158093   3.701   4.245   4.843 -0.5671  0.2014  0.6237
12226TIP3    H258094   3.697   4.314   4.978  1.9221 -1.0583  1.4029
12227TIP3   OH258095   0.437   2.334   5.793  0.5141 -0.2093 -0.3632
12227TIP3    H158096   0.359   2.362   5.841 -0.0045  0.8678 -1.7611
12227TIP3    H258097   0.404   2.278   5.723  1.0485 -0.2413 -0.5986
12228TIP3   OH258098   4.170   2.389   4.125 -0.3501  0.3520  0.3825
12228TIP3    H158099   4.198   2.443   4.199  1.2684 -1.6041  1.2897
12228TIP3    H258100   4.181   2.445   4.048  1.1847  1.3672  1.2919
12229TIP3   OH258101   2.807   0.519  16.124 -1.1685  0.4101  0.1469
12229TIP3    H158102   2.738   0.455  16.107  0.3300 -1.6601  1.4253
12229TIP3    H258103   2.822   0.514  16.219  1.8278 -0.4746 -0.2759
12230TIP3   OH258104   5.825   3.011  16.438  0.0683 -0.1961 -0.0292
12230TIP3    H158105   5.903   2.961  16.464 -0.5043 -1.3346 -0.4317
12230TIP3    H258106   5.858   3.078  16.379  0.9602  0.4068  1.0983
12231TIP3   OH258107   1.022   3.999   1.263  0.0377  0.2027 -0.8997
12231TIP3    H158108   1.098   4.039   1.305  0.3123 -0.1834 -1.0224
12231TIP3    H258109   0.979   4.071   1.217 -1.3213  1.0470  1.5307
12232TIP3   OH258110   0.199   6.078  15.863 -0.1308  0.6334  0.0879
12232TIP3    H158111   0.150   6.142  15.914  0.3740  1.0686  0.0302
12232TIP3    H258112   0.233   6.126  15.788  0.6672  0.4231  0.3001
12233TIP3   OH258113   3.334   3.549   4.195  0.3351 -0.0207 -0.4600
12233TIP3    H158114   3.331   3.458   4.164 -1.5796  1.0000 -3.7464
12233TIP3    H258115   3.420   3.581   4.167  0.1173 -0.1956 -1.3412
12234TIP3   OH258116   1.506   0.181  10.947 -0.0152 -0.2251 -0.1842
12234TIP3    H158117   1.430   0.237  10.967  1.0328  1.4180 -0.5897
12234TIP3    H258118   1.516   0.187  10.852  0.9140 -0.0133 -0.0793
12235TIP3   OH258119   1.676   2.953  12.654  0.2611  0.7408 -0.0725
12235TIP3    H158120   1.583   2.968  12.669  0.5454  1.4977  1.1335
12235TIP3    H258121   1.687   2.858  12.653 -0.6695  0.6325 -1.3164
12236TIP3   OH258122   4.418   3.119   4.061  0.5469  0.3737  0.1251
12236TIP3    H158123   4.498   3.150   4.103 -0.5434  2.1201  1.0110
12236TIP3    H258124   4.370   3.198   4.039 -1.8793 -0.5971  1.5007
12237TIP3   OH258125   1.373   3.909   0.803 -0.3498 -0.5144 -0.1646
12237TIP3    H158126   1.295   3.964   0.797 -0.5309 -0.7330  0.2095
12237TIP3    H258127   1.427   3.952   0.869 -0.1025 -0.3049 -0.4979
12238TIP3   OH258128   6.153   1.293   5.273 -0.7344 -0.4840 -0.4529
12238TIP3    H158129   6.091   1.235   5.230  0.4314 -1.9017 -0.3012
12238TIP3    H258130   6.194   1.342   5.201 -0.8239 -0.7618 -0.6924
12239TIP3   OH258131   4.789   1.074  13.638 -0.3396 -0.4756  0.1000
12239TIP3    H158132   4.824   1.049  13.723  0.9286 -1.7939 -0.7579
12239TIP3    H258133   4.723   1.008  13.618 -1.4267  0.4511  0.5011
12240TIP3   OH258134   5.243   1.195   3.242  0.3700  0.4764  0.5733
12240TIP3    H158135   5.232   1.290   3.234 -0.1024  0.2502 -2.9169
12240TIP3    H258136   5.331   1.179   3.207  0.4479 -0.3845  1.1524
12241TIP3   OH258137   2.700   0.686  13.506 -0.3327  0.5197 -0.7183
12241TIP3    H158138   2.605   0.680  13.518 -0.3218  0.7389 -0.4999
12241TIP3    H258139   2.734   0.699  13.595 -0.1319  0.8407 -0.8389
12242TIP3   OH258140   2.308   4.411   5.619 -0.2566  0.0570  0.1966
12242TIP3    H158141   2.383   4.420   5.561 -1.2783  0.6125 -1.0737
12242TIP3    H258142   2.334   4.343   5.682  1.1517 -0.0189 -0.4395
12243TIP3   OH258143   2.892   2.715   0.335 -0.0865  0.1246 -0.3807
12243TIP3    H158144   2.797   2.703   0.325  0.0020 -0.8983 -0.1013
12243TIP3    H258145   2.927   2.627   0.337  0.6394  0.4068  1.7883
12244TIP3   OH258146   6.342   3.613   3.493 -0.2874 -0.4890  0.2896
12244TIP3    H158147   6.298   3.625   3.577 -0.6432 -1.0974  0.1979
12244TIP3    H258148   6.298   3.674   3.434  0.5143  0.5495  0.7238
12245TIP3   OH258149   0.597   1.509   4.182 -0.0701  0.6803 -0.0841
12245TIP3    H158150   0.649   1.444   4.136 -0.9958  0.4105 -0.7757
12245TIP3    H258151   0.511   1.468   4.192 -0.3808  1.4164  0.3377
12246TIP3   OH258152   5.911   5.296   1.569  0.3358 -0.1551 -0.1638
12246TIP3    H158153   5.925   5.370   1.628 -0.8360  0.2373 -0.3419
12246TIP3    H258154   5.998   5.272   1.538  0.8374  0.4234  0.7745
12247TIP3   OH258155   3.905   0.352  12.523 -0.4692 -0.0404  0.3258
12247TIP3    H158156   3.944   0.392  12.446  0.8769 -1.2370  0.3431
12247TIP3    H258157   3.972   0.292  12.556 -1.8007 -1.1129  1.2016
12248TIP3   OH258158   1.923   0.835   2.346  0.0282  0.3238 -0.4885
12248TIP3    H158159   1.964   0.904   2.293  0.9399 -1.2126 -1.8974
12248TIP3    H258160   1.982   0.822   2.419 -1.0716  2.2354  0.8455
12249TIP3   OH258161   3.592   6.387  12.937 -0.0470 -0.4292  0.3086
12249TIP3    H158162   3.644   6.457  12.898 -1.2687  1.0107  1.1987
12249TIP3    H258163   3.592   6.318  12.870 -0.1308  1.0250 -1.2637
12250TIP3   OH258164   5.367   4.115  11.428  0.1102  0.0585  0.2930
12250TIP3    H158165   5.278   4.120  11.463  0.3463 -1.6782  1.2886
12250TIP3    H258166   5.419   4.166  11.490 -0.0949  0.5762  0.0443
12251TIP3   OH258167   4.512   6.669  16.583  0.8290 -0.0152 -0.1876
12251TIP3    H158168   4.483   6.750  16.625 -1.3080 -0.3702 -0.8489
12251TIP3    H258169   4.607   6.671  16.590  0.7595  1.9314  0.9287
12252TIP3   OH258170   5.855   0.919  11.625 -0.0023  0.3324  0.7486
12252TIP3    H158171   5.826   0.836  11.587 -2.0089  1.3083  0.0032
12252TIP3    H258172   5.862   0.978  11.550 -1.6325  1.6322  1.5502
12253TIP3   OH258173   3.818   4.139  13.897  0.0698  0.8144 -0.4321
12253TIP3    H158174   3.789   4.222  13.934 -0.5505  0.6200 -0.4747
12253TIP3    H258175   3.914   4.145  13.897  0.0277  1.9626 -1.4245
12254TIP3   OH258176   4.309   5.496   5.163 -0.1721 -0.1017 -0.7326
12254TIP3    H158177   4.356   5.445   5.096  0.2741  2.6576 -2.7046
12254TIP3    H258178   4.218   5.496   5.132 -0.3962 -0.6291 -0.0920
12255TIP3   OH258179   0.450   3.554   2.962  0.2862 -0.4960  0.0081
12255TIP3    H158180   0.491   3.547   3.048  1.8564 -1.0460 -0.7466
12255TIP3    H258181   0.407   3.640   2.963  2.3729  0.6105  0.4926
12256TIP3   OH258182   3.823   2.527  17.127 -0.0871  0.6771 -0.1750
12256TIP3    H158183   3.891   2.528  17.194 -0.4670  1.1063  0.2151
12256TIP3    H258184   3.792   2.437  17.125  1.8771 -0.0290 -1.8056
12257TIP3   OH258185   2.314   2.035   5.140 -0.6848 -0.1659  0.3667
12257TIP3    H158186   2.382   2.067   5.081 -0.4063  0.7524  1.1595
12257TIP3    H258187   2.336   1.942   5.153  1.5006  0.4852  1.9822
12258TIP3   OH258188   6.672   1.122  13.488 -0.0103  0.1134 -0.6504
12258TIP3    H158189   6.653   1.040  13.443 -0.9198  0.4161 -0.8361
12258TIP3    H258190   6.751   1.104  13.539  0.6231 -0.4596 -1.7870
12259TIP3   OH258191   4.634   1.468   5.540 -0.0214 -0.4043  0.3239
12259TIP3    H158192   4.619   1.419   5.459 -0.8781 -0.1423  0.3095
12259TIP3    H258193   4.546   1.488   5.572  0.3138  0.3191  0.8158
12260TIP3   OH258194   5.154   3.926   3.137 -0.3893 -0.3738  0.3968
12260TIP3    H158195   5.207   3.847   3.134  1.5546  0.8069  1.4935
12260TIP3    H258196   5.065   3.895   3.149  0.0715 -2.4301 -1.0155
12261TIP3   OH258197   2.602   4.572  16.623 -0.4887 -0.8077 -0.4135
12261TIP3    H158198   2.647   4.535  16.700 -0.3723  0.4959  0.1629
12261TIP3    H258199   2.519   4.525  16.620  0.6229 -2.8826 -1.1795
12262TIP3   OH258200   0.670   3.801   4.742 -0.5170 -0.0672 -0.7986
12262TIP3    H158201   0.577   3.814   4.726 -0.6867  1.3349  1.0735
12262TIP3    H258202   0.675   3.777   4.835  1.0425  0.7949 -0.6350
12263TIP3   OH258203   2.094   0.811   5.269  0.0725 -0.8579 -0.0303
12263TIP3    H158204   2.069   0.902   5.255  1.2550 -0.2796  1.3159
12263TIP3    H258205   2.126   0.781   5.184 -1.2080 -0.3342 -0.7225
12264TIP3   OH258206   1.707   1.327   0.435  0.2963  0.0490  0.1034
12264TIP3    H158207   1.682   1.408   0.480  0.7223  0.2021  0.0675
12264TIP3    H258208   1.651   1.260   0.474  1.2096  0.0255  1.4460
12265TIP3   OH258209   3.606   6.262   2.557 -0.3188  0.1147 -0.4633
12265TIP3    H158210   3.591   6.343   2.606 -1.0811  0.3990 -1.1430
12265TIP3    H258211   3.628   6.197   2.624 -1.2987  0.5077  0.2635
12266TIP3   OH258212   4.918   0.974  11.604  0.1112 -0.1869  0.1316
12266TIP3    H158213   4.841   1.021  11.636 -1.4745 -0.1317 -3.2993
12266TIP3    H258214   4.913   0.982  11.509  4.3709 -0.2942 -0.2853
12267TIP3   OH258215   2.569   5.387   5.000 -0.1647 -0.1952  0.0181
12267TIP3    H158216   2.644   5.368   4.943  1.4569 -1.4310  2.3786
12267TIP3    H258217   2.553   5.480   4.988  2.0356  0.2009 -0.3301
12268TIP3   OH258218   2.996   4.845   5.560  0.6041 -0.4911 -0.3708
12268TIP3    H158219   3.055   4.840   5.635 -1.0777 -0.1820  1.0299
12268TIP3    H258220   2.991   4.755   5.528  0.7488 -0.7694  0.3707
12269TIP3   OH258221   1.337   2.749  15.644  0.2412 -0.5366  0.0487
12269TIP3    H158222   1.298   2.722  15.727  1.5723 -0.6814  0.6710
12269TIP3    H258223   1.266   2.743  15.580 -0.5368 -1.5085  0.9625
12270TIP3   OH258224   5.232   2.555   5.322  0.1105  0.3067 -0.6209
12270TIP3    H158225   5.151   2.605   5.333 -0.4743 -0.7859  0.2021
12270TIP3    H258226   5.281   2.572   5.403  0.2784  0.2167 -0.7058
12271TIP3   OH258227   3.561   0.050  14.440 -0.1716  0.3463  0.3241
12271TIP3    H158228   3.554  -0.039  14.473  1.3776  0.8530  2.2068
12271TIP3    H258229   3.472   0.084  14.441 -1.0317 -1.6040 -1.8572
12272TIP3   OH258230   4.512   0.108  15.450  0.3726  0.0855 -0.2798
12272TIP3    H158231   4.542   0.165  15.379  0.0102  0.1921 -0.3487
12272TIP3    H258232   4.591   0.061  15.477  0.6759  0.6075 -0.2321
12273TIP3   OH258233   4.172   3.050  15.145 -0.2523  0.2475  0.2171
12273TIP3    H158234   4.148   2.958  15.155  1.3506 -0.3174 -0.8568
12273TIP3    H258235   4.094   3.090  15.105 -1.5973 -0.2335  2.2177
12274TIP3   OH258236   3.394   2.731  11.289  0.0594 -0.5321  0.0620
12274TIP3    H158237   3.447   2.738  11.210  0.0968 -0.7112  0.0711
12274TIP3    H258238   3.308   2.763  11.263 -0.5209 -2.5138 -0.6256
12275TIP3   OH258239   5.570   3.267   2.570 -0.1910  0.1928 -0.0883
12275TIP3    H158240   5.583   3.332   2.501  0.7446  1.0618  0.8825
12275TIP3    H258241   5.659   3.239   2.593 -0.5649 -1.5638 -0.5784
12276TIP3   OH258242   0.750   3.227   4.581  0.0882 -1.1127  0.8367
12276TIP3    H158243   0.829   3.179   4.558  0.5235  0.1478 -0.4983
12276TIP3    H258244   0.773   3.275   4.661  1.1937  0.3189 -0.2862
12277TIP3   OH258245   3.986   0.196  16.330 -0.3830  0.4849  0.4973
12277TIP3    H158246   4.076   0.184  16.359 -0.3632 -1.1368 -0.1401
12277TIP3    H258247   3.932   0.179  16.407 -0.1626  1.4097  0.8646
12278TIP3   OH258248   3.447   1.773  16.129 -0.3620  0.4308 -0.2132
12278TIP3    H158249   3.410   1.737  16.048  0.9170 -0.3320 -0.4876
12278TIP3    H258250   3.433   1.704  16.194  0.8950 -0.0309 -0.4162
12279TIP3   OH258251   5.026   6.278  14.147 -0.3714 -0.5781  0.5463
12279TIP3    H158252   5.094   6.221  14.110  0.0084  0.0135  0.3241
12279TIP3    H258253   5.067   6.364  14.152 -1.3859 -0.0058 -0.4285
12280TIP3   OH258254   3.268   2.022  13.547  0.3487  0.1980  0.1007
12280TIP3    H158255   3.191   2.035  13.603 -0.3569 -0.1447 -0.7532
12280TIP3    H258256   3.319   1.954  13.590 -0.4073 -0.3747  0.1074
12281TIP3   OH258257   4.423   2.167   5.104  0.2002 -0.1176  0.0444
12281TIP3    H158258   4.390   2.230   5.039  0.3933  0.1724  0.2239
12281TIP3    H258259   4.512   2.197   5.123 -0.1272  0.2642  1.0250
12282TIP3   OH258260   3.914   3.535  14.553  0.0200 -0.5894 -0.1845
12282TIP3    H158261   3.977   3.607  14.553 -1.3200  0.8335  3.4003
12282TIP3    H258262   3.961   3.462  14.592 -0.2047  0.2209  1.7098
12283TIP3   OH258263   0.447   0.166   0.522 -0.2760  0.2701  0.3704
12283TIP3    H158264   0.448   0.138   0.613 -0.4417  0.2425  0.3658
12283TIP3    H258265   0.362   0.134   0.489 -0.4754  0.7912  0.3695
12284TIP3   OH258266   2.073   4.602   0.963  0.3466  0.0518  0.6428
12284TIP3    H158267   2.126   4.587   1.042 -0.1253  1.1107  1.1850
12284TIP3    H258268   2.108   4.540   0.899  0.5785 -1.0126  1.7542
12285TIP3   OH258269   4.303   0.147   1.840  1.1219  0.5969 -0.0759
12285TIP3    H158270   4.385   0.104   1.815  1.2608  0.9429 -0.2245
12285TIP3    H258271   4.240   0.120   1.773  0.4769 -1.5909  1.3345
12286TIP3   OH258272   4.302   6.316  12.184  0.3446  0.0172  0.2110
12286TIP3    H158273   4.313   6.406  12.153 -3.1427  0.3294 -0.5575
12286TIP3    H258274   4.282   6.266  12.105 -0.7875 -0.7889  0.9836
12287TIP3   OH258275   1.508   3.003  13.008  0.7673 -0.0731  0.9645
12287TIP3    H158276   1.491   3.042  13.094 -4.5368  2.7229 -0.9102
12287TIP3    H258277   1.447   2.930  13.002 -0.5807  1.1283 -1.0668
12288TIP3   OH258278   5.459   6.795  13.987 -0.7058  0.2139 -0.2131
12288TIP3    H158279   5.417   6.868  14.033  1.1464  1.7148 -0.7912
12288TIP3    H258280   5.526   6.764  14.048  0.6860  1.1669 -1.1988
12289TIP3   OH258281   4.801   0.028  13.687  0.5441  0.0478 -0.5618
12289TIP3    H158282   4.765   0.112  13.660  2.0501  1.0580  0.3657
12289TIP3    H258283   4.770   0.016  13.777  1.4797  0.3606 -0.1741
12290TIP3   OH258284   0.842   4.497  14.376 -0.1231  0.1932  0.1340
12290TIP3    H158285   0.811   4.534  14.294  1.5160  2.6970  0.5251
12290TIP3    H258286   0.839   4.569  14.439  2.4755 -0.4681  1.1873
12291TIP3   OH258287   4.064   4.004  15.128 -0.5409 -0.3553 -0.3944
12291TIP3    H158288   3.980   3.960  15.142  0.3914 -2.4569 -0.9733
12291TIP3    H258289   4.098   4.020  15.215 -1.5114  0.5408 -0.1517
12292TIP3   OH258290   2.475   3.093   2.793 -0.2359 -0.0593 -0.4610
12292TIP3    H158291   2.388   3.093   2.833 -0.3818 -0.4511 -0.7761
12292TIP3    H258292   2.535   3.082   2.867 -0.5114 -0.9516 -0.3597
12293TIP3   OH258293   6.080   3.452  14.158  0.3847 -0.2027  0.4888
12293TIP3    H158294   6.037   3.400  14.089 -0.9533 -0.2679  1.3209
12293TIP3    H258295   6.158   3.403  14.180  0.8028 -0.2196 -0.9229
12294TIP3   OH258296   6.159   5.828   5.140  0.3666 -0.2640 -0.1328
12294TIP3    H158297   6.216   5.800   5.069  1.6248  2.4556 -0.3172
12294TIP3    H258298   6.210   5.893   5.188 -1.7552  0.6223  1.0857
12295TIP3   OH258299   1.133   4.845   1.468  0.3946 -0.2717  0.2366
12295TIP3    H158300   1.157   4.938   1.460 -0.3319 -0.2219 -2.7604
12295TIP3    H258301   1.100   4.836   1.557  0.3134  2.3819  0.5650
12296TIP3   OH258302   3.203   3.737  11.694 -0.0767  0.4749 -0.3651
12296TIP3    H158303   3.276   3.727  11.633  0.3223 -2.3946  0.4088
12296TIP3    H258304   3.162   3.819  11.670 -0.0873 -0.5863 -4.6459
12297TIP3   OH258305   4.515   0.324  16.103  0.3154  0.3721  0.4369
12297TIP3    H158306   4.461   0.397  16.133  0.6918  0.4786  0.8729
12297TIP3    H258307   4.465   0.284  16.032 -0.8069 -0.1588  1.4972
12298TIP3   OH258308   4.680   4.686  12.624  0.0554 -0.9936 -0.0068
12298TIP3    H158309   4.742   4.668  12.553  0.6183  1.0466 -0.0788
12298TIP3    H258310   4.653   4.599  12.655  0.9754 -1.9173 -1.6786
12299TIP3   OH258311   1.091   3.514   5.221 -0.4566  0.1317  0.3966
12299TIP3    H158312   1.089   3.510   5.317 -1.0336  2.1210  0.5070
12299TIP3    H258313   1.011   3.559   5.197 -0.8086 -1.2196 -1.1271
12300TIP3   OH258314   0.273   2.505   3.556  0.2622  0.1255 -0.0187
12300TIP3    H158315   0.253   2.466   3.642 -0.4558 -0.6245 -0.5058
12300TIP3    H258316   0.365   2.482   3.541  0.2091 -0.3040  0.2665
12301TIP3   OH258317   1.583   6.471  12.267 -0.4814  0.5225  0.0100
12301TIP3    H158318   1.624   6.392  12.229 -2.0387 -0.6157  0.5972
12301TIP3    H258319   1.636   6.489  12.345 -0.5140 -0.3718  0.2571
12302TIP3   OH258320   2.757   3.163  16.177  0.1699 -0.1502  0.5745
12302TIP3    H158321   2.768   3.173  16.082  0.3681  1.0475  0.7107
12302TIP3    H258322   2.683   3.220  16.199  1.5829  1.4109  1.4671
12303TIP3   OH258323   1.116   6.795  12.079  0.1990  0.1292  0.2747
12303TIP3    H158324   1.056   6.813  12.151  1.9476  2.4490  1.2639
12303TIP3    H258325   1.127   6.879  12.035  2.9008 -0.1229  0.3126
12304TIP3   OH258326   2.725   6.533  12.596  0.0672  0.4990 -0.3794
12304TIP3    H158327   2.797   6.527  12.533 -0.0861  1.5722 -0.6779
12304TIP3    H258328   2.696   6.624  12.590  0.3286  0.7398  1.5640
12305TIP3   OH258329   0.479   1.862   3.082  0.4998 -0.4612 -0.5747
12305TIP3    H158330   0.521   1.856   2.996 -0.2901  0.8776 -1.0844
12305TIP3    H258331   0.479   1.772   3.115 -1.2483 -1.4550 -2.9818
12306TIP3   OH258332   4.795   6.371  15.089 -0.1906 -0.1402 -0.1810
12306TIP3    H158333   4.847   6.448  15.113 -1.2727  0.9513 -1.1742
12306TIP3    H258334   4.859   6.303  15.069  0.9440  1.4214 -2.2373
12307TIP3   OH258335   4.002   2.640  11.943  0.1929 -0.0283  0.1140
12307TIP3    H158336   4.097   2.632  11.954  0.5238  1.5000 -1.1200
12307TIP3    H258337   3.972   2.681  12.023  0.7205  0.2502  0.1773
12308TIP3   OH258338   4.505   6.449   5.321 -0.3651  0.6305  0.1119
12308TIP3    H158339   4.465   6.430   5.236  0.6773  2.2946 -0.8216
12308TIP3    H258340   4.444   6.509   5.363 -0.8302 -0.1108  0.5146
12309TIP3   OH258341   2.627   5.928  14.795  0.1109 -0.3216  0.1955
12309TIP3    H158342   2.650   6.020  14.785  0.1457 -0.3883 -0.3694
12309TIP3    H258343   2.544   5.919  14.748  1.2470 -1.0634 -1.7852
12310TIP3   OH258344   6.559   4.600  17.249  0.6221  0.8801 -0.0300
12310TIP3    H158345   6.654   4.609  17.256  0.7672  0.6671 -1.5038
12310TIP3    H258346   6.539   4.621  17.158 -0.6520  0.1107  0.0479
12311TIP3   OH258347   4.960   1.139  12.550 -0.2144  0.3630  0.7142
12311TIP3    H158348   4.970   1.177  12.462 -1.5636  0.7794  0.7084
12311TIP3    H258349   4.973   1.045  12.537  2.2780  0.6613  0.5715
12312TIP3   OH258350   1.892   6.632  12.004 -0.3120 -0.0417 -0.4796
12312TIP3    H158351   1.932   6.693  12.066  0.0990  0.6550 -1.3969
12312TIP3    H258352   1.927   6.659  11.919 -0.5281 -1.2441 -0.9659
12313TIP3   OH258353   3.822   5.184   2.208  0.4385 -0.2463 -0.6460
12313TIP3    H158354   3.792   5.190   2.299  1.4395 -2.2649 -0.1180
12313TIP3    H258355   3.757   5.234   2.158 -1.3221 -0.7987  0.9499
12314TIP3   OH258356   6.018   2.915  15.858 -0.7539 -0.4897  0.3315
12314TIP3    H158357   6.106   2.950  15.842 -0.3300 -1.6036  0.1445
12314TIP3    H258358   6.029   2.852  15.929 -0.7449 -3.0470 -1.7653
12315TIP3   OH258359   0.066   4.237   1.676  0.1555 -0.1722  0.5807
12315TIP3    H158360   0.097   4.290   1.749  1.3670  0.0243 -0.0361
12315TIP3    H258361   0.145   4.220   1.625 -0.7593  0.2415 -1.0325
12316TIP3   OH258362   1.657   4.306  12.823 -0.0162 -0.4565 -0.3152
12316TIP3    H158363   1.730   4.326  12.882 -0.6514  1.1589 -0.0149
12316TIP3    H258364   1.683   4.227  12.777  1.1338 -0.9229  1.0976
12317TIP3   OH258365   6.050   4.085   0.151  0.0184  0.1483  0.3627
12317TIP3    H158366   6.064   4.135   0.070  0.0926 -1.0836 -0.4054
12317TIP3    H258367   5.975   4.128   0.193 -1.5273 -0.5667 -1.5220
12318TIP3   OH258368   4.369   4.348   6.357 -0.0719  0.7937 -0.0965
12318TIP3    H158369   4.292   4.395   6.391 -0.5129 -1.4183  2.2568
12318TIP3    H258370   4.421   4.328   6.434  0.5159 -1.7616 -1.0441
12319TIP3   OH258371   0.518   3.275  13.039 -0.4962  0.2495  0.0534
12319TIP3    H158372   0.573   3.239  13.108 -1.3710  0.7504  1.0502
12319TIP3    H258373   0.542   3.226  12.960  2.5184  1.5477  0.0484
12320TIP3   OH258374   0.465   5.011  15.037 -0.8697 -0.1767  0.6572
12320TIP3    H158375   0.505   5.085  14.993  0.2414 -1.5607 -0.7546
12320TIP3    H258376   0.374   5.011  15.007 -0.0466 -1.3227 -2.0717
12321TIP3   OH258377   5.329   0.789   3.941 -0.1958 -0.1194  0.3416
12321TIP3    H158378   5.401   0.730   3.917 -0.0995 -0.0216  0.3869
12321TIP3    H258379   5.353   0.821   4.028  1.6779  2.8913 -1.0980
12322TIP3   OH258380   4.674   1.683  12.854  0.4063  0.5694  0.6129
12322TIP3    H158381   4.732   1.680  12.778  1.6165  0.6708  1.5105
12322TIP3    H258382   4.682   1.597  12.895  1.4092  1.1899  1.7939
12323TIP3   OH258383   6.062   6.456   2.282 -0.4277 -0.1133  0.0865
12323TIP3    H158384   6.047   6.524   2.216  0.0131 -1.5571 -1.5939
12323TIP3    H258385   5.977   6.415   2.294 -0.2308 -0.8194 -0.7680
12324TIP3   OH258386   3.391   4.166  13.830  0.2973  0.3280  0.3458
12324TIP3    H158387   3.379   4.107  13.755  0.8555  1.1842 -0.4352
12324TIP3    H258388   3.361   4.114  13.905 -0.0554 -0.6364 -0.4237
12325TIP3   OH258389   5.627   4.440   2.995 -0.3634 -0.0930  0.7721
12325TIP3    H158390   5.719   4.451   2.971 -1.3234  3.2238 -2.0715
12325TIP3    H258391   5.594   4.376   2.932 -0.7772  1.5869 -0.7831
12326TIP3   OH258392   3.299   1.641   0.731  0.3556 -0.0824 -0.2628
12326TIP3    H158393   3.245   1.669   0.804 -0.3916  0.5946 -1.0594
12326TIP3    H258394   3.247   1.661   0.653  1.9529  1.0763 -1.0811
12327TIP3   OH258395   1.392   5.494   3.485 -0.0582  0.3421 -0.0682
12327TIP3    H158396   1.420   5.442   3.410 -1.8189 -3.0095  1.3958
12327TIP3    H258397   1.327   5.554   3.450 -0.4371 -0.7775 -1.3372
12328TIP3   OH258398   5.897   5.913  11.406 -0.0449  0.0553  0.3725
12328TIP3    H158399   5.940   5.828  11.412  0.0420  0.1226  0.7671
12328TIP3    H258400   5.965   5.974  11.379  0.3449  0.3247  1.8566
12329TIP3   OH258401   0.177   6.813  14.972  0.5873  0.1363  0.3350
12329TIP3    H158402   0.227   6.798  14.892  0.3382 -0.2574  0.2500
12329TIP3    H258403   0.184   6.907  14.988  1.4417  0.0712  0.3827
12330TIP3   OH258404   5.201   3.970  12.104 -0.0471 -0.3612  0.0779
12330TIP3    H158405   5.203   3.912  12.180 -1.5880 -1.2298 -0.5064
12330TIP3    H258406   5.162   3.917  12.035 -0.3156  0.9834 -0.8308
12331TIP3   OH258407   2.831   6.488   3.901 -0.2561  0.6084 -0.2735
12331TIP3    H158408   2.742   6.510   3.874  0.1421  1.6012 -0.8285
12331TIP3    H258409   2.860   6.423   3.837 -0.1104  1.2889 -0.9097
12332TIP3   OH258410   6.405   0.522  12.077 -0.7859 -0.2182 -0.4108
12332TIP3    H158411   6.372   0.460  12.012  0.1963 -1.8336  0.5377
12332TIP3    H258412   6.495   0.492  12.094 -0.1017  1.8046 -0.2773
12333TIP3   OH258413   2.659   3.714   0.656  0.0742 -0.0792 -0.2994
12333TIP3    H158414   2.631   3.794   0.701  1.3982 -0.8696  2.1045
12333TIP3    H258415   2.742   3.739   0.613  0.0820  0.0446 -0.2149
12334TIP3   OH258416   2.950   6.469  14.884 -1.1579  0.4539  0.7782
12334TIP3    H158417   2.889   6.444  14.814  1.3482 -1.6192 -0.8786
12334TIP3    H258418   2.986   6.552  14.855  1.3601 -1.3182 -1.6855
12335TIP3   OH258419   1.472   0.601  13.862  0.6642  0.5003 -0.5180
12335TIP3    H158420   1.567   0.588  13.868  0.8389  0.4225 -2.6644
12335TIP3    H258421   1.443   0.533  13.801 -0.6812  0.9393 -0.3932
12336TIP3   OH258422   0.187   3.967  16.429 -0.3639 -0.9338  0.8331
12336TIP3    H158423   0.120   3.974  16.362  0.5157 -0.2140 -0.0106
12336TIP3    H258424   0.255   3.912  16.390  1.2522  1.4337  0.1427
12337TIP3   OH258425   5.295   5.780   2.965 -0.0576  1.0297 -0.1103
12337TIP3    H158426   5.208   5.744   2.980  0.5281 -0.8140 -0.8199
12337TIP3    H258427   5.338   5.777   3.051 -0.7384  2.1962  0.2968
12338TIP3   OH258428   1.647   3.214  16.958  0.0706  0.0082 -0.7216
12338TIP3    H158429   1.645   3.214  17.054 -0.0415 -3.8087 -0.5440
12338TIP3    H258430   1.735   3.245  16.936 -0.2888  2.0316  0.5049
12339TIP3   OH258431   4.337   6.161  10.936 -0.2664 -0.0203  0.2263
12339TIP3    H158432   4.363   6.253  10.926  0.1519 -0.1787 -0.1807
12339TIP3    H258433   4.322   6.150  11.030 -1.0153  0.6447  0.1945
12340TIP3   OH258434   2.255   5.686  15.731  0.3341  0.7741 -0.0495
12340TIP3    H158435   2.189   5.675  15.664  1.2297 -0.9427 -0.6974
12340TIP3    H258436   2.338   5.664  15.688  1.1180  1.1293  1.2047
12341TIP3   OH258437   2.862   4.165  12.486  0.1920 -0.0554 -0.2973
12341TIP3    H158438   2.896   4.078  12.464  1.8365  0.9510 -2.0528
12341TIP3    H258439   2.768   4.152  12.498  0.3981 -2.0578 -0.5314
12342TIP3   OH258440   6.655   3.742   0.405  0.1008  0.0713  0.2060
12342TIP3    H158441   6.625   3.796   0.332 -0.8085 -1.5521 -0.6931
12342TIP3    H258442   6.588   3.674   0.414  1.6453 -1.4701  0.6433
12343TIP3   OH258443   5.004   1.941   3.547  0.2988  0.4537 -0.5526
12343TIP3    H158444   5.023   1.965   3.638 -0.5154  0.0319 -0.2662
12343TIP3    H258445   4.925   1.990   3.526  0.2694  0.2511 -0.9112
12344TIP3   OH258446   6.287   5.074   1.444 -0.2102 -0.1335 -0.0271
12344TIP3    H158447   6.367   5.075   1.497  1.3916 -1.8499 -2.2622
12344TIP3    H258448   6.297   5.149   1.385  0.0706 -0.7004 -0.7114
12345TIP3   OH258449   4.004   2.115   3.284 -0.4139 -0.0858  0.1687
12345TIP3    H158450   4.067   2.121   3.357 -0.0518  0.4724 -0.1847
12345TIP3    H258451   4.015   2.026   3.251 -0.7365 -0.4210  0.9314
12346TIP3   OH258452   3.906   0.752  11.728  0.2532 -0.2209  0.1560
12346TIP3    H158453   3.820   0.736  11.767 -0.2280 -0.0420 -0.8132
12346TIP3    H258454   3.889   0.761  11.635  1.5136 -1.6449 -0.2548
12347TIP3   OH258455   4.962   3.053  13.887  0.1081  0.3960 -0.2142
12347TIP3    H158456   4.909   3.010  13.954 -0.2483  4.3329  2.3612
12347TIP3    H258457   5.042   3.079  13.931  1.2068  0.5968 -2.1826
12348TIP3   OH258458   3.149   5.984   1.898 -0.2516  0.3660  0.1415
12348TIP3    H158459   3.209   5.991   1.973  1.9490 -0.9812 -1.3459
12348TIP3    H258460   3.127   6.074   1.877  0.3923  0.8553  1.4040
12349TIP3   OH258461   4.025   5.340  16.164 -0.0548 -0.2216 -0.3278
12349TIP3    H158462   3.985   5.411  16.214  0.6757  0.3505 -0.5357
12349TIP3    H258463   3.975   5.262  16.188  0.9315 -0.1624  2.1076
12350TIP3   OH258464   4.706   3.205  16.315 -0.4381  0.1797  1.1065
12350TIP3    H158465   4.778   3.212  16.252 -1.9276  0.2211 -0.6828
12350TIP3    H258466   4.676   3.114  16.306 -1.2349  0.4370  1.1020
12351TIP3   OH258467   5.916   6.182  15.774  0.0548  0.3028 -0.1995
12351TIP3    H158468   5.900   6.198  15.681 -0.4008 -1.0956 -0.3923
12351TIP3    H258469   5.944   6.266  15.809 -0.5321  1.0402 -1.4399
12352TIP3   OH258470   6.674   0.174  15.318 -0.1924  0.2038 -0.1233
12352TIP3    H158471   6.654   0.189  15.410  0.0925  1.3196 -0.2297
12352TIP3    H258472   6.598   0.126  15.285 -2.1373  3.0596 -0.1613
12353TIP3   OH258473   1.999   6.607  14.889 -0.6722  0.0690  0.2143
12353TIP3    H158474   1.948   6.563  14.821  0.9326 -0.6544 -0.5751
12353TIP3    H258475   1.960   6.694  14.896 -1.6295 -0.2595 -0.7613
12354TIP3   OH258476   5.883   5.864   2.405 -0.0923  0.0313  0.0867
12354TIP3    H158477   5.929   5.941   2.372  0.2556 -0.4659 -0.5936
12354TIP3    H258478   5.948   5.794   2.404 -0.7124 -0.5503 -0.3746
12355TIP3   OH258479   5.953   6.150  14.454 -0.3997  0.0136  0.5937
12355TIP3    H158480   5.972   6.238  14.422  1.3632 -0.8931 -1.1178
12355TIP3    H258481   5.998   6.145  14.539 -0.1404  0.6329  0.4976
12356TIP3   OH258482   5.150   3.764  11.916 -0.4766 -0.2318 -0.3996
12356TIP3    H158483   5.220   3.702  11.896  1.0569  1.2162  0.2383
12356TIP3    H258484   5.145   3.819  11.838 -0.7925 -0.2246 -0.3739
12357TIP3   OH258485   2.945   1.370  12.073  0.2876 -0.0208 -0.0875
12357TIP3    H158486   3.008   1.398  12.007 -0.4428 -0.8378 -1.1658
12357TIP3    H258487   2.981   1.402  12.156  1.2171  1.0319 -0.8727
12358TIP3   OH258488   4.765   3.292   1.886  0.1067 -0.0299  0.1057
12358TIP3    H158489   4.704   3.254   1.950 -0.0117  1.6842  1.0933
12358TIP3    H258490   4.733   3.262   1.801 -0.3844 -1.4874  0.7678
12359TIP3   OH258491   4.354   4.643  14.304  0.6925 -0.1016 -0.2547
12359TIP3    H158492   4.395   4.703  14.242  0.6621  0.5739  0.3732
12359TIP3    H258493   4.427   4.592  14.340  0.7510 -0.2461 -0.5714
12360TIP3   OH258494   4.126   4.744   3.218  0.0910 -0.0072  0.6790
12360TIP3    H158495   4.038   4.705   3.212  0.1329 -0.0825  0.5590
12360TIP3    H258496   4.168   4.720   3.136 -0.0847  0.7944  0.3493
12361TIP3   OH258497   4.284   0.527   3.886  0.7137  0.4709 -0.0865
12361TIP3    H158498   4.273   0.447   3.835  2.2032  1.5368 -2.2159
12361TIP3    H258499   4.199   0.542   3.927  0.8910 -3.1911  1.9896
12362TIP3   OH258500   2.781   1.349  15.767  0.0608  0.2602 -0.1525
12362TIP3    H158501   2.796   1.440  15.741 -1.5267  0.0574 -1.9941
12362TIP3    H258502   2.725   1.355  15.844  0.8741  0.8224  0.4157
12363TIP3   OH258503   5.674   4.421   0.448 -0.5638 -0.7558  0.3591
12363TIP3    H158504   5.646   4.476   0.521 -0.3417  0.2711 -0.3153
12363TIP3    H258505   5.608   4.352   0.443 -0.6770 -0.7449  1.4084
12364TIP3   OH258506   0.700   3.394   2.651  0.2121  0.2085  0.5044
12364TIP3    H158507   0.640   3.343   2.706  0.1800 -0.2961  0.0095
12364TIP3    H258508   0.645   3.460   2.610  0.0380 -0.0928  0.2489
12365TIP3   OH258509   0.405   5.850   3.323  0.3561 -0.2463 -0.2251
12365TIP3    H158510   0.323   5.845   3.274  0.3756  0.9058 -0.3971
12365TIP3    H258511   0.416   5.943   3.342  1.6457 -0.3778 -0.2506
12366TIP3   OH258512   1.426   2.041   5.484 -0.1896  0.0117  0.4682
12366TIP3    H158513   1.372   2.033   5.563  0.7770 -1.0765  1.0639
12366TIP3    H258514   1.399   2.123   5.444 -1.8943 -0.2367  1.0239
12367TIP3   OH258515   4.309   5.813   5.273  0.7228  0.5838  0.5460
12367TIP3    H158516   4.362   5.734   5.282 -1.2965 -1.3067 -2.3593
12367TIP3    H258517   4.348   5.859   5.199  0.8168  1.4126  1.1015
12368TIP3   OH258518   0.686   0.660   3.971  0.1570  0.1207 -0.2149
12368TIP3    H158519   0.645   0.577   3.996  0.5997 -0.9154 -2.6501
12368TIP3    H258520   0.687   0.711   4.052  0.4938 -2.4866  1.5602
12369TIP3   OH258521   3.274   2.852  16.706 -0.3234 -0.2179 -0.1643
12369TIP3    H158522   3.273   2.845  16.802 -3.2493  0.2590 -0.0787
12369TIP3    H258523   3.246   2.942  16.689  0.0976 -0.3228 -1.4905
12370TIP3   OH258524   0.983   6.426  12.619 -0.2452  0.1697  0.0431
12370TIP3    H158525   0.981   6.415  12.524 -1.8237  3.0633 -0.3897
12370TIP3    H258526   1.005   6.340  12.653 -2.3282 -1.6552 -2.8268
12371TIP3   OH258527   1.455   1.376   5.245  0.2070 -0.3593 -0.1303
12371TIP3    H158528   1.517   1.312   5.210  2.0356 -0.2124  2.5408
12371TIP3    H258529   1.390   1.323   5.290  0.7777 -0.4179  0.6426
12372TIP3   OH258530   4.973   2.599  16.622  0.0887 -0.3186 -0.3475
12372TIP3    H158531   5.035   2.528  16.638  0.1306 -0.1600  0.2077
12372TIP3    H258532   5.028   2.678  16.617 -0.1103 -0.0863  0.7815
12373TIP3   OH258533   3.784   2.068  15.433  0.3828 -0.4429 -0.2214
12373TIP3    H158534   3.758   2.035  15.347  3.2146 -0.6057 -1.1176
12373TIP3    H258535   3.851   2.007  15.462  2.8290  2.1530 -0.0490
12374TIP3   OH258536   1.057   2.227  13.181  0.3704 -0.6751  0.1569
12374TIP3    H158537   1.080   2.243  13.090  1.3854 -0.5075  0.4281
12374TIP3    H258538   1.047   2.314  13.219 -1.1110 -0.7417 -0.0343
12375TIP3   OH258539   2.634   2.313   0.713  0.2727  0.0015  0.5062
12375TIP3    H158540   2.644   2.365   0.792  0.1666 -0.6885  0.9855
12375TIP3    H258541   2.604   2.227   0.745 -2.3951  0.4711 -0.4243
12376TIP3   OH258542   3.019   4.062  14.493 -0.0828 -0.2605  0.0990
12376TIP3    H158543   2.989   4.153  14.495  0.1562 -0.1820  0.0593
12376TIP3    H258544   2.990   4.028  14.408  2.4378  0.6584 -1.2192
12377TIP3   OH258545   6.131   1.372  14.736 -0.5505 -0.2260 -0.0666
12377TIP3    H158546   6.131   1.343  14.827 -0.1926  0.2483  0.0825
12377TIP3    H258547   6.221   1.398  14.718 -1.1535  2.4376  0.3264
12378TIP3   OH258548   0.536   1.303   5.921  0.2037  0.2278  0.0643
12378TIP3    H158549   0.612   1.353   5.895  0.3231  0.8016  1.4595
12378TIP3    H258550   0.505   1.263   5.839  0.6609  1.7799 -0.9159
12379TIP3   OH258551   5.737   1.050   4.012  0.1814 -0.0243 -0.5352
12379TIP3    H158552   5.755   1.067   3.919  2.7650  0.2419 -0.0574
12379TIP3    H258553   5.788   1.116   4.058 -1.6212  0.3025  1.1081
12380TIP3   OH258554   1.429   2.627  13.440 -0.0036  0.5020  0.2910
12380TIP3    H158555   1.392   2.560  13.382 -0.9530  0.6138  0.7580
12380TIP3    H258556   1.359   2.690  13.452  0.9401  1.6992 -0.2886
12381TIP3   OH258557   0.721   1.372  14.899  0.1686 -0.1536 -0.4541
12381TIP3    H158558   0.630   1.373  14.870 -0.0331 -3.6082 -0.2705
12381TIP3    H258559   0.765   1.311  14.839  2.6906  2.1506 -1.1706
12382TIP3   OH258560   6.091   1.873  16.816  0.2673  0.3498  0.2103
12382TIP3    H158561   6.095   1.968  16.828 -1.6931  0.4204  0.6956
12382TIP3    H258562   6.180   1.848  16.793  0.5720  2.4785 -1.2685
12383TIP3   OH258563   1.320   4.184   1.127 -0.1317  0.3543 -0.3072
12383TIP3    H158564   1.346   4.276   1.118 -0.3179  0.5591  1.0538
12383TIP3    H258565   1.322   4.168   1.221 -1.8478 -0.5115 -0.3764
12384TIP3   OH258566   1.251   4.084  16.084  1.0590  0.2255 -0.5705
12384TIP3    H158567   1.159   4.108  16.097  0.9426 -0.9252  1.0726
12384TIP3    H258568   1.249   3.989  16.072  2.1612 -0.1366  1.6273
12385TIP3   OH258569   6.673   4.405   2.335 -0.5463 -0.3712 -0.5669
12385TIP3    H158570   6.758   4.433   2.369 -0.6804 -0.6786  0.0380
12385TIP3    H258571   6.673   4.310   2.346 -0.8853 -0.3945 -0.7623
12386TIP3   OH258572   6.540   5.651  11.836 -0.0489 -0.0392  0.1133
12386TIP3    H158573   6.591   5.584  11.883 -0.3130 -0.0832  0.3383
12386TIP3    H258574   6.577   5.734  11.865 -0.9693 -0.0247  1.2934
12387TIP3   OH258575   0.519   4.395   2.907 -0.4295  0.5559 -0.2776
12387TIP3    H158576   0.536   4.470   2.851  0.8908 -0.3537 -1.1618
12387TIP3    H258577   0.487   4.327   2.848  1.3712 -0.5513 -0.0643
12388TIP3   OH258578   5.148   2.935   5.804 -0.0429 -0.1941  0.2987
12388TIP3    H158579   5.214   2.945   5.872  0.3425  0.4500 -0.1532
12388TIP3    H258580   5.092   2.864   5.835 -0.2011  0.4368  1.5498
12389TIP3   OH258581   3.638   1.079   2.212 -0.1324 -0.8786  0.4496
12389TIP3    H158582   3.566   1.111   2.158 -0.9064 -1.3835  1.1527
12389TIP3    H258583   3.706   1.146   2.204 -0.5413 -0.5645 -0.5025
12390TIP3   OH258584   0.377   4.156  12.481 -0.8351 -0.2920  0.3805
12390TIP3    H158585   0.469   4.145  12.508 -0.9711 -1.3234  0.4844
12390TIP3    H258586   0.377   4.130  12.388 -1.2277 -1.4992  0.7029
12391TIP3   OH258587   6.635   1.690  14.968  0.3666 -0.0654 -0.1487
12391TIP3    H158588   6.697   1.753  14.930  0.5164  0.2430  0.5801
12391TIP3    H258589   6.653   1.693  15.062 -2.3503  1.8639  0.4448
12392TIP3   OH258590   0.892   2.637  15.537 -0.2097  0.0371 -0.7610
12392TIP3    H158591   0.799   2.656  15.530 -0.0772  0.9444 -0.2391
12392TIP3    H258592   0.915   2.595  15.454 -0.9698  0.2933 -1.1092
12393TIP3   OH258593   6.114   3.481   0.825  0.4820 -0.2708  0.0326
12393TIP3    H158594   6.184   3.430   0.866 -0.6610 -1.2737  0.8451
12393TIP3    H258595   6.103   3.442   0.738  2.5143  1.4764 -1.0968
12394TIP3   OH258596   6.584   0.010  15.985  0.2144 -0.0479 -0.0338
12394TIP3    H158597   6.488   0.012  15.981  0.1110 -0.6807  1.3641
12394TIP3    H258598   6.609   0.101  16.000 -0.4270 -0.2176  2.7379
12395TIP3   OH258599   4.455   6.329   0.449  0.1526 -0.9867  0.5665
12395TIP3    H158600   4.420   6.417   0.462  3.3915  0.9011 -1.8954
12395TIP3    H258601   4.513   6.315   0.523 -0.4195 -1.1084  0.9980
12396TIP3   OH258602   2.098   0.221  16.448 -0.4581 -0.2235 -0.4342
12396TIP3    H158603   2.018   0.171  16.463 -1.2323  0.8814 -0.7459
12396TIP3    H258604   2.077   0.309  16.480 -0.2350  0.7221 -2.6964
12397TIP3   OH258605   5.928   2.129  12.451 -0.4032 -0.2599 -0.7554
12397TIP3    H158606   5.838   2.143  12.421 -0.6061 -1.3779 -0.7154
12397TIP3    H258607   5.982   2.177  12.388 -0.9974  0.0257 -1.0561
12398TIP3   OH258608   6.175   0.970  12.704  0.9526  0.0479  0.2509
12398TIP3    H158609   6.190   1.013  12.619  1.6222 -0.9994 -0.1817
12398TIP3    H258610   6.213   1.029  12.768  0.6615  0.7374 -0.1923
12399TIP3   OH258611   3.414   4.923  16.996 -0.0756  0.5203 -0.5509
12399TIP3    H158612   3.369   4.990  17.047  1.3852 -0.3097  2.0421
12399TIP3    H258613   3.507   4.945  17.004  0.4882 -1.8841  0.7008
12400TIP3   OH258614   5.168   5.111   0.907  0.0693 -0.4799 -0.1845
12400TIP3    H158615   5.194   5.039   0.964  1.7810  0.6222  0.5106
12400TIP3    H258616   5.199   5.085   0.820  1.3458 -0.3089  0.1913
12401TIP3   OH258617   3.539   6.313   0.331 -0.7969 -0.0487 -0.5315
12401TIP3    H158618   3.555   6.398   0.373 -4.3290 -1.1610  3.8735
12401TIP3    H258619   3.505   6.335   0.244 -0.3612  2.9610 -0.0359
12402TIP3   OH258620   0.917   3.039  10.854 -0.1969  0.2645 -1.0617
12402TIP3    H158621   0.823   3.050  10.863  0.1044  1.5949  1.9228
12402TIP3    H258622   0.930   2.945  10.840 -1.9614  0.1970 -2.4694
12403TIP3   OH258623   1.300   6.436   5.673 -0.2096  0.5392 -0.0421
12403TIP3    H158624   1.324   6.429   5.766  0.6211 -1.5146 -0.3505
12403TIP3    H258625   1.382   6.423   5.626 -0.7877  0.5237 -1.0747
12404TIP3   OH258626   0.957   3.732  16.531  0.0212 -0.2288  0.1016
12404TIP3    H158627   1.052   3.725  16.517  0.1351 -0.9662  1.1418
12404TIP3    H258628   0.940   3.676  16.607 -1.3563 -0.6515 -0.4945
12405TIP3   OH258629   1.320   6.329   0.441 -0.8632 -0.0358 -0.4956
12405TIP3    H158630   1.371   6.321   0.522 -2.3015 -0.8635  0.3610
12405TIP3    H258631   1.283   6.241   0.428  0.3797 -0.2966 -2.7847
12406TIP3   OH258632   0.799   2.929   4.647 -0.0958  0.2462 -0.1119
12406TIP3    H158633   0.795   2.994   4.718  1.0982  1.2291 -0.9068
12406TIP3    H258634   0.859   2.862   4.680  1.4385  1.3113 -0.6267
12407TIP3   OH258635   1.398   5.988  12.405 -0.0643 -0.7493 -0.0708
12407TIP3    H158636   1.358   6.073  12.384  0.7176 -0.2052  0.5982
12407TIP3    H258637   1.384   5.977  12.499 -0.1082 -1.3425 -0.1404
12408TIP3   OH258638   0.000   0.793   0.106  0.3790  0.2222  0.0928
12408TIP3    H158639   0.083   0.838   0.125  0.0227  0.4114  1.2657
12408TIP3    H258640  -0.004   0.723   0.171 -1.0359  1.0814  0.9700
12409TIP3   OH258641   5.492   4.042   1.021 -0.1488 -0.0330  0.1047
12409TIP3    H158642   5.532   4.092   1.092 -0.5119 -0.1053  0.3685
12409TIP3    H258643   5.537   4.071   0.942  0.4678 -0.1716  0.3983
12410TIP3   OH258644   4.626   5.165  16.765 -0.2050 -0.4666 -0.4376
12410TIP3    H158645   4.670   5.100  16.820 -2.3768 -0.9935  0.7519
12410TIP3    H258646   4.649   5.249  16.805 -0.5995 -0.7570  0.4105
12411TIP3   OH258647   3.810   5.674   0.679 -0.4490  0.6488 -0.4555
12411TIP3    H158648   3.719   5.674   0.650 -1.3198 -0.4326  2.0369
12411TIP3    H258649   3.817   5.748   0.739 -0.1656 -0.2014  0.6014
12412TIP3   OH258650   6.318   6.150  12.846 -0.1788  0.8465 -0.1316
12412TIP3    H158651   6.315   6.136  12.941  1.2587  0.4386 -0.1158
12412TIP3    H258652   6.236   6.113  12.813 -0.1545 -0.1115  0.8307
12413TIP3   OH258653   5.088   4.775   0.244  0.1134  0.0952  0.2698
12413TIP3    H158654   5.044   4.806   0.165 -1.3466 -0.9053  0.6468
12413TIP3    H258655   5.165   4.831   0.252 -0.6196  1.3369 -0.9119
12414TIP3   OH258656   1.719   1.121   3.432 -0.2529 -0.2911  0.3163
12414TIP3    H158657   1.807   1.123   3.470  0.5701  0.0522 -1.4684
12414TIP3    H258658   1.715   1.201   3.380 -2.2745  0.5385  1.6461
12415TIP3   OH258659   5.361   4.247  16.745 -0.0242  0.1280 -0.6820
12415TIP3    H158660   5.325   4.329  16.713 -0.9538  1.0478  2.4194
12415TIP3    H258661   5.450   4.244  16.708 -0.5153  1.6929 -2.1259
12416TIP3   OH258662   3.197   0.207   0.684 -0.5546  0.0130 -0.2255
12416TIP3    H158663   3.144   0.170   0.614  0.2290 -1.6010  0.0091
12416TIP3    H258664   3.161   0.295   0.697 -1.2443  0.0427 -2.0720
12417TIP3   OH258665   4.606   4.270  14.166  1.0935 -0.3910  0.0307
12417TIP3    H158666   4.646   4.185  14.149 -0.0342 -0.9287 -0.0484
12417TIP3    H258667   4.517   4.262  14.130  1.5451  1.4510 -1.7235
12418TIP3   OH258668   2.220   1.927   5.511 -0.4361 -0.3083  0.2635
12418TIP3    H158669   2.242   2.005   5.562 -0.0677  0.3845 -0.9192
12418TIP3    H258670   2.304   1.893   5.481 -0.6965 -0.1608 -0.6508
12419TIP3   OH258671   6.555   2.704  13.078 -0.1740  0.1067 -0.3415
12419TIP3    H158672   6.540   2.640  13.148 -1.9850 -1.6792 -2.2365
12419TIP3    H258673   6.531   2.787  13.117 -3.5234 -1.1394  0.5433
12420TIP3   OH258674   5.056   1.103   1.251  0.1857 -0.1296  0.2139
12420TIP3    H158675   5.114   1.028   1.254  0.0553 -0.3774 -1.9921
12420TIP3    H258676   5.089   1.162   1.319  0.0975 -2.2669  2.2016
12421TIP3   OH258677   2.366   2.416   0.605 -0.2402  0.4364 -0.1372
12421TIP3    H158678   2.446   2.379   0.644 -0.4529  0.3796  0.2483
12421TIP3    H258679   2.303   2.344   0.609 -0.5746  0.7509  0.3662
12422TIP3   OH258680   3.694   6.536   3.002 -0.3754  0.9224  0.4205
12422TIP3    H158681   3.626   6.591   3.041 -1.3797  0.1410 -0.1671
12422TIP3    H258682   3.774   6.588   3.009 -1.2953  2.4935 -0.1778
12423TIP3   OH258683   5.457   5.922   5.690  0.4841  0.6221  0.1291
12423TIP3    H158684   5.402   5.986   5.735  0.4198  1.4706 -1.1090
12423TIP3    H258685   5.546   5.945   5.716  0.3319 -0.2585  1.5105
12424TIP3   OH258686   1.747   0.037  16.960 -0.1747 -0.2783 -0.6228
12424TIP3    H158687   1.696  -0.018  16.900 -2.0684  1.6708 -0.9634
12424TIP3    H258688   1.779   0.109  16.905  1.5810 -0.5875 -0.0622
12425TIP3   OH258689   2.101   1.021  17.225 -0.0670 -0.1625 -0.0598
12425TIP3    H158690   2.079   1.034  17.133  1.0518  0.2763 -0.2800
12425TIP3    H258691   2.176   1.078  17.240  1.2573 -1.9614  0.5047
12426TIP3   OH258692   0.905   1.354   0.010 -0.1040 -0.4477  0.3810
12426TIP3    H158693   0.973   1.291  -0.016  0.7428  0.8778 -0.7152
12426TIP3    H258694   0.944   1.404   0.082  0.6631  1.2094 -1.1156
12427TIP3   OH258695   6.427   4.241   5.403 -0.4791 -0.0098 -0.0914
12427TIP3    H158696   6.345   4.289   5.419 -0.7606 -0.7209  0.6809
12427TIP3    H258697   6.401   4.160   5.361  0.0782  0.8294 -2.2053
12428TIP3   OH258698   6.813   1.952  15.158  0.5999  0.1719  0.1802
12428TIP3    H158699   6.735   1.991  15.118  0.3487 -0.7777 -0.2927
12428TIP3    H258700   6.787   1.862  15.177  2.1418 -0.7366 -1.6912
12429TIP3   OH258701   3.528   1.905   5.313  0.3800  0.2770 -0.4862
12429TIP3    H158702   3.609   1.867   5.282  1.7724  2.8154 -0.2306
12429TIP3    H258703   3.496   1.958   5.240  0.5729  1.6483  0.3915
12430TIP3   OH258704   5.968   3.004  13.634  0.3341 -0.3879  0.2632
12430TIP3    H158705   5.928   3.018  13.549 -1.4376  1.2383  1.2858
12430TIP3    H258706   6.060   3.027  13.622  0.0982 -0.1255 -1.1794
12431TIP3   OH258707   0.153   2.377   1.920  0.0381  0.7489  0.1676
12431TIP3    H158708   0.209   2.304   1.946  0.1857  1.1407  0.9872
12431TIP3    H258709   0.206   2.455   1.934  0.2612  0.9825 -1.7063
12432TIP3   OH258710   3.204   0.749   5.837  0.2001  0.1394 -0.4462
12432TIP3    H158711   3.212   0.813   5.908  0.4730 -0.2489 -0.1283
12432TIP3    H258712   3.212   0.664   5.880 -0.0024 -0.1082 -0.8922
12433TIP3   OH258713   2.017   0.601  13.407  0.4686 -0.2956 -0.1744
12433TIP3    H158714   1.964   0.593  13.327  1.3379 -0.2001 -0.7761
12433TIP3    H258715   2.020   0.695  13.424 -3.0870 -0.4128  2.3420
12434TIP3   OH258716   4.168   2.122  15.181  0.4138  0.2516 -0.2491
12434TIP3    H158717   4.183   2.181  15.106  1.0853 -1.4844 -1.5546
12434TIP3    H258718   4.103   2.060  15.149 -1.5522  1.2105  1.6813
12435TIP3   OH258719   4.120   6.418  14.854 -0.0010 -0.4249  0.3201
12435TIP3    H158720   4.116   6.368  14.772 -0.4619 -0.0044  0.0867
12435TIP3    H258721   4.151   6.354  14.919  1.2363 -0.5352 -0.3501
12436TIP3   OH258722   2.624   5.342   4.694  0.0829 -0.4867  0.2603
12436TIP3    H158723   2.561   5.384   4.636  0.5614 -0.4130 -0.2221
12436TIP3    H258724   2.709   5.370   4.661  0.3562  0.2216  1.5211
12437TIP3   OH258725   4.773   6.643  11.521 -0.2601 -0.1006 -0.3489
12437TIP3    H158726   4.859   6.677  11.497 -0.3212  0.2568 -0.0806
12437TIP3    H258727   4.784   6.611  11.611  0.2159 -2.3033 -1.1312
12438TIP3   OH258728   5.800   2.513   5.159  0.2998  0.0883 -0.1647
12438TIP3    H158729   5.803   2.539   5.067  2.1404  0.4849 -0.0322
12438TIP3    H258730   5.713   2.540   5.188 -0.2706  0.0823 -1.7368
12439TIP3   OH258731   5.436   5.017   2.090  0.7505 -0.6675  0.0982
12439TIP3    H158732   5.403   4.953   2.027 -1.0549 -1.4597  1.7610
12439TIP3    H258733   5.379   5.093   2.079  0.6634 -0.6700  0.5355
12440TIP3   OH258734   3.022   6.325   4.713  0.5989 -0.3321  0.0792
12440TIP3    H158735   2.945   6.344   4.768  2.1815 -0.1898  2.4041
12440TIP3    H258736   3.014   6.231   4.694  0.6258 -0.7073  1.6990
12441TIP3   OH258737   4.919   2.698  11.808 -0.2707 -0.6504  0.0763
12441TIP3    H158738   4.840   2.705  11.861  0.0592 -2.5171  0.8990
12441TIP3    H258739   4.902   2.751  11.731 -3.1950 -2.6132 -0.7970
12442TIP3   OH258740   4.293   5.552  11.385  0.7038  0.6244 -0.0325
12442TIP3    H158741   4.380   5.532  11.350 -0.6584 -2.7555 -1.8628
12442TIP3    H258742   4.244   5.586  11.311 -0.9526 -2.5242 -0.5675
12443TIP3   OH258743   1.565   1.865   1.831  0.8259 -0.0635  0.3954
12443TIP3    H158744   1.556   1.935   1.765 -1.6967  0.6453  1.3768
12443TIP3    H258745   1.526   1.902   1.910  0.3546 -2.2320  1.2418
12444TIP3   OH258746   0.628   2.198  12.048  0.6864  0.1521 -0.2449
12444TIP3    H158747   0.590   2.147  12.119 -3.3969  2.1255 -0.7476
12444TIP3    H258748   0.613   2.145  11.970  3.2918 -1.0753 -0.0091
12445TIP3   OH258749   0.209   1.658  11.891  0.3592  0.0407  0.4607
12445TIP3    H158750   0.176   1.597  11.826  1.5367  2.3402 -2.5100
12445TIP3    H258751   0.162   1.636  11.971 -0.6113 -3.4494 -0.9087
12446TIP3   OH258752   4.224   1.381   0.552  0.0049 -0.3048 -0.1264
12446TIP3    H158753   4.185   1.467   0.559 -0.5290 -0.4081 -1.4900
12446TIP3    H258754   4.150   1.321   0.546  0.3624 -0.9380  1.3859
12447TIP3   OH258755   6.262   1.834   4.617  0.2345  0.2239  0.0755
12447TIP3    H158756   6.192   1.871   4.670  0.4495 -0.0387  0.5521
12447TIP3    H258757   6.218   1.804   4.538 -0.0702  0.7462  0.0388
12448TIP3   OH258758   2.887   0.454   5.937  0.2453 -0.8700  0.5884
12448TIP3    H158759   2.848   0.429   6.020  0.4374 -1.3991  0.5268
12448TIP3    H258760   2.980   0.432   5.946  0.7851  1.3684  1.1274
12449TIP3   OH258761   4.831   5.389  11.358 -0.2329 -0.1179 -0.2996
12449TIP3    H158762   4.795   5.447  11.290  1.2421  2.2339  0.7884
12449TIP3    H258763   4.923   5.378  11.333  0.4842  1.2530  1.5063
12450TIP3   OH258764   1.351   6.209   2.995 -0.0788  0.3667  0.0582
12450TIP3    H158765   1.416   6.145   2.966  2.6506  2.0890  1.8285
12450TIP3    H258766   1.350   6.275   2.926 -0.6321 -0.0744 -0.3659
12451TIP3   OH258767   4.820   2.020  14.740  0.3611  0.4248  0.5241
12451TIP3    H158768   4.800   1.981  14.825 -0.9962 -0.5321 -0.1953
12451TIP3    H258769   4.853   1.947  14.687 -0.3946  0.6334 -0.2634
12452TIP3   OH258770   1.236   1.791  11.925  0.1053 -0.5649  0.0493
12452TIP3    H158771   1.319   1.744  11.935  0.3191  0.0675  1.5056
12452TIP3    H258772   1.173   1.723  11.902  0.8348 -1.2217 -0.0378
12453TIP3   OH258773   6.739   5.502  12.508  0.2581  0.6505 -0.0129
12453TIP3    H158774   6.773   5.465  12.590  1.3588  0.0397 -0.7174
12453TIP3    H258775   6.658   5.454  12.492  0.8923 -0.4148 -0.1203
12454TIP3   OH258776   2.333   4.122  15.281  0.0325 -0.4043  0.3230
12454TIP3    H158777   2.391   4.045  15.277 -1.4390 -1.5278 -0.8444
12454TIP3    H258778   2.258   4.093  15.333 -0.2513  0.4697  0.4201
12455TIP3   OH258779   6.091   2.258   5.551 -0.4549  0.3843 -0.4247
12455TIP3    H158780   6.072   2.308   5.472 -1.5112 -0.2502 -0.5873
12455TIP3    H258781   6.184   2.234   5.543 -0.6783 -0.1049 -1.7065
12456TIP3   OH258782   6.035   6.042  13.992 -0.0875  0.1895  0.1826
12456TIP3    H158783   6.041   6.128  14.034  1.0036  1.0110 -1.5593
12456TIP3    H258784   6.071   6.055  13.904 -0.5562 -1.8941 -0.3798
12457TIP3   OH258785   5.199   3.950  17.204 -0.4607  0.2109  0.5162
12457TIP3    H158786   5.232   3.975  17.118 -0.9631 -1.4713 -0.2123
12457TIP3    H258787   5.108   3.924  17.188 -0.9435  1.0314  1.7844
12458TIP3   OH258788   0.013   6.732  14.083 -0.2133  0.2741 -0.8305
12458TIP3    H158789  -0.009   6.740  14.176 -1.2136 -0.0620 -1.0196
12458TIP3    H258790   0.100   6.693  14.082  0.1320  0.9937 -0.0296
12459TIP3   OH258791   3.648   0.912   3.396  0.1602  0.4893 -0.6646
12459TIP3    H158792   3.654   0.940   3.488  0.9252  0.3456 -0.6632
12459TIP3    H258793   3.721   0.957   3.353 -0.6418  1.1380 -1.3629
12460TIP3   OH258794   1.747   5.166  12.851 -0.6379  0.1610  0.2987
12460TIP3    H158795   1.829   5.159  12.901 -1.7055  0.2923  2.1440
12460TIP3    H258796   1.683   5.118  12.904 -2.2852  2.0326  0.0872
12461TIP3   OH258797   6.219   1.480   0.292 -0.1102 -0.3331 -0.1383
12461TIP3    H158798   6.170   1.403   0.263  1.2931 -1.0056 -0.8361
12461TIP3    H258799   6.201   1.546   0.225 -1.1964 -0.0733  0.3819
12462TIP3   OH258800   5.765   1.658   2.601 -0.1237  0.5899  0.3685
12462TIP3    H158801   5.847   1.680   2.646 -0.5746 -0.5876  1.8485
12462TIP3    H258802   5.782   1.574   2.560 -1.0612 -0.5454  2.1555
12463TIP3   OH258803   2.948   1.709   4.761 -0.2329 -0.0623  0.0658
12463TIP3    H158804   3.001   1.635   4.731 -1.4080 -0.6819 -0.5651
12463TIP3    H258805   2.859   1.688   4.731 -0.9054  0.7688  1.3909
12464TIP3   OH258806   0.880   6.571   2.175 -0.2942 -0.6183 -0.9061
12464TIP3    H158807   0.877   6.618   2.258  1.4341  0.9442 -1.6566
12464TIP3    H258808   0.789   6.547   2.158 -0.6761 -1.1248  1.4676
12465TIP3   OH258809   1.960   1.245  12.507 -0.1513  0.0843 -0.2846
12465TIP3    H158810   2.019   1.217  12.437 -0.0266  1.1410 -0.6148
12465TIP3    H258811   1.991   1.332  12.531 -0.2114 -0.2442  1.0749
12466TIP3   OH258812   0.499   5.160  16.480 -0.0301  0.0792  0.0764
12466TIP3    H158813   0.421   5.205  16.513  1.6432  2.5068  1.0592
12466TIP3    H258814   0.499   5.177  16.386 -1.6400 -1.6596 -0.3061
12467TIP3   OH258815   1.051   4.866  16.565  0.6340  0.0381 -0.2353
12467TIP3    H158816   0.964   4.853  16.529  0.8396  0.0734 -0.7561
12467TIP3    H258817   1.101   4.791  16.532 -0.3001 -2.6541  3.7451
12468TIP3   OH258818   3.304   1.399  10.489 -0.0425 -0.2518  0.2986
12468TIP3    H158819   3.351   1.339  10.547 -0.8682  0.5039  1.8241
12468TIP3    H258820   3.212   1.378  10.503 -0.2617 -1.3055 -2.1980
12469TIP3   OH258821   0.719   2.162  16.116  0.2583  0.3820  0.3798
12469TIP3    H158822   0.645   2.210  16.078 -1.7106 -0.5763  2.7482
12469TIP3    H258823   0.745   2.100  16.048 -1.6702  0.2110 -0.2681
12470TIP3   OH258824   1.000   6.062  15.232 -0.9137  0.2016 -0.1672
12470TIP3    H158825   1.047   6.123  15.288 -1.3616  0.6825 -0.3051
12470TIP3    H258826   1.010   6.097  15.144 -0.9497 -0.0697 -0.2796
12471TIP3   OH258827   2.646   6.202  16.686  0.2768  0.0469 -0.0798
12471TIP3    H158828   2.733   6.232  16.659  0.0824 -0.0288 -0.8165
12471TIP3    H258829   2.664   6.139  16.756  0.8460 -0.2887 -0.5167
12472TIP3   OH258830   2.878   3.310   0.161  0.1949  0.5850 -0.1621
12472TIP3    H158831   2.922   3.309   0.246  0.4017  3.3611 -0.1324
12472TIP3    H258832   2.914   3.234   0.115  0.9228 -0.3292  1.7858
12473TIP3   OH258833   6.795   1.953   3.878  0.3719 -0.1244 -0.0260
12473TIP3    H158834   6.715   1.954   3.825  0.1706  2.0024  0.2230
12473TIP3    H258835   6.803   2.043   3.910  1.6986 -0.8183  1.7387
12474TIP3   OH258836   4.829   6.233  17.124 -0.4089 -0.4316 -0.3767
12474TIP3    H158837   4.745   6.230  17.077 -0.1901 -2.0739 -0.7553
12474TIP3    H258838   4.882   6.166  17.080  0.1164 -1.4132  1.6563
12475TIP3   OH258839   6.209   0.366   3.537  0.1613 -0.1636  0.1286
12475TIP3    H158840   6.159   0.437   3.577  0.9610 -0.3556  1.5354
12475TIP3    H258841   6.185   0.369   3.445  0.5941  2.2890  0.0358
12476TIP3   OH258842   5.815   1.373  16.789  0.2138 -0.4548 -0.3621
12476TIP3    H158843   5.767   1.291  16.797  0.1459 -0.2846  1.2529
12476TIP3    H258844   5.880   1.356  16.721 -0.4132 -1.5249 -0.7220
12477TIP3   OH258845   1.710   3.221   5.909 -0.0370  0.4854  0.1794
12477TIP3    H158846   1.679   3.271   5.985 -1.6594  0.2567 -0.2970
12477TIP3    H258847   1.761   3.149   5.948 -1.6105 -0.1719  1.1497
12478TIP3   OH258848   0.005   6.735  16.899  0.2974 -0.0302  0.2773
12478TIP3    H158849  -0.082   6.708  16.868 -1.4387  2.3369  2.5925
12478TIP3    H258850   0.009   6.828  16.877  2.2012 -0.0500  0.4110
12479TIP3   OH258851   6.540   3.401   5.581 -0.2038 -0.5309  0.0797
12479TIP3    H158852   6.556   3.368   5.669  0.8275 -0.5642 -0.1001
12479TIP3    H258853   6.451   3.374   5.561 -0.5171 -0.3495  1.1859
12480TIP3   OH258854   1.948   1.416  13.514 -0.4499  0.3498 -0.1835
12480TIP3    H158855   1.870   1.436  13.567 -1.7800 -1.9201 -1.1320
12480TIP3    H258856   1.920   1.430  13.424  0.4154  0.0456 -0.5088
12481TIP3   OH258857   4.165   2.793   0.968  0.0767 -0.4396  0.2591
12481TIP3    H158858   4.253   2.811   1.002 -0.0662 -0.7840  0.8360
12481TIP3    H258859   4.178   2.720   0.907  0.3420  0.2096 -0.4723
12482TIP3   OH258860   3.222   2.962   0.546  0.1129 -0.1861  0.4919
12482TIP3    H158861   3.279   2.979   0.471 -0.2646 -2.0964 -0.2645
12482TIP3    H258862   3.133   2.966   0.511 -0.0610 -1.2296  0.7874
12483TIP3   OH258863   0.372   2.771  13.741  0.5654 -0.6274 -0.4323
12483TIP3    H158864   0.370   2.764  13.836 -0.1238 -0.3468 -0.4255
12483TIP3    H258865   0.392   2.863  13.724  0.5549 -0.6486 -0.5618
12484TIP3   OH258866   1.738   6.759   2.116  0.4433 -0.0906  0.0102
12484TIP3    H158867   1.671   6.801   2.061  1.2305  0.1455 -0.7874
12484TIP3    H258868   1.694   6.744   2.200 -0.6787 -0.1281 -0.5578
12485TIP3   OH258869   4.989   3.939  13.440  0.8169 -0.1496  0.3983
12485TIP3    H158870   4.994   3.869  13.505  0.1171 -2.7703 -2.2135
12485TIP3    H258871   5.076   3.979  13.441  0.4261  0.9918  3.9017
12486TIP3   OH258872   3.376   0.993  14.327  0.3393  0.1361 -0.1581
12486TIP3    H158873   3.394   1.070  14.381  0.7719 -0.3341  0.3904
12486TIP3    H258874   3.284   0.974  14.343  0.1113  0.7899 -0.6405
12487TIP3   OH258875   0.092   2.178  14.763 -0.3235 -0.1101 -0.3278
12487TIP3    H158876  -0.001   2.200  14.752  0.1755  2.2998 -0.4024
12487TIP3    H258877   0.130   2.194  14.676  0.4338  0.6383  0.1276
12488TIP3   OH258878   0.070   6.072  14.330  0.1169 -0.4072 -0.3652
12488TIP3    H158879   0.062   6.145  14.269  0.1240 -0.2107 -0.1333
12488TIP3    H258880   0.027   6.103  14.410 -2.2441 -1.5980 -1.0798
12489TIP3   OH258881   1.795   3.458  17.155  0.6832 -0.3078  0.4924
12489TIP3    H158882   1.853   3.424  17.223  1.3285  0.1734  0.1971
12489TIP3    H258883   1.834   3.429  17.073  0.4200 -0.1114  0.2956
12490TIP3   OH258884   4.837   4.231  15.946 -0.1613 -0.4221  0.3515
12490TIP3    H158885   4.839   4.142  15.982  1.7523 -0.9740 -0.9590
12490TIP3    H258886   4.840   4.218  15.851  0.0908  1.0503  0.1360
12491TIP3   OH258887   3.091   5.826  16.459  0.3135 -0.4338  0.0079
12491TIP3    H158888   3.184   5.848  16.463  0.2328 -0.2084  1.2239
12491TIP3    H258889   3.061   5.864  16.377  1.1996 -0.1002 -0.1784
12492TIP3   OH258890   0.877   0.335  16.332  1.0563 -0.0027 -0.9757
12492TIP3    H158891   0.882   0.254  16.281 -1.6492 -0.3296 -0.8601
12492TIP3    H258892   0.883   0.306  16.423  1.7541  0.1392 -0.9681
12493TIP3   OH258893   5.435   3.712  12.507  0.4211 -0.5595 -0.0509
12493TIP3    H158894   5.480   3.758  12.579  0.7639 -1.2706  0.2028
12493TIP3    H258895   5.361   3.668  12.549  1.1804 -1.7826  0.0716
12494TIP3   OH258896   0.555   6.194   5.878 -0.0742 -0.3155 -0.2017
12494TIP3    H158897   0.503   6.204   5.958  0.5914 -0.0693  0.2087
12494TIP3    H258898   0.577   6.101   5.875 -0.2204 -0.3515 -0.1804
12495TIP3   OH258899   1.734   6.322   0.227  0.0828 -0.3970 -0.6233
12495TIP3    H158900   1.813   6.327   0.173  0.1347  0.0006 -0.5178
12495TIP3    H258901   1.766   6.341   0.316 -0.5127  2.6276 -0.9254
12496TIP3   OH258902   3.545   6.125  14.620 -0.2182  0.0190  0.2695
12496TIP3    H158903   3.460   6.154  14.654 -0.3059  1.7062 -1.2516
12496TIP3    H258904   3.529   6.109  14.527  1.7483  3.5775 -0.8580
12497TIP3   OH258905   0.038   0.555   0.815 -0.5492  0.2265 -0.3136
12497TIP3    H158906   0.080   0.640   0.798 -0.9354  0.4080 -0.3879
12497TIP3    H258907   0.001   0.564   0.903  1.3256 -0.6620  0.6105
12498TIP3   OH258908   6.519   2.254   4.199  0.5542 -0.2088  0.2191
12498TIP3    H158909   6.458   2.316   4.239 -0.5021 -0.2810 -1.2142
12498TIP3    H258910   6.605   2.285   4.227 -0.0617 -1.5823  4.4975
12499TIP3   OH258911   3.387   2.046  13.819  0.0813  0.0801 -0.0378
12499TIP3    H158912   3.469   2.053  13.770  0.7661 -0.7845  0.9259
12499TIP3    H258913   3.397   1.965  13.870 -1.5817 -0.3006 -0.2747
12500TIP3   OH258914   1.789   1.660   5.247 -0.6207 -0.1825 -0.3692
12500TIP3    H158915   1.826   1.584   5.202 -2.0034 -1.1480  0.0354
12500TIP3    H258916   1.863   1.719   5.260  0.8782 -2.1754  0.7581
12501TIP3   OH258917   2.022   2.196   5.465 -0.3153  0.1821  0.2453
12501TIP3    H158918   2.098   2.198   5.523 -0.0850 -1.3861  0.0566
12501TIP3    H258919   2.038   2.265   5.401  1.4979 -0.7696 -0.4109
12502TIP3   OH258920   5.810   0.026   5.828  0.0738  0.2976  0.3361
12502TIP3    H158921   5.898   0.052   5.854  0.4873 -0.1666 -0.5306
12502TIP3    H258922   5.811  -0.070   5.832 -0.0477  0.2406 -0.7015
12503TIP3   OH258923   5.621   0.441   6.022  0.1571 -0.5205  0.0614
12503TIP3    H158924   5.639   0.510   5.958  0.2329 -0.4243  0.1878
12503TIP3    H258925   5.553   0.478   6.078 -1.5564 -1.4234 -1.3196
12504TIP3   OH258926   3.820   0.858   4.309 -0.5950  0.4277  0.1781
12504TIP3    H158927   3.757   0.862   4.237  0.5396 -0.2777 -0.8907
12504TIP3    H258928   3.829   0.764   4.328  1.2018  0.3777 -0.7023
12505TIP3   OH258929   4.919   2.525   2.607  0.0521  0.0089  0.2914
12505TIP3    H158930   4.901   2.557   2.696  2.5421 -1.7483  1.5416
12505TIP3    H258931   5.013   2.537   2.596  0.1162 -1.6625 -1.3285
12506TIP3   OH258932   6.345   6.260   3.388 -0.3873 -0.2989  0.5401
12506TIP3    H158933   6.380   6.348   3.399  0.2258 -0.3070 -1.0947
12506TIP3    H258934   6.389   6.208   3.455  0.4784  0.3206  0.4708
12507TIP3   OH258935   4.678   0.649  14.707 -0.3001 -0.4902  0.3598
12507TIP3    H158936   4.733   0.679  14.635 -0.5841  0.2121  0.4296
12507TIP3    H258937   4.589   0.653  14.673 -0.4415 -0.1077  0.7585
12508TIP3   OH258938   5.498   2.819   5.003 -0.1715 -0.0136  0.1773
12508TIP3    H158939   5.511   2.900   5.054  0.0133  0.1031 -0.0519
12508TIP3    H258940   5.585   2.798   4.969 -0.3635  0.1531 -0.4483
12509TIP3   OH258941   0.636   3.792   0.208 -0.7806 -0.3038 -0.3415
12509TIP3    H158942   0.640   3.875   0.256 -1.2564 -0.4814  0.0106
12509TIP3    H258943   0.704   3.738   0.250 -0.6092 -0.1666 -0.4380
12510TIP3   OH258944   3.697   6.417   1.771 -0.4704  0.1522 -0.2997
12510TIP3    H158945   3.763   6.353   1.797 -0.8661 -0.3821 -0.6143
12510TIP3    H258946   3.662   6.450   1.854 -0.4483 -0.2269 -0.1385
12511TIP3   OH258947   4.911   3.719   4.916  0.2173 -0.5044  0.4503
12511TIP3    H158948   4.949   3.721   5.003  0.1513  0.8777  0.4733
12511TIP3    H258949   4.876   3.808   4.903 -2.3805 -1.4795  0.1610
12512TIP3   OH258950   2.742   6.486   4.766  0.4423 -0.0314 -0.0618
12512TIP3    H158951   2.710   6.416   4.823 -0.7679 -0.3150 -1.0319
12512TIP3    H258952   2.786   6.547   4.825  1.5520 -1.6022  0.7951
12513TIP3   OH258953   1.706   3.858   3.548  0.1307  0.2209 -0.4884
12513TIP3    H158954   1.755   3.924   3.499 -0.0268 -0.1035 -1.0940
12513TIP3    H258955   1.712   3.887   3.639  0.5130  0.7799 -0.6822
12514TIP3   OH258956   1.826   3.603   6.407 -0.8550 -0.1554  0.1702
12514TIP3    H158957   1.794   3.638   6.324 -0.7202  1.4425  0.7486
12514TIP3    H258958   1.917   3.632   6.412 -0.5162 -1.2293  0.3556
12515TIP3   OH258959   0.571   4.023  16.226 -0.2461 -0.0010 -0.2332
12515TIP3    H158960   0.647   4.075  16.251  0.3910 -0.1577 -1.7537
12515TIP3    H258961   0.583   3.940  16.273 -0.8803  0.8839  1.5995
12516TIP3   OH258962   4.521   4.998   5.646 -0.0778 -0.1219 -0.9520
12516TIP3    H158963   4.548   5.015   5.736  0.2384  0.9309 -1.2336
12516TIP3    H258964   4.435   4.956   5.654 -0.2384  0.3438 -0.1716
12517TIP3   OH258965   3.621   3.997   2.838  0.3163 -0.0864 -0.1958
12517TIP3    H158966   3.575   4.042   2.909 -1.5674  1.7057 -2.3654
12517TIP3    H258967   3.571   3.917   2.824 -0.0883  0.1840 -0.3160
12518TIP3   OH258968   2.827   0.020   4.834  0.0954  0.6455  0.0230
12518TIP3    H158969   2.836  -0.068   4.872 -0.4284 -0.8663 -3.0914
12518TIP3    H258970   2.916   0.053   4.828  0.5221 -0.5713 -0.6564
12519TIP3   OH258971   1.566   1.589   5.395 -0.0560 -0.2397 -0.1570
12519TIP3    H158972   1.493   1.539   5.361 -0.0131 -1.0686  0.9182
12519TIP3    H258973   1.635   1.579   5.330 -0.4202 -0.6549 -0.4847
12520TIP3   OH258974   5.794   5.289  16.464 -0.2316 -0.3449  0.3122
12520TIP3    H158975   5.761   5.378  16.453  0.5021  0.0174  0.9472
12520TIP3    H258976   5.750   5.238  16.396  0.1047  0.6960 -0.7178
12521TIP3   OH258977   2.271   5.062  13.624  0.3034  0.2720  0.4066
12521TIP3    H158978   2.266   5.081  13.718  1.3488  2.2355  0.1197
12521TIP3    H258979   2.331   4.987  13.618 -0.5680 -0.5437  1.3295
12522TIP3   OH258980   4.167   2.907   2.254 -0.1399 -0.0978  0.4581
12522TIP3    H158981   4.106   2.939   2.188  0.4766  2.4099  0.9956
12522TIP3    H258982   4.253   2.937   2.224  0.3752 -0.4687  1.4984
12523TIP3   OH258983   3.575   4.472   2.937 -0.4018  0.1016  0.1432
12523TIP3    H158984   3.601   4.519   2.858 -0.3471  0.8543  0.5979
12523TIP3    H258985   3.480   4.485   2.941 -0.1122  2.3314  1.5825
12524TIP3   OH258986   2.800   5.371  13.624 -0.5963  0.1071 -0.0803
12524TIP3    H158987   2.854   5.443  13.591 -1.7156  0.9070 -0.2182
12524TIP3    H258988   2.803   5.381  13.719 -0.3638  0.0544 -0.0830
12525TIP3   OH258989   1.999   3.680  15.366 -0.7018  0.7696 -0.2784
12525TIP3    H158990   2.089   3.648  15.365  0.1851  3.0732 -0.0215
12525TIP3    H258991   1.947   3.605  15.396  0.7713 -1.3489 -2.6807
12526TIP3   OH258992   5.625   0.825  13.578  0.1443  0.2388  0.4455
12526TIP3    H158993   5.640   0.849  13.486  1.9321 -0.4343  0.5287
12526TIP3    H258994   5.559   0.756  13.574  0.0336  0.3738 -0.2996
12527TIP3   OH258995   0.413   6.135  11.749 -0.0455 -0.1264 -0.2839
12527TIP3    H158996   0.345   6.168  11.808 -1.7492 -1.7572 -1.2242
12527TIP3    H258997   0.377   6.054  11.713  1.6424 -0.0894 -2.2758
12528TIP3   OH258998   2.574   1.706   1.473  0.3799 -0.2335  0.4415
12528TIP3    H158999   2.592   1.613   1.462  0.0466 -0.2708  0.1976
12528TIP3    H259000   2.525   1.731   1.394  2.7977  0.7785 -0.8518
12529TIP3   OH259001   3.339   2.396   0.209  0.1005 -0.2158 -0.2094
12529TIP3    H159002   3.364   2.428   0.122 -0.1405 -0.4145 -0.3517
12529TIP3    H259003   3.400   2.440   0.269 -0.4470  0.7886 -0.3669
12530TIP3   OH259004   3.076   5.946  16.729  0.4274 -0.1811  0.1444
12530TIP3    H159005   3.097   5.883  16.660 -0.4301 -0.1885 -0.1253
12530TIP3    H259006   2.982   5.960  16.720  0.5175  0.7482  0.5362
12531TIP3   OH259007   5.857   0.510   3.483  0.2017  0.4482 -0.8875
12531TIP3    H159008   5.849   0.597   3.442  3.7437  1.2766 -0.1305
12531TIP3    H259009   5.831   0.524   3.574  0.2780  0.5682 -0.8844
12532TIP3   OH259010   3.663   6.073  14.016  0.3959  0.7504 -0.1434
12532TIP3    H159011   3.674   6.132  14.091 -0.0109  0.4832  0.1339
12532TIP3    H259012   3.741   6.087  13.962  0.6864  0.9587  0.3239
12533TIP3   OH259013   4.733   4.446  15.158  0.5325  0.3998 -0.2213
12533TIP3    H159014   4.792   4.480  15.091 -1.2030  1.9774 -1.0445
12533TIP3    H259015   4.699   4.365  15.120  1.8501 -0.3361  0.1124
12534TIP3   OH259016   2.239   6.374   6.219 -0.2113 -0.3065  0.4650
12534TIP3    H159017   2.244   6.311   6.291 -0.6615  0.4263  1.1583
12534TIP3    H259018   2.156   6.355   6.176 -0.2300 -0.3468  0.5185
12535TIP3   OH259019   1.833   0.883   5.128  0.5190  0.4328  0.3196
12535TIP3    H159020   1.800   0.890   5.038  1.0609 -0.0592  0.0789
12535TIP3    H259021   1.901   0.950   5.134 -1.1688  2.1787  1.1382
12536TIP3   OH259022   4.214   6.731   4.064 -0.4486  0.3363 -0.0452
12536TIP3    H159023   4.269   6.704   3.991 -0.1554  1.5701 -0.3066
12536TIP3    H259024   4.148   6.788   4.023 -0.4411  0.8183  0.6106
12537TIP3   OH259025   5.734   5.276  17.173 -0.0792  0.3788  0.0212
12537TIP3    H159026   5.733   5.358  17.222  3.2300 -0.2748  1.3840
12537TIP3    H259027   5.737   5.208  17.239 -1.8085 -0.8724 -1.1088
12538TIP3   OH259028   2.044   5.272   5.816  0.3860  0.3674 -0.7542
12538TIP3    H159029   2.093   5.353   5.804  0.0214  0.5488 -1.0156
12538TIP3    H259030   2.085   5.230   5.891  0.2732  1.0138 -0.3283
12539TIP3   OH259031   0.098   6.165  17.055 -0.2880  0.4790 -0.2014
12539TIP3    H159032   0.110   6.142  16.963 -1.7580  1.6350 -0.7386
12539TIP3    H259033   0.016   6.216  17.056  0.0991  1.1433  1.6315
12540TIP3   OH259034   0.413   0.754   4.093  0.4439  0.6121  0.5634
12540TIP3    H159035   0.375   0.681   4.046 -0.1230 -0.1158  2.0935
12540TIP3    H259036   0.424   0.823   4.027 -0.8457 -0.1654 -0.4865
12541TIP3   OH259037   5.138   3.314  12.376  0.2259  0.2392 -0.0496
12541TIP3    H159038   5.064   3.303  12.317  0.3015  0.3524 -0.1649
12541TIP3    H259039   5.138   3.235  12.430  1.2807 -0.7425 -1.4343
12542TIP3   OH259040   5.891   6.810  12.520 -0.0187 -0.1354 -0.1076
12542TIP3    H159041   5.952   6.737  12.510 -0.9559 -0.6725 -2.8010
12542TIP3    H259042   5.880   6.820  12.614  2.9867 -1.0153  0.4148
12543TIP3   OH259043   3.850   6.328   6.573 -0.1031  0.6832 -0.1395
12543TIP3    H159044   3.855   6.423   6.571 -0.3066  0.7238  0.7426
12543TIP3    H259045   3.767   6.307   6.530  1.2589  0.7143 -3.0071
12544TIP3   OH259046   0.446   1.006  11.949 -0.5783  0.1721 -0.2012
12544TIP3    H159047   0.379   0.983  12.013  0.0769 -2.0632 -0.2434
12544TIP3    H259048   0.424   1.095  11.923 -1.9967  0.4365  1.6809
12545TIP3   OH259049   6.567   3.273  11.115  0.0750 -0.1051  0.1111
12545TIP3    H159050   6.629   3.343  11.094  0.2358 -0.8460 -2.1489
12545TIP3    H259051   6.605   3.195  11.075 -2.8330 -0.3598 -2.5213
12546TIP3   OH259052   2.769   1.455  17.111 -0.0260 -0.1706  0.1831
12546TIP3    H159053   2.702   1.505  17.157 -0.5461  0.0834 -0.8233
12546TIP3    H259054   2.804   1.516  17.047  0.5481 -0.5797  0.0988
12547TIP3   OH259055   4.215   1.115  14.143  0.1447  0.1005  0.1941
12547TIP3    H159056   4.205   1.020  14.146  2.0899 -0.3300 -2.9046
12547TIP3    H259057   4.126   1.149  14.154 -0.7971 -2.1275 -0.0458
12548TIP3   OH259058   6.121   2.730  12.151  0.1597  0.0698  0.0796
12548TIP3    H159059   6.040   2.781  12.159 -0.5135 -1.0027  0.4178
12548TIP3    H259060   6.152   2.719  12.241 -1.1576 -2.2940  0.3442
12549TIP3   OH259061   1.882   5.195   4.901  0.3045  0.2441 -0.8214
12549TIP3    H159062   1.908   5.226   4.815  0.1951  0.9413 -0.6083
12549TIP3    H259063   1.892   5.270   4.959 -0.7904  0.1440 -0.4613
12550TIP3   OH259064   2.668   5.988  16.853 -0.7094 -0.6572 -0.0734
12550TIP3    H159065   2.703   5.905  16.819 -0.9860 -2.0207  2.7052
12550TIP3    H259066   2.724   6.009  16.927 -1.3768  1.0292 -0.0106
12551TIP3   OH259067   0.837   2.404  16.771 -0.0950 -0.4492 -0.3368
12551TIP3    H159068   0.765   2.446  16.819  2.4802  4.2646  0.0835
12551TIP3    H259069   0.885   2.355  16.838 -1.7462 -2.0282 -0.2422
12552TIP3   OH259070   2.125   1.767  13.640 -0.0724  0.4317 -0.0079
12552TIP3    H159071   2.116   1.862  13.654  0.5414  0.5129 -0.1432
12552TIP3    H259072   2.125   1.757  13.545 -0.9518  0.2074  0.0066
12553TIP3   OH259073   0.470   1.924  14.059 -0.2437  0.2974 -0.1693
12553TIP3    H159074   0.508   1.838  14.078 -0.3660  0.3452  0.3125
12553TIP3    H259075   0.537   1.986  14.086  0.5600  0.3387 -2.1385
12554TIP3   OH259076   3.086   0.248  15.535  0.1689 -0.1202  0.2027
12554TIP3    H159077   3.015   0.229  15.596  1.3407 -1.8231  1.1387
12554TIP3    H259078   3.043   0.286  15.458 -1.6910 -0.7954  0.8604
12555TIP3   OH259079   5.688   2.059  16.688  0.0867 -0.2654  0.0415
12555TIP3    H159080   5.643   1.974  16.684  3.5242 -2.2751 -0.4935
12555TIP3    H259081   5.714   2.076  16.597 -0.8791  1.6173  0.0826
12556TIP3   OH259082   5.169   0.958  11.206 -0.0396 -0.8983  0.7733
12556TIP3    H159083   5.209   0.914  11.281  0.9103  0.3704  1.0602
12556TIP3    H259084   5.243   0.979  11.148 -0.2893  1.0521  1.0781
12557TIP3   OH259085   5.350   6.676  12.868  0.1716  0.5273  0.1426
12557TIP3    H159086   5.267   6.722  12.859  0.5909  1.3834  0.5493
12557TIP3    H259087   5.359   6.660  12.962  1.7112  2.8664  0.4715
12558TIP3   OH259088   2.176   5.047  12.390  0.3087  0.2514  0.5920
12558TIP3    H159089   2.173   5.142  12.377 -1.7936  0.0781 -0.5690
12558TIP3    H259090   2.143   5.035  12.480 -0.7517  0.5803  0.2696
12559TIP3   OH259091   0.677   5.811   1.914 -0.2046  0.1202 -0.0317
12559TIP3    H159092   0.616   5.784   1.982  1.2280 -0.0267  1.2416
12559TIP3    H259093   0.699   5.902   1.936 -0.8602  0.6000 -1.1976
12560TIP3   OH259094   4.585   3.268   3.842  0.0006  0.6009  0.9018
12560TIP3    H159095   4.536   3.306   3.769 -1.1164  1.0086  1.8238
12560TIP3    H259096   4.656   3.218   3.801 -0.8939  0.4089 -0.4703
12561TIP3   OH259097   0.246   2.310  13.764  0.3279 -0.1468 -0.0456
12561TIP3    H159098   0.295   2.307  13.682  0.3591 -0.1100 -0.0277
12561TIP3    H259099   0.228   2.219  13.785 -0.3097 -0.1283 -0.4772
12562TIP3   OH259100   3.139   1.980   6.345  0.1814  0.0772 -0.1806
12562TIP3    H159101   3.203   1.958   6.278 -0.5249 -0.7397 -0.6187
12562TIP3    H259102   3.137   1.903   6.402 -0.1834  0.2138 -0.0031
12563TIP3   OH259103   2.943   4.790   3.357  0.1457  0.1394  0.0924
12563TIP3    H159104   3.005   4.722   3.385 -1.8681 -2.0579 -0.4417
12563TIP3    H259105   2.950   4.789   3.261 -1.2231 -0.7137 -0.0216
12564TIP3   OH259106   0.762   3.637  12.236 -0.6684 -0.1057  0.1906
12564TIP3    H159107   0.692   3.610  12.176 -1.4998  0.1463  1.0158
12564TIP3    H259108   0.825   3.682  12.180 -1.3560  0.0116 -0.5163
12565TIP3   OH259109   4.058   3.112  13.925  0.7272  0.2558  0.2821
12565TIP3    H159110   4.069   3.201  13.890 -0.3135  1.0729  1.9190
12565TIP3    H259111   4.006   3.124  14.004 -1.7971 -2.1138 -0.8808
12566TIP3   OH259112   5.210   1.917  15.281  0.7144  0.1384  0.5743
12566TIP3    H159113   5.216   1.874  15.195 -0.0627 -0.6831  0.9216
12566TIP3    H259114   5.133   1.973  15.275  0.8610  0.3490  0.6291
12567TIP3   OH259115   4.132   2.739  13.153 -0.4518 -0.2397 -0.2577
12567TIP3    H159116   4.168   2.695  13.230 -0.8626  1.3217  0.8777
12567TIP3    H259117   4.191   2.814  13.138 -0.8253 -0.0811 -0.9870
12568TIP3   OH259118   1.807   6.484  16.136 -0.4711 -0.1782 -0.3285
12568TIP3    H159119   1.783   6.573  16.160  0.6330  0.0202  0.1320
12568TIP3    H259120   1.819   6.439  16.219 -0.8913 -0.7210 -0.5568
12569TIP3   OH259121   4.163   2.049   3.500 -0.2626 -0.1528 -0.3165
12569TIP3    H159122   4.157   1.977   3.563 -0.8161 -1.4053 -1.7283
12569TIP3    H259123   4.257   2.062   3.487 -0.1531 -0.2655  0.3441
12570TIP3   OH259124   5.040   1.563  15.383  0.5274  0.1932 -0.1516
12570TIP3    H159125   4.978   1.560  15.457  1.1200 -1.9198  0.3310
12570TIP3    H259126   5.010   1.636  15.329  0.1498  1.9250  2.2329
12571TIP3   OH259127   2.685   6.190  14.692  0.3751 -0.1594  0.4724
12571TIP3    H159128   2.641   6.273  14.675  0.4291 -0.6358 -2.3704
12571TIP3    H259129   2.735   6.206  14.773 -0.9513  1.9820  0.9550
12572TIP3   OH259130   3.206   5.582   5.686 -0.6828  0.2784  0.0437
12572TIP3    H159131   3.235   5.602   5.776  0.5069 -0.5874 -0.1217
12572TIP3    H259132   3.158   5.500   5.695  0.0819 -0.2037 -0.2083
12573TIP3   OH259133   4.746   6.541   3.394 -0.5938  0.2486  0.0921
12573TIP3    H159134   4.705   6.604   3.334 -1.5685  0.3941  0.8797
12573TIP3    H259135   4.796   6.595   3.454  0.6323  0.0829 -0.7451
12574TIP3   OH259136   6.797   4.205  12.537 -0.1000 -0.4375 -0.2039
12574TIP3    H159137   6.798   4.296  12.565 -1.1046  0.2292 -2.1307
12574TIP3    H259138   6.705   4.189  12.513 -0.7800 -3.0918  3.4526
12575TIP3   OH259139   1.344   4.248   1.942 -0.2723 -0.2605  1.0162
12575TIP3    H159140   1.347   4.325   1.999  0.6393  0.3675  0.1650
12575TIP3    H259141   1.311   4.177   1.997  1.4707  0.1002  2.5927
12576TIP3   OH259142   0.437   3.296  15.058  0.2836 -0.1148 -0.5926
12576TIP3    H159143   0.348   3.277  15.030  0.6665 -0.4469 -1.6346
12576TIP3    H259144   0.438   3.391  15.069 -0.4834 -0.2155  0.5033
12577TIP3   OH259145   4.281   4.826  13.790  0.7213 -0.0308 -0.1015
12577TIP3    H159146   4.221   4.771  13.841  0.8276  1.1592  1.3690
12577TIP3    H259147   4.229   4.853  13.715 -0.4584  0.5783  0.8930
12578TIP3   OH259148   0.158   4.303   5.442  0.8166  0.5730  0.1300
12578TIP3    H159149   0.065   4.281   5.438  0.4587  2.1184 -1.3300
12578TIP3    H259150   0.193   4.246   5.510 -0.8466 -1.2682 -0.4523
12579TIP3   OH259151   6.300   2.586   0.925  0.1747  0.1445 -0.0111
12579TIP3    H159152   6.218   2.569   0.970  0.2339 -0.9022 -0.2836
12579TIP3    H259153   6.306   2.518   0.857 -0.4710  2.3091 -2.4112
12580TIP3   OH259154   2.829   2.389   4.172 -0.3668  0.1083  0.0026
12580TIP3    H159155   2.877   2.380   4.089  0.6624  1.0811  0.4661
12580TIP3    H259156   2.847   2.307   4.219  0.2332  0.1458 -0.1466
12581TIP3   OH259157   2.571   6.322   5.464 -0.2985 -0.0545 -0.3629
12581TIP3    H159158   2.614   6.366   5.537 -1.3130  0.3523  0.0021
12581TIP3    H259159   2.629   6.248   5.443  0.6405  0.5624  0.0118
12582TIP3   OH259160   2.298   6.265   4.525 -0.0560  0.0057  0.3037
12582TIP3    H159161   2.336   6.178   4.512  1.2371  0.8034 -1.6854
12582TIP3    H259162   2.373   6.323   4.539 -0.8930  0.8488  1.5336
12583TIP3   OH259163   3.940   6.213  15.347 -0.1569 -0.6241  0.2396
12583TIP3    H159164   3.995   6.263  15.406 -0.7303 -0.1232  0.3617
12583TIP3    H259165   3.885   6.278  15.304  0.6169 -0.9153 -1.2698
12584TIP3   OH259166   3.529   4.922   4.453 -0.0657  0.1507 -0.3400
12584TIP3    H159167   3.468   4.959   4.390  0.8020  0.3499 -1.0837
12584TIP3    H259168   3.580   4.859   4.403  0.4108  0.0639  0.2396
12585TIP3   OH259169   6.812   5.525   1.844  0.4025 -0.6314 -0.1744
12585TIP3    H159170   6.798   5.487   1.931 -0.4149 -1.0723 -0.4871
12585TIP3    H259171   6.854   5.609   1.860  1.5041 -1.3018  0.5801
12586TIP3   OH259172   3.560   4.593   5.652 -0.1278  0.0527 -0.6164
12586TIP3    H159173   3.608   4.524   5.698  1.2780 -0.3543 -2.5565
12586TIP3    H259174   3.567   4.669   5.709 -0.5921 -1.0545  0.9663
12587TIP3   OH259175   3.745   3.482  16.001  0.0164 -0.0958  0.1164
12587TIP3    H159176   3.672   3.473  16.063 -0.6446 -0.5764 -0.7016
12587TIP3    H259177   3.731   3.411  15.938  3.3366 -2.7000  2.0206
12588TIP3   OH259178   1.549   4.491  16.682 -0.7560  0.2655  0.3420
12588TIP3    H159179   1.574   4.452  16.766 -0.6384  0.3169  0.3296
12588TIP3    H259180   1.480   4.433  16.649 -1.6830  0.9453  1.0558
12589TIP3   OH259181   5.262   6.113  13.208 -0.0203 -0.1539  0.1382
12589TIP3    H159182   5.205   6.058  13.261 -0.7865 -0.6805 -1.1594
12589TIP3    H259183   5.239   6.090  13.117  1.9703 -0.0937 -0.4346
12590TIP3   OH259184   6.551   0.977  14.015  0.2132 -0.1573  0.0045
12590TIP3    H159185   6.594   0.892  14.025  1.9998  0.6779 -0.0951
12590TIP3    H259186   6.585   1.029  14.088  0.2299  0.8746 -0.7240
12591TIP3   OH259187   2.899   5.744  10.975  0.3222 -0.3737 -0.8198
12591TIP3    H159188   2.916   5.825  10.928  0.6566 -0.0593 -0.1780
12591TIP3    H259189   2.838   5.695  10.919 -0.7916  0.8128 -0.7027
12592TIP3   OH259190   3.493   6.521  11.554  0.2934  0.1942  0.0957
12592TIP3    H159191   3.505   6.451  11.490 -0.0087 -0.2659  0.5325
12592TIP3    H259192   3.492   6.601  11.502  2.7400  0.0922 -0.2335
12593TIP3   OH259193   0.775   0.034   0.253 -0.9897  0.6410 -0.5644
12593TIP3    H159194   0.801   0.098   0.186  1.4902 -0.0530 -0.3829
12593TIP3    H259195   0.734   0.086   0.322  0.3870  1.9868 -0.7001
12594TIP3   OH259196   1.260   0.334  11.519 -0.8809 -0.0282  0.5580
12594TIP3    H159197   1.193   0.353  11.453 -0.6807  0.0339  0.3726
12594TIP3    H259198   1.307   0.416  11.531 -0.1740 -0.3261 -0.0679
12595TIP3   OH259199   5.649   0.122   2.656  0.4310 -0.2472  0.2008
12595TIP3    H159200   5.628   0.084   2.741 -0.0520 -2.8131 -0.9758
12595TIP3    H259201   5.565   0.125   2.609  0.7246  0.9213 -0.3110
12596TIP3   OH259202   5.821   6.721   0.585  0.7363 -0.1695 -0.2073
12596TIP3    H159203   5.813   6.736   0.679  0.1075  1.2207 -0.4509
12596TIP3    H259204   5.867   6.638   0.577  0.5441 -0.4429  1.3257
12597TIP3   OH259205   0.968   1.951  16.489  0.1084  0.2597 -0.4487
12597TIP3    H159206   0.923   1.896  16.553 -1.0550  2.8106  1.1136
12597TIP3    H259207   0.897   1.998  16.445  1.0176 -0.0150 -2.2609
12598TIP3   OH259208   0.452   2.413  11.946 -0.7210  0.5662  0.1127
12598TIP3    H159209   0.476   2.332  11.992  0.2063  0.8562  0.1719
12598TIP3    H259210   0.390   2.457  12.005 -0.0258  0.6343  0.8121
12599TIP3   OH259211   4.926   4.926  12.001 -0.1461  0.1866 -0.0918
12599TIP3    H159212   4.942   4.982  11.926  1.6606 -2.6610 -2.0494
12599TIP3    H259213   4.837   4.893  11.989 -0.0728  0.2030 -0.6795
12600TIP3   OH259214   4.749   4.764   3.115  0.0157  1.0047  0.6759
12600TIP3    H159215   4.824   4.705   3.116  0.0378  1.0011  2.4429
12600TIP3    H259216   4.673   4.706   3.124 -0.2741  0.9850 -1.3653
12601TIP3   OH259217   5.056   4.529   1.957 -0.4814 -0.2031 -0.6335
12601TIP3    H159218   5.032   4.621   1.947  1.9573  0.4682 -1.1731
12601TIP3    H259219   5.064   4.497   1.867  2.5426  0.2849 -0.6622
12602TIP3   OH259220   4.124   1.005   3.857 -0.2457 -0.3062  0.3974
12602TIP3    H159221   4.150   0.976   3.944  0.1786  0.3277  0.4848
12602TIP3    H259222   4.206   1.022   3.811 -0.3429 -3.0425 -1.0019
12603TIP3   OH259223   3.906   6.211   4.163 -0.3103  0.7086 -0.5339
12603TIP3    H159224   3.880   6.302   4.181 -0.9253  0.1286  1.8056
12603TIP3    H259225   3.843   6.158   4.212  0.9761 -0.9610 -0.6064
12604TIP3   OH259226   1.675   0.625   4.492  0.1386  0.4430  0.0786
12604TIP3    H159227   1.717   0.687   4.551  0.4979 -1.0939  1.5099
12604TIP3    H259228   1.734   0.619   4.417  0.7168  0.8971  0.4874
12605TIP3   OH259229   0.820   4.799  11.507 -0.2986 -0.0965  0.2974
12605TIP3    H159230   0.809   4.715  11.461 -0.5524 -0.0569  0.2840
12605TIP3    H259231   0.734   4.840  11.503 -0.0679  0.3655 -0.0763
12606TIP3   OH259232   1.127   1.275   0.233 -0.1434  0.2818 -0.9677
12606TIP3    H159233   1.162   1.295   0.146  0.2477  2.5916 -0.3540
12606TIP3    H259234   1.095   1.359   0.266  1.4390 -0.0922  1.8455
12607TIP3   OH259235   2.396   0.526  13.986  0.0410 -0.3976  0.1450
12607TIP3    H159236   2.447   0.589  14.037  1.4236 -0.9163 -0.5561
12607TIP3    H259237   2.307   0.561  13.988  0.1705 -0.0227  2.2897
12608TIP3   OH259238   2.664   4.208   2.128 -0.0491 -0.0227  0.1755
12608TIP3    H159239   2.669   4.128   2.179  3.0794 -0.0858 -0.0333
12608TIP3    H259240   2.724   4.268   2.172  0.8001  0.7913 -1.9565
12609TIP3   OH259241   5.272   3.634   5.557  0.5483 -0.1926 -0.0385
12609TIP3    H159242   5.268   3.624   5.652 -1.2288  0.9153  0.0423
12609TIP3    H259243   5.333   3.707   5.543  1.3209 -0.7879  0.2090
12610TIP3   OH259244   5.334   3.863  12.809 -0.3766 -0.3203 -0.5175
12610TIP3    H159245   5.280   3.836  12.883 -1.8039 -0.2567 -1.4952
12610TIP3    H259246   5.297   3.816  12.734  0.7438 -0.0287 -1.2709
12611TIP3   OH259247   3.146   2.448  16.180 -0.3958 -0.0557  0.0120
12611TIP3    H159248   3.163   2.367  16.228  0.6586 -0.6098 -1.2575
12611TIP3    H259249   3.212   2.510  16.213  0.1597 -0.3581 -0.5124
12612TIP3   OH259250   6.131   1.291   0.926  0.5965 -0.1568 -0.1339
12612TIP3    H159251   6.173   1.253   1.003  0.7275 -0.7032 -0.4760
12612TIP3    H259252   6.203   1.313   0.867  0.5905  1.2998  0.3438
12613TIP3   OH259253   1.698   0.202  16.196  0.4584 -0.3238  0.0844
12613TIP3    H159254   1.676   0.140  16.127 -0.3609 -2.0663  1.8198
12613TIP3    H259255   1.675   0.288  16.159 -1.6653 -1.3563 -1.1709
12614TIP3   OH259256   3.567   3.748  16.540  0.3586  0.5425 -0.2751
12614TIP3    H159257   3.639   3.693  16.571 -0.2711  0.4585  1.1027
12614TIP3    H259258   3.595   3.837  16.558  0.7073  0.5966 -1.0520
12615TIP3   OH259259   5.844   2.253  12.164 -0.2392 -0.2859 -0.0057
12615TIP3    H159260   5.811   2.193  12.098 -1.6797  0.8246 -0.3458
12615TIP3    H259261   5.777   2.253  12.232 -0.3340  1.0391 -0.0803
12616TIP3   OH259262   6.064   2.812   5.371  0.4336 -0.3308 -0.2199
12616TIP3    H159263   5.989   2.846   5.321 -1.5144 -1.5334  1.6961
12616TIP3    H259264   6.054   2.849   5.458  1.7660 -0.9707  0.2353
12617TIP3   OH259265   1.842   6.749   1.030 -0.2922 -0.4249 -0.4020
12617TIP3    H159266   1.829   6.713   0.942  0.2121 -1.2724 -0.1373
12617TIP3    H259267   1.934   6.773   1.033  0.1458 -2.0550  0.4690
12618TIP3   OH259268   6.194   1.499   0.564 -0.3664  0.5136  0.2386
12618TIP3    H159269   6.186   1.512   0.470 -0.4692 -1.0823  0.0145
12618TIP3    H259270   6.286   1.480   0.579 -0.5461 -0.3053  0.3196
12619TIP3   OH259271   5.217   5.489   5.576 -0.3387  0.0045 -0.2646
12619TIP3    H159272   5.172   5.519   5.655  2.0641  1.1350  0.7738
12619TIP3    H259273   5.249   5.569   5.535  0.2429 -0.7230 -1.2657
12620TIP3   OH259274   3.914   2.871   0.087 -0.5413  0.4448  0.2579
12620TIP3    H159275   4.007   2.867   0.108 -0.6169  1.1845  0.7721
12620TIP3    H259276   3.876   2.925   0.156 -2.0075 -2.8107  2.2386
12621TIP3   OH259277   2.777   2.732  14.261 -0.4989  0.8651  0.2342
12621TIP3    H159278   2.770   2.645  14.222  0.8414  0.4980  0.7568
12621TIP3    H259279   2.729   2.789  14.201 -3.1689 -0.4960  0.8912
12622TIP3   OH259280   1.537   6.520   3.702  0.1827 -0.1515  0.8303
12622TIP3    H159281   1.631   6.517   3.690  0.2011  0.6961  0.7152
12622TIP3    H259282   1.512   6.429   3.719  0.9659 -0.4340  0.5112
12623TIP3   OH259283   5.337   1.828   6.164 -0.6046  0.0531  0.1053
12623TIP3    H159284   5.418   1.778   6.162 -1.0910 -0.7365 -1.2031
12623TIP3    H259285   5.307   1.822   6.255  1.1529  0.9977  0.8064
12624TIP3   OH259286   5.357   1.730   0.552 -0.6447  0.5100 -0.3564
12624TIP3    H159287   5.337   1.815   0.514  0.8795 -0.3112 -3.3218
12624TIP3    H259288   5.294   1.669   0.512 -2.8340  0.3306  2.9784
12625TIP3   OH259289   6.394   2.264   3.928 -0.3507  0.4169 -0.4092
12625TIP3    H159290   6.315   2.244   3.977 -0.8315 -0.9421 -1.6677
12625TIP3    H259291   6.462   2.271   3.995 -1.0245 -1.1679  0.5045
12626TIP3   OH259292   5.772   0.151   2.395  0.4727  0.2153  0.5004
12626TIP3    H159293   5.724   0.119   2.319  1.6272 -0.6559  0.1129
12626TIP3    H259294   5.727   0.114   2.470  0.5670 -0.6417  0.1383
12627TIP3   OH259295   3.903   4.483   4.747 -0.0437  0.1284 -0.2208
12627TIP3    H159296   3.835   4.550   4.752  0.2157  0.4884 -1.3430
12627TIP3    H259297   3.880   4.421   4.816 -1.4189  0.3359 -0.4706
12628TIP3   OH259298   5.577   1.314  12.529  0.1876 -0.0896  0.2443
12628TIP3    H159299   5.585   1.221  12.549 -1.2736 -0.0593  1.0975
12628TIP3    H259300   5.506   1.320  12.465  1.5229  0.2970 -1.2680
12629TIP3   OH259301   0.262   5.546  11.215 -0.3142  0.8981 -0.6366
12629TIP3    H159302   0.173   5.547  11.250 -0.7885  1.0742 -1.8143
12629TIP3    H259303   0.303   5.625  11.252 -0.9476  1.3275 -0.8339
12630TIP3   OH259304   4.870   0.906   3.244 -0.2601  0.3116 -0.2261
12630TIP3    H159305   4.826   0.821   3.245 -0.5644  0.4733  0.0822
12630TIP3    H259306   4.888   0.926   3.336 -2.6264  1.8319 -0.0131
12631TIP3   OH259307   6.715   5.641   1.585 -0.2392 -0.3294  0.3326
12631TIP3    H159308   6.790   5.684   1.544 -0.3642 -1.5739 -1.2834
12631TIP3    H259309   6.755   5.573   1.640 -0.1416 -0.3055  0.2929
12632TIP3   OH259310   6.142   4.824   4.611 -0.1562 -0.2650 -0.0476
12632TIP3    H159311   6.140   4.883   4.687 -1.6029  0.2040 -0.4329
12632TIP3    H259312   6.232   4.791   4.609  0.5816  1.6124  0.4175
12633TIP3   OH259313   4.498   4.429   0.311 -0.2305  0.4037  0.5674
12633TIP3    H159314   4.482   4.435   0.217 -1.2009 -0.3305  0.6726
12633TIP3    H259315   4.573   4.369   0.318 -0.4779  0.0575  0.2847
12634TIP3   OH259316   1.163   6.657  13.666 -0.2885  0.0935 -0.2684
12634TIP3    H159317   1.122   6.571  13.660 -0.3546  0.1726 -1.0861
12634TIP3    H259318   1.113   6.703  13.734  1.3636 -1.3649  2.0625
12635TIP3   OH259319   3.378   1.819  14.027 -0.2147  0.3350  0.2077
12635TIP3    H159320   3.340   1.736  14.000 -0.5579  0.6661 -0.3573
12635TIP3    H259321   3.341   1.837  14.113 -1.3953  0.6826 -0.3595
12636TIP3   OH259322   2.985   6.780   1.360  0.1269 -0.1960  0.4164
12636TIP3    H159323   2.899   6.810   1.331 -0.1223 -0.5211  0.8037
12636TIP3    H259324   2.973   6.756   1.452  0.7209  0.0965  0.5764
12637TIP3   OH259325   4.191   5.433   2.237  0.4429 -0.1565  0.7051
12637TIP3    H159326   4.138   5.497   2.283 -0.0816 -1.3904  1.9099
12637TIP3    H259327   4.274   5.477   2.222 -0.4614  1.3535 -0.0197
12638TIP3   OH259328   5.647   5.189  16.272 -0.0552 -0.0527  0.5384
12638TIP3    H159329   5.580   5.122  16.289 -2.8019  2.8793  2.3276
12638TIP3    H259330   5.620   5.229  16.190 -0.8799  1.4561  1.5058
12639TIP3   OH259331   5.910   5.247  15.695 -0.4694 -0.6020 -0.0489
12639TIP3    H159332   5.979   5.212  15.751 -0.9720 -0.3317  0.7470
12639TIP3    H259333   5.956   5.299  15.629  0.1666 -1.4216 -0.2696
12640TIP3   OH259334   6.061   2.849  16.517 -0.3770 -0.2085 -0.1726
12640TIP3    H159335   6.090   2.850  16.608  0.2296 -1.1373 -0.3398
12640TIP3    H259336   6.141   2.863  16.466 -0.2932 -2.0187 -0.6136
12641TIP3   OH259337   3.089   3.352   3.047 -0.0442  0.1618  0.4834
12641TIP3    H159338   3.054   3.441   3.055  0.3001  0.2038  1.7948
12641TIP3    H259339   3.182   3.363   3.027 -0.0137  0.0940  0.5857
12642TIP3   OH259340   3.097   2.126  12.047  0.1443 -0.2177  0.4351
12642TIP3    H159341   3.055   2.212  12.049  0.9458  0.1866 -0.1192
12642TIP3    H259342   3.027   2.066  12.019  0.1107  0.5579 -1.2300
12643TIP3   OH259343   3.210   4.853  14.883  0.1661  0.0143  0.3002
12643TIP3    H159344   3.226   4.943  14.856  1.2600 -0.7622 -1.7894
12643TIP3    H259345   3.292   4.807  14.867 -0.9271 -1.7690 -0.5509
12644TIP3   OH259346   0.674   5.761  11.359  0.0186  0.5322  0.3862
12644TIP3    H159347   0.652   5.735  11.269  2.9000 -2.4578  0.3154
12644TIP3    H259348   0.622   5.702  11.414  1.3425 -0.6301  0.4566
12645TIP3   OH259349   5.277   1.044   6.764  0.0592 -0.2137 -0.0849
12645TIP3    H159350   5.202   1.103   6.755 -0.0780  0.1497  2.7057
12645TIP3    H259351   5.242   0.958   6.742 -0.6860  0.2097 -0.6037
12646TIP3   OH259352   4.109   6.183  11.826  0.4930 -0.3269 -0.3066
12646TIP3    H159353   4.050   6.254  11.854 -0.9598 -1.9720  1.0288
12646TIP3    H259354   4.068   6.149  11.746  0.2164 -0.7848  0.0294
12647TIP3   OH259355   3.007   4.271  10.564  0.2390 -0.0602  0.5250
12647TIP3    H159356   2.940   4.208  10.590 -0.6381  0.5319 -0.2177
12647TIP3    H259357   3.087   4.219  10.555  0.5275 -0.4031  3.8188
12648TIP3   OH259358   4.889   0.110   5.340 -0.5399 -0.0285 -0.1850
12648TIP3    H159359   4.948   0.048   5.384  0.2914 -0.9788 -2.4866
12648TIP3    H259360   4.819   0.125   5.403  0.1302 -1.9902  1.1290
12649TIP3   OH259361   3.536   4.470   4.665 -0.2401 -0.0306  0.0415
12649TIP3    H159362   3.617   4.479   4.614 -0.2668  0.9137  0.1358
12649TIP3    H259363   3.522   4.557   4.701 -1.0492 -0.3114  0.4163
12650TIP3   OH259364   5.445   3.678  15.422 -0.2250  0.2374 -0.2464
12650TIP3    H159365   5.419   3.748  15.483  0.6346  0.3723 -0.0127
12650TIP3    H259366   5.541   3.679  15.425 -0.2003 -0.8217 -0.3975
12651TIP3   OH259367   1.927   3.490  14.270  0.0381 -0.3291  0.2806
12651TIP3    H159368   1.900   3.419  14.327 -0.1090 -0.2866  0.2626
12651TIP3    H259369   1.891   3.569  14.311 -2.0278 -0.5001 -1.0732
12652TIP3   OH259370   4.718   0.582   4.513 -0.2058 -0.1800 -0.3109
12652TIP3    H159371   4.701   0.654   4.453 -0.3213 -0.1006 -0.1836
12652TIP3    H259372   4.744   0.509   4.456 -1.4347 -0.4539 -0.5623
12653TIP3   OH259373   5.987   0.695   2.103 -0.2391  0.0318 -0.7391
12653TIP3    H159374   6.066   0.716   2.153 -0.7207 -0.2797  0.1674
12653TIP3    H259375   5.916   0.737   2.152 -0.8322 -1.0766 -0.6364
12654TIP3   OH259376   5.607   2.375   2.810 -0.4808  0.4662  0.3872
12654TIP3    H159377   5.589   2.296   2.759  1.3570  0.7313 -0.7397
12654TIP3    H259378   5.579   2.352   2.899  0.8970 -1.8630  0.3199
12655TIP3   OH259379   5.523   2.128   4.897  0.4602 -0.2639  0.3651
12655TIP3    H159380   5.591   2.068   4.867  0.7321  0.1799  0.0785
12655TIP3    H259381   5.454   2.071   4.930  0.9904 -0.7163  0.7044
12656TIP3   OH259382   5.151   3.740   4.436 -0.2406  0.6544  0.3919
12656TIP3    H159383   5.090   3.813   4.442 -0.6049  0.2837  1.5479
12656TIP3    H259384   5.097   3.662   4.452  0.4688  0.2972  1.1138
12657TIP3   OH259385   0.001   5.560  11.596 -0.4067  0.0263  0.2138
12657TIP3    H159386  -0.040   5.480  11.629 -1.1554  0.5258  0.5146
12657TIP3    H259387   0.059   5.588  11.666 -1.3022  0.5842  0.7325
12658TIP3   OH259388   5.786   3.967  11.753  0.1167 -0.2744 -0.1745
12658TIP3    H159389   5.742   3.938  11.673 -0.7314 -0.8294  0.4719
12658TIP3    H259390   5.791   3.888  11.807  2.6064 -0.4182 -0.5074
12659TIP3   OH259391   3.242   4.944  11.752 -0.1370 -0.0491  0.1557
12659TIP3    H159392   3.270   4.870  11.805 -0.4469 -1.0048 -0.9625
12659TIP3    H259393   3.298   4.940  11.675 -1.3085 -0.1969 -0.7248
12660TIP3   OH259394   3.204   6.719  16.102  0.2104  0.3615  0.0680
12660TIP3    H159395   3.296   6.728  16.125  0.3928 -0.0208 -0.4737
12660TIP3    H259396   3.203   6.722  16.006 -0.4715  1.4941  0.0993
12661TIP3   OH259397   3.861   3.033   6.329 -0.3197  0.0710  0.3545
12661TIP3    H159398   3.944   2.986   6.330  0.2106  0.8912 -1.3783
12661TIP3    H259399   3.846   3.056   6.420  1.0596 -0.5916  0.7830
12662TIP3   OH259400   1.496   3.999   0.075 -0.2130 -0.1755 -0.2464
12662TIP3    H159401   1.522   3.963  -0.010 -1.7623 -0.7347 -0.5166
12662TIP3    H259402   1.414   4.045   0.057 -0.2819  0.1467  0.8493
12663TIP3   OH259403   3.085   5.034  16.585 -0.7544  0.1976  0.8673
12663TIP3    H159404   3.164   4.992  16.620 -0.3356 -0.2905 -0.6142
12663TIP3    H259405   3.117   5.088  16.512 -1.5123  1.7936  1.6542
12664TIP3   OH259406   6.050   1.654   4.924  0.2422 -0.5868 -0.2400
12664TIP3    H159407   6.134   1.610   4.912  0.5842 -0.5319  1.5910
12664TIP3    H259408   5.988   1.603   4.873  1.1287 -1.5257 -0.4029
12665TIP3   OH259409   0.768   5.864   6.076 -0.0705  0.8740 -0.2660
12665TIP3    H159410   0.811   5.782   6.048 -0.5723  0.5193 -0.0163
12665TIP3    H259411   0.840   5.927   6.084  0.3787  0.3508 -0.0747
12666TIP3   OH259412   6.441   3.507  14.162 -0.5827  0.5812  0.4935
12666TIP3    H159413   6.460   3.587  14.212  2.1940  0.1622  0.2914
12666TIP3    H259414   6.489   3.438  14.208  0.8942 -0.0813 -1.8499
12667TIP3   OH259415   1.327   0.423   6.152  0.0719 -0.4798  0.0674
12667TIP3    H159416   1.277   0.374   6.218 -0.0334 -0.3304  0.0979
12667TIP3    H259417   1.397   0.465   6.202 -0.5320  0.3668  0.2320
12668TIP3   OH259418   6.541   3.510  17.181  0.0406 -0.0816 -0.2471
12668TIP3    H159419   6.525   3.442  17.115  2.6457 -0.9910 -0.0647
12668TIP3    H259420   6.478   3.579  17.160 -0.4066 -1.0972 -2.5883
12669TIP3   OH259421   3.597   4.734  12.368 -0.4566  0.2359 -0.4554
12669TIP3    H159422   3.679   4.764  12.408 -0.3232 -1.1012  0.3451
12669TIP3    H259423   3.529   4.780  12.417 -0.3261 -1.8154  1.8603
12670TIP3   OH259424   1.283   6.048   0.373 -0.1475 -0.1754 -0.6777
12670TIP3    H159425   1.373   6.060   0.341  0.1618 -0.1276  0.1600
12670TIP3    H259426   1.270   5.953   0.371  1.0216 -0.4945  1.9128
12671TIP3   OH259427   1.153   3.511   3.777  0.2308  0.7095  0.0399
12671TIP3    H159428   1.166   3.548   3.690  1.0138  0.3466 -0.0069
12671TIP3    H259429   1.101   3.432   3.762 -1.3780  1.6933  0.1337
12672TIP3   OH259430   6.045   3.489  11.012  0.4298  0.8970  0.6838
12672TIP3    H159431   6.047   3.399  10.980  0.8353 -0.0546  3.1204
12672TIP3    H259432   6.107   3.537  10.957  0.4187 -0.3811 -0.4666
12673TIP3   OH259433   4.418   4.731   3.310 -0.5297 -0.1111  0.1697
12673TIP3    H159434   4.422   4.636   3.319 -0.2515 -0.0255  1.0872
12673TIP3    H259435   4.336   4.748   3.263 -0.5178 -0.8022 -0.1107
12674TIP3   OH259436   3.237   6.548  13.981  0.1890 -0.0761 -0.5562
12674TIP3    H159437   3.255   6.642  13.988  0.6498 -0.1827 -0.2999
12674TIP3    H259438   3.318   6.506  14.008 -0.3354 -0.5615  0.3181
12675TIP3   OH259439   5.544   3.441   2.044 -0.1745  0.0103 -0.1413
12675TIP3    H159440   5.566   3.383   1.972 -0.7783  0.0231 -0.3472
12675TIP3    H259441   5.625   3.486   2.065 -0.2321  0.8351 -1.5654
12676TIP3   OH259442   4.851   1.338  11.384  0.1580  0.0294 -0.0004
12676TIP3    H159443   4.946   1.348  11.389  0.2683 -1.1443  0.6010
12676TIP3    H259444   4.823   1.329  11.475 -0.4157 -0.5396 -0.2249
12677TIP3   OH259445   2.895   3.554  15.921 -0.3104 -0.0355 -0.2368
12677TIP3    H159446   2.835   3.519  15.855 -1.3253  1.4369 -0.1386
12677TIP3    H259447   2.971   3.496  15.917 -0.8287 -0.6599 -1.8950
12678TIP3   OH259448   1.757   3.658  15.991  0.1746  0.2370 -0.7317
12678TIP3    H159449   1.690   3.612  15.939  2.3783  0.3551 -3.9270
12678TIP3    H259450   1.720   3.745  16.006 -1.8365 -0.7869  0.8343
12679TIP3   OH259451   5.607   3.089  14.885  0.3083  0.5456  0.0590
12679TIP3    H159452   5.663   3.112  14.959 -1.9384  1.0880  1.6706
12679TIP3    H259453   5.583   3.173  14.846  0.5437  0.3181 -0.5901
12680TIP3   OH259454   0.606   4.786  11.162 -0.1730 -0.3047 -0.0182
12680TIP3    H159455   0.590   4.696  11.192 -0.5180 -0.0223  0.6571
12680TIP3    H259456   0.522   4.814  11.124 -0.5233  0.2453  1.1233
12681TIP3   OH259457   6.395   3.016   1.201 -0.3288 -0.2465 -0.0871
12681TIP3    H159458   6.462   3.080   1.179 -1.4086  0.3320 -2.0253
12681TIP3    H259459   6.364   2.984   1.116 -1.7338 -1.3004  0.7647
12682TIP3   OH259460   4.954   0.341   1.915  0.9544  0.0640  0.3052
12682TIP3    H159461   4.883   0.405   1.912  0.9903  0.0900 -2.2251
12682TIP3    H259462   5.033   0.391   1.899  1.1616 -0.4021 -0.1535
12683TIP3   OH259463   6.140   0.189   3.245  0.4098  0.0945 -0.1827
12683TIP3    H159464   6.171   0.279   3.242 -2.7116  1.2978 -0.3578
12683TIP3    H259465   6.116   0.175   3.337 -1.6357  0.4876 -0.6018
12684TIP3   OH259466   3.542   5.500  12.394 -0.2649  0.3932 -0.8983
12684TIP3    H159467   3.487   5.422  12.388 -0.5283  0.5797 -0.9660
12684TIP3    H259468   3.479   5.572  12.401 -0.0494  0.4437  1.2686
12685TIP3   OH259469   0.649   2.981   5.417 -0.5781 -0.0717 -0.0874
12685TIP3    H159470   0.645   2.996   5.511  0.9552 -1.3966  0.2395
12685TIP3    H259471   0.588   2.910   5.401 -0.2277 -0.4073  0.0526
12686TIP3   OH259472   1.711   2.063  10.895 -0.5372 -0.5485 -0.0531
12686TIP3    H159473   1.630   2.040  10.852 -0.6726 -0.0746 -0.0589
12686TIP3    H259474   1.750   1.980  10.921 -0.6267 -0.8155 -0.7717
12687TIP3   OH259475   1.823   6.441   2.716 -0.1337  0.3229  0.2339
12687TIP3    H159476   1.743   6.487   2.742 -1.6328 -0.9200 -1.8418
12687TIP3    H259477   1.892   6.506   2.727 -1.6582  1.9790  0.5654
12688TIP3   OH259478   4.527   0.430   2.618  0.5157 -0.3060 -0.5296
12688TIP3    H159479   4.519   0.342   2.582  0.4305 -0.1061 -1.0108
12688TIP3    H259480   4.619   0.453   2.607  1.0144 -1.1120  1.4729
12689TIP3   OH259481   5.525   5.178   1.668 -0.3591  0.0794 -1.0027
12689TIP3    H159482   5.470   5.102   1.647 -1.8363  0.7004  0.4484
12689TIP3    H259483   5.463   5.249   1.685  0.9609  1.2941 -1.0808
12690TIP3   OH259484   3.592   6.667  17.151  0.0714  0.7494  0.0412
12690TIP3    H159485   3.590   6.585  17.102  0.9388  0.7659 -0.0413
12690TIP3    H259486   3.511   6.666  17.203  0.2326 -0.3124  0.2977
12691TIP3   OH259487   2.402   4.371  12.652  0.1136  0.4306  0.1483
12691TIP3    H159488   2.332   4.424  12.615 -0.7411  1.7405  3.3003
12691TIP3    H259489   2.390   4.377  12.747  1.3837 -3.5749  0.7766
12692TIP3   OH259490   6.451   1.391   5.546 -0.1758 -0.1814  0.1875
12692TIP3    H159491   6.390   1.317   5.550 -0.0939 -0.2428  0.3223
12692TIP3    H259492   6.494   1.382   5.461  0.1046 -0.5079  0.3598
12693TIP3   OH259493   6.218   2.443   2.788 -0.0706  0.0869  0.5854
12693TIP3    H159494   6.168   2.397   2.856 -2.1729  1.6036  0.1651
12693TIP3    H259495   6.175   2.417   2.706  0.1163  1.0732  0.1637
12694TIP3   OH259496   1.051   2.563  12.571  0.1192  0.7677 -0.1910
12694TIP3    H159497   1.071   2.476  12.535  0.9806  0.5583  0.7496
12694TIP3    H259498   0.966   2.552  12.613  0.4035  0.2696  0.2623
12695TIP3   OH259499   3.897   1.689  16.265  0.2660  0.7609 -0.4668
12695TIP3    H159500   3.992   1.676  16.260 -0.0805 -2.3572 -0.5095
12695TIP3    H259501   3.886   1.757  16.332  2.4616 -0.3727  1.1505
12696TIP3   OH259502   4.689   2.862   5.247 -0.5780 -0.2609 -0.0007
12696TIP3    H159503   4.620   2.847   5.312 -2.0335  1.1744 -1.1380
12696TIP3    H259504   4.683   2.955   5.227 -0.6070 -0.7617 -2.6194
12697TIP3   OH259505   3.379   5.818   0.446 -0.2322 -0.5322  0.5670
12697TIP3    H159506   3.404   5.849   0.359  0.3144 -1.6851  0.2951
12697TIP3    H259507   3.286   5.796   0.438 -1.0115  2.2114  1.1319
12698TIP3   OH259508   3.566   0.648   4.754  0.2072 -0.4660 -0.6050
12698TIP3    H159509   3.583   0.741   4.739 -1.2106 -0.3698 -1.8741
12698TIP3    H259510   3.503   0.646   4.827 -1.0756 -0.2907 -1.6651
12699TIP3   OH259511   4.714   6.526  15.584 -0.1158  0.5017  0.5429
12699TIP3    H159512   4.722   6.459  15.516  1.3598  2.0283 -0.8596
12699TIP3    H259513   4.795   6.517  15.635  1.3883  2.8153 -1.2526
12700TIP3   OH259514   5.576   0.090  12.916  0.8421 -0.2747 -0.5673
12700TIP3    H159515   5.602   0.001  12.892 -1.7081 -1.5251  0.9474
12700TIP3    H259516   5.503   0.110  12.857 -0.4380 -0.3628  0.9173
12701TIP3   OH259517   3.608   6.571   1.970  0.4262  0.3071  0.3544
12701TIP3    H159518   3.552   6.642   1.938 -0.0677 -1.3101 -2.8105
12701TIP3    H259519   3.551   6.521   2.029 -0.0839  1.0516  0.5127
12702TIP3   OH259520   0.003   4.893  15.802 -0.1383 -0.3253  0.0282
12702TIP3    H159521  -0.063   4.826  15.822 -0.7938  0.4157  0.3670
12702TIP3    H259522   0.074   4.875  15.863 -0.7746 -0.0445  0.8651
12703TIP3   OH259523   2.439   1.516  15.805  0.3161 -0.0059  0.6168
12703TIP3    H159524   2.500   1.457  15.850  1.7619  0.6294 -0.4289
12703TIP3    H259525   2.474   1.604  15.820 -0.3440  0.3812 -0.0268
12704TIP3   OH259526   3.886   0.658  12.120  0.6716 -0.2404  0.0293
12704TIP3    H159527   3.835   0.688  12.195  2.7678 -0.1766  1.5174
12704TIP3    H259528   3.821   0.634  12.054 -1.3128 -1.5501  2.3228
12705TIP3   OH259529   4.681   2.808   3.092  0.2750  0.2341 -0.0501
12705TIP3    H159530   4.765   2.831   3.052  0.7637  1.5557  1.6110
12705TIP3    H259531   4.696   2.821   3.186 -1.9255  0.9354  0.2443
12706TIP3   OH259532   4.483   6.304  16.573 -0.4143 -0.4739  0.0187
12706TIP3    H159533   4.437   6.382  16.544  1.0243  0.2176 -0.4922
12706TIP3    H259534   4.499   6.254  16.493  0.0358 -0.5216  0.1323
12707TIP3   OH259535   5.082   0.003   2.902  0.8444  0.2029 -0.0304
12707TIP3    H159536   5.074   0.097   2.883 -1.6046 -0.1096 -0.8681
12707TIP3    H259537   5.015  -0.038   2.848  1.0176 -1.9272  1.2650
12708TIP3   OH259538   3.334   0.889  14.870  0.1448 -0.5098  0.1387
12708TIP3    H159539   3.390   0.875  14.947  0.8027  1.8726  0.1611
12708TIP3    H259540   3.366   0.825  14.806  1.5225 -0.5919  0.8645
12709TIP3   OH259541   3.830   6.529  12.947  0.1920 -0.2280 -0.4176
12709TIP3    H159542   3.834   6.552  12.854 -1.8711 -0.4365 -0.6019
12709TIP3    H259543   3.884   6.596  12.990  1.0619 -0.0490 -1.7266
12710TIP3   OH259544   6.583   5.075   5.297  0.1650 -0.2328  0.5729
12710TIP3    H159545   6.502   5.097   5.252  0.3398  0.4303  0.5797
12710TIP3    H259546   6.598   4.982   5.276 -1.1789 -0.6802  1.4688
12711TIP3   OH259547   4.542   3.349  16.127 -0.2216  0.0577  0.6883
12711TIP3    H159548   4.548   3.440  16.098  1.7296 -0.2126  0.0662
12711TIP3    H259549   4.626   3.331  16.169 -0.3378 -1.5992  0.3111
12712TIP3   OH259550   1.279   2.283   4.607 -0.1812 -0.2366  0.4505
12712TIP3    H159551   1.248   2.357   4.555  0.2508 -0.3229  0.0675
12712TIP3    H259552   1.368   2.267   4.576 -0.1564 -0.7105  0.7574
12713TIP3   OH259553   0.305   2.174  10.631 -0.2502 -0.7528  0.0596
12713TIP3    H159554   0.240   2.233  10.668  0.9864  0.8414 -0.1797
12713TIP3    H259555   0.286   2.172  10.538  1.1062  1.2314 -0.3204
12714TIP3   OH259556   1.595   1.575   2.574  0.1716  0.2934 -0.3555
12714TIP3    H159557   1.515   1.585   2.625  0.5624 -1.1438  0.5737
12714TIP3    H259558   1.574   1.509   2.508  0.5384  0.0206 -0.2050
12715TIP3   OH259559   0.995   1.344  13.256 -0.5127 -0.2619  0.0290
12715TIP3    H159560   1.062   1.378  13.315  0.6574 -1.5290 -0.5017
12715TIP3    H259561   1.014   1.384  13.171 -0.4179 -0.6058 -0.1173
12716TIP3   OH259562   1.384   3.187  14.642  0.3881 -0.0593 -0.4069
12716TIP3    H159563   1.470   3.151  14.661 -0.0814 -0.3807  1.2530
12716TIP3    H259564   1.352   3.220  14.726  0.2200  3.0515 -1.5443
12717TIP3   OH259565   4.620   1.528  13.106  0.2514 -0.1149  0.2751
12717TIP3    H159566   4.586   1.587  13.173  0.1067 -0.4853  0.5313
12717TIP3    H259567   4.543   1.499  13.057 -0.2900 -3.1330  2.5819
12718TIP3   OH259568   1.690   3.817  12.512 -0.5414 -0.2927 -0.0133
12718TIP3    H159569   1.624   3.880  12.540  0.8309  1.8282 -1.2208
12718TIP3    H259570   1.731   3.787  12.593 -0.5183  1.2261  0.5606
12719TIP3   OH259571   5.451   3.087   0.847 -0.2400 -0.0726  0.0269
12719TIP3    H159572   5.483   3.176   0.831  1.4372 -0.5027  0.7517
12719TIP3    H259573   5.387   3.097   0.917 -1.7899  0.8235 -1.4554
12720TIP3   OH259574   6.679   3.878   2.859 -0.4130  0.3267  0.4337
12720TIP3    H159575   6.620   3.844   2.792 -0.0129 -0.4031  0.4359
12720TIP3    H259576   6.752   3.816   2.860 -0.1534  0.6311  1.1701
12721TIP3   OH259577   0.797   0.150  11.377 -0.2338  0.7848  0.0612
12721TIP3    H159578   0.724   0.097  11.410 -0.4671 -0.0280 -1.6380
12721TIP3    H259579   0.820   0.109  11.294  1.3033  1.8322 -0.0670
12722TIP3   OH259580   4.060   2.156  13.352  0.3919  0.2497  1.2381
12722TIP3    H159581   4.017   2.150  13.438 -0.5842  2.5665  0.9673
12722TIP3    H259582   4.130   2.219  13.364  1.8053 -1.1824  0.8671
12723TIP3   OH259583   3.801   1.538  13.985 -0.0402 -0.5608  0.6664
12723TIP3    H159584   3.761   1.620  14.015 -1.1629 -0.2731 -1.4535
12723TIP3    H259585   3.727   1.486  13.954  0.8860 -1.5395  0.0753
12724TIP3   OH259586   2.294   2.503   2.726  0.3234  0.1838  0.0431
12724TIP3    H159587   2.221   2.555   2.761  0.7870  0.1029  1.1872
12724TIP3    H259588   2.252   2.426   2.688 -0.3062  0.9600 -0.8938
12725TIP3   OH259589   1.719   3.164  11.176 -0.2719  0.2742 -0.0932
12725TIP3    H159590   1.692   3.183  11.086  0.9742 -0.7873 -0.7194
12725TIP3    H259591   1.637   3.145  11.222 -0.7497 -2.9327 -1.9557
12726TIP3   OH259592   2.207   6.699   3.152 -0.0946 -0.3506 -0.6755
12726TIP3    H159593   2.176   6.682   3.241  0.5285  0.7154 -0.2368
12726TIP3    H259594   2.152   6.643   3.097  0.7472 -2.4867  0.5143
12727TIP3   OH259595   0.971   4.063   2.155  0.0149 -0.2061  0.5587
12727TIP3    H159596   0.886   4.024   2.176 -0.1537 -0.2679 -0.2311
12727TIP3    H259597   1.020   4.059   2.238 -0.3389 -1.2053  0.7362
12728TIP3   OH259598   4.580   1.280  14.467  1.0460  0.3307 -0.3569
12728TIP3    H159599   4.600   1.339  14.394  1.0527 -0.2482 -0.8214
12728TIP3    H259600   4.537   1.337  14.532  2.3479  1.1738 -0.1835
12729TIP3   OH259601   5.879   1.154  17.153  0.1420  0.2249  0.3620
12729TIP3    H159602   5.790   1.139  17.119 -0.4080  1.3710  1.2022
12729TIP3    H259603   5.888   1.249  17.155  1.3077  0.1267  0.5219
12730TIP3   OH259604   1.243   5.900   1.006 -0.1345 -0.3211 -0.4086
12730TIP3    H159605   1.301   5.906   0.930  0.0906 -0.0182 -0.2110
12730TIP3    H259606   1.155   5.893   0.967  0.1208 -2.0894 -0.7282
12731TIP3   OH259607   3.113   2.126  13.762  0.0088 -0.3996 -0.1153
12731TIP3    H159608   3.203   2.111  13.791 -0.3002 -1.3761  0.4024
12731TIP3    H259609   3.080   2.193  13.822  0.6467  0.6061 -0.8619
12732TIP3   OH259610   5.712   6.205  17.184  0.2302  0.1394 -0.3313
12732TIP3    H159611   5.785   6.216  17.123 -0.6144 -0.4690 -1.4860
12732TIP3    H259612   5.661   6.286  17.174 -0.4705 -0.4030 -1.2229
12733TIP3   OH259613   5.017   1.978  13.540 -0.3742  0.3418  0.7420
12733TIP3    H159614   5.107   2.010  13.539 -0.1296 -0.1438 -2.3913
12733TIP3    H259615   5.001   1.952  13.631  2.2403  1.4736  1.5952
12734TIP3   OH259616   0.673   1.217  16.250  0.0796  0.0342 -0.4595
12734TIP3    H159617   0.752   1.192  16.298 -0.4037  0.7572  0.7473
12734TIP3    H259618   0.632   1.134  16.225  0.8984 -0.3444 -0.5839
12735TIP3   OH259619   5.902   3.331   3.425 -0.0056 -0.3149 -0.0577
12735TIP3    H159620   5.920   3.425   3.432  0.3140 -0.3964  0.2734
12735TIP3    H259621   5.832   3.325   3.360  0.0461  0.1431 -0.1639
12736TIP3   OH259622   3.902   0.742  17.056 -0.7631 -0.0408  0.7149
12736TIP3    H159623   3.820   0.695  17.042 -0.9793 -0.0160  1.7682
12736TIP3    H259624   3.874   0.831  17.080 -0.3995  0.1974  0.2681
12737TIP3   OH259625   1.997   2.022  13.502 -0.0629  0.3361 -0.4383
12737TIP3    H159626   2.080   2.036  13.548  1.2515  0.3991 -2.6833
12737TIP3    H259627   1.933   2.073  13.553  1.2316  0.2668  1.3733
12738TIP3   OH259628   5.296   1.785  15.913 -0.1839 -0.1636 -0.0889
12738TIP3    H159629   5.203   1.769  15.928 -0.1401 -0.0595  0.3023
12738TIP3    H259630   5.320   1.725  15.843 -0.5785 -0.0945 -0.2852
12739TIP3   OH259631   2.184   0.444  13.233  0.2561  0.0396 -0.0527
12739TIP3    H159632   2.112   0.465  13.293 -0.8528 -0.9124 -0.9902
12739TIP3    H259633   2.246   0.515  13.244 -0.5161  0.5413  1.2879
12740TIP3   OH259634   3.856   5.581  13.199 -0.1464 -0.3893 -0.5814
12740TIP3    H159635   3.822   5.654  13.251  1.7339  0.9152 -1.0993
12740TIP3    H259636   3.779   5.545  13.155 -1.4773 -0.2389  1.4669
12741TIP3   OH259637   3.522   2.642   4.756  0.0780 -0.1592  0.2069
12741TIP3    H159638   3.466   2.697   4.701  1.6361 -0.7934 -2.1893
12741TIP3    H259639   3.478   2.556   4.755  1.2288 -0.8137 -2.1462
12742TIP3   OH259640   2.354   3.645  14.218  0.0880 -0.2757 -0.3740
12742TIP3    H159641   2.276   3.663  14.270  0.4641 -0.8272  0.4014
12742TIP3    H259642   2.369   3.551  14.229  1.5003  0.0127  0.4110
12743TIP3   OH259643   2.496   2.538  10.521 -0.0741  0.1620 -0.0256
12743TIP3    H159644   2.456   2.477  10.583 -0.6583 -0.5708 -1.0933
12743TIP3    H259645   2.494   2.622  10.566 -1.4935 -0.1367  0.5402
12744TIP3   OH259646   1.141   5.956   4.842  0.0132  0.1402 -0.1888
12744TIP3    H159647   1.196   5.987   4.914  0.1217  0.0342 -0.2250
12744TIP3    H259648   1.098   6.035   4.809  1.2036  0.4566 -1.0631
12745TIP3   OH259649   1.412   4.847   5.139 -0.1573 -0.3071 -0.5898
12745TIP3    H159650   1.348   4.776   5.134  0.2096 -0.6532 -0.5380
12745TIP3    H259651   1.496   4.801   5.147  0.1560  0.1286 -1.3319
12746TIP3   OH259652   1.634   1.360  15.123 -0.6035 -1.2384 -0.0706
12746TIP3    H159653   1.634   1.321  15.036 -1.2485  0.8109 -1.0590
12746TIP3    H259654   1.545   1.395  15.134 -0.0815 -0.0625  0.7072
12747TIP3   OH259655   6.613   4.636   4.605 -0.6319  0.6989 -0.1707
12747TIP3    H159656   6.593   4.545   4.583  0.3279 -0.0822  1.9201
12747TIP3    H259657   6.540   4.664   4.660  0.7267 -0.1121  2.2472
12748TIP3   OH259658   1.336   4.548   4.852 -0.1683 -0.5436  0.2589
12748TIP3    H159659   1.421   4.554   4.808 -0.0431 -1.2162  0.3992
12748TIP3    H259660   1.275   4.521   4.783 -0.1209 -0.8115  0.3191
12749TIP3   OH259661   6.089   2.185  13.723 -0.2384 -0.0468  0.1806
12749TIP3    H159662   6.158   2.245  13.749  1.0806 -1.3183 -0.2529
12749TIP3    H259663   6.021   2.241  13.685  0.9174  1.1575 -0.1672
12750TIP3   OH259664   1.039   5.177  13.034  0.7467 -0.6093  0.6710
12750TIP3    H159665   0.993   5.151  12.954 -0.3921 -2.2645  1.7844
12750TIP3    H259666   1.131   5.178  13.010  0.3466  0.1604 -0.9650
12751TIP3   OH259667   2.511   2.533   2.225  0.0741 -0.1553  0.6232
12751TIP3    H159668   2.477   2.555   2.138 -0.2611  0.3905  0.8843
12751TIP3    H259669   2.565   2.609   2.249  1.6114 -1.0592  0.1629
12752TIP3   OH259670   4.071   3.637  14.255  0.0303  0.6005 -0.0476
12752TIP3    H159671   4.022   3.719  14.252 -1.2459 -0.0807  0.8917
12752TIP3    H259672   4.118   3.639  14.338 -1.2167 -0.2346  0.7176
12753TIP3   OH259673   0.276   3.388   3.226  0.4393  0.2315  0.0659
12753TIP3    H159674   0.336   3.334   3.277 -0.0154 -0.6405 -0.3180
12753TIP3    H259675   0.308   3.478   3.240  1.4770 -0.1646  0.3370
12754TIP3   OH259676   0.314   3.263  13.216 -0.1287  0.7032  0.3564
12754TIP3    H159677   0.238   3.217  13.178  0.3404 -0.6062  0.9280
12754TIP3    H259678   0.367   3.288  13.140 -0.0728 -0.3296  0.0282
12755TIP3   OH259679   1.688   1.102   2.144 -0.2768 -0.6907  0.3554
12755TIP3    H159680   1.630   1.045   2.194  0.0612 -0.4153  1.0659
12755TIP3    H259681   1.759   1.044   2.115 -0.0825 -0.6934  0.8318
12756TIP3   OH259682   0.568   5.770  16.622  0.0193  0.3165 -0.0421
12756TIP3    H159683   0.578   5.686  16.666 -0.7013 -0.3916 -1.1628
12756TIP3    H259684   0.508   5.752  16.550  0.7288  1.5367 -0.9897
12757TIP3   OH259685   1.324   4.680   1.999 -0.1326 -0.0122  0.0358
12757TIP3    H159686   1.389   4.744   1.968 -0.6288  0.4694 -0.0219
12757TIP3    H259687   1.291   4.719   2.081 -2.2497  1.0591 -1.2578
12758TIP3   OH259688   5.631   4.414  12.736  0.3935  0.6737  0.0343
12758TIP3    H159689   5.722   4.419  12.706  0.9415 -1.4529  1.1713
12758TIP3    H259690   5.583   4.374  12.664  1.4571 -3.1929  1.2349
12759TIP3   OH259691   5.649   0.175  14.820  0.1042  0.8774  0.0287
12759TIP3    H159692   5.606   0.146  14.739  0.1869  1.8569 -0.3744
12759TIP3    H259693   5.596   0.135  14.889 -0.3945  0.6056 -0.4924
12760TIP3   OH259694   1.207   0.714   0.520 -0.1841  0.6667  0.1347
12760TIP3    H159695   1.242   0.634   0.559 -0.7251 -0.8814 -2.3057
12760TIP3    H259696   1.123   0.727   0.564 -0.9455 -1.2141 -0.6421
12761TIP3   OH259697   5.751   3.717   1.082 -0.1564 -0.6526  0.0567
12761TIP3    H159698   5.747   3.631   1.040  0.6707 -0.1677 -1.0749
12761TIP3    H259699   5.834   3.716   1.130  0.7372  0.1010 -1.3927
12762TIP3   OH259700   2.781   4.162   3.733 -0.7550  0.7706  0.4828
12762TIP3    H159701   2.831   4.164   3.815  0.0933  2.2736 -0.0328
12762TIP3    H259702   2.815   4.087   3.685 -1.9574 -0.7445  1.8933
12763TIP3   OH259703   6.587   3.765  13.415 -0.3907 -0.5347 -0.2238
12763TIP3    H159704   6.554   3.851  13.388 -0.2064  0.2873  1.9837
12763TIP3    H259705   6.617   3.777  13.505 -0.7522 -3.0216  0.3174
12764TIP3   OH259706   3.113   1.604  12.870  0.3140  0.1762  0.3005
12764TIP3    H159707   3.145   1.524  12.913  0.6845 -0.5354 -1.2316
12764TIP3    H259708   3.017   1.598  12.878  0.3821  0.1614  1.1831
12765TIP3   OH259709   4.408   0.414   0.227  0.8867  0.0083  0.4293
12765TIP3    H159710   4.367   0.399   0.142  1.9176  1.0375 -0.2777
12765TIP3    H259711   4.358   0.359   0.288 -0.1725 -0.3745 -0.7468
12766TIP3   OH259712   0.121   5.894  12.439 -0.1022  0.1831  0.6525
12766TIP3    H159713   0.150   5.804  12.425 -0.2039 -0.0372  1.7308
12766TIP3    H259714   0.027   5.887  12.455 -0.8210  0.8671 -2.5710
12767TIP3   OH259715   4.693   1.952   6.278  0.0607  0.1613 -0.4967
12767TIP3    H159716   4.651   2.017   6.221 -1.7088 -0.1566  0.3759
12767TIP3    H259717   4.762   2.001   6.322 -1.0725  1.4421 -0.0481
12768TIP3   OH259718   1.041   1.521   4.938 -0.2557 -0.5094 -0.6028
12768TIP3    H159719   0.986   1.458   4.891 -1.2994  0.1439 -0.2756
12768TIP3    H259720   0.981   1.587   4.970  0.9226  1.2192 -1.7616
12769TIP3   OH259721   0.911   4.051   0.867  0.0201  0.2554  0.1798
12769TIP3    H159722   1.005   4.034   0.878  0.4491  1.8005 -0.7998
12769TIP3    H259723   0.902   4.079   0.776 -1.7468 -1.8908 -0.3904
12770TIP3   OH259724   1.492   3.648  12.672  0.3336  0.1191  0.8894
12770TIP3    H159725   1.440   3.715  12.626  2.5920  1.0581 -0.4731
12770TIP3    H259726   1.433   3.572  12.678 -1.1006  1.0139 -0.8162
12771TIP3   OH259727   4.253   6.337   0.176 -0.3956 -0.5668 -1.0140
12771TIP3    H159728   4.223   6.303   0.092  0.1952  1.5403 -2.1637
12771TIP3    H259729   4.308   6.267   0.212 -1.5116 -1.9281 -1.8639
12772TIP3   OH259730   4.183   1.680  16.276  0.3033 -0.2714 -0.5856
12772TIP3    H159731   4.266   1.659  16.319 -0.3789 -0.0573  0.9178
12772TIP3    H259732   4.205   1.745  16.210  0.9842  1.9081  1.6528
12773TIP3   OH259733   2.192   4.481   0.289  0.0206 -0.3752  0.1849
12773TIP3    H159734   2.102   4.478   0.256 -0.1140 -0.9749  0.5982
12773TIP3    H259735   2.186   4.450   0.379  0.1297  2.6476  1.3671
12774TIP3   OH259736   0.056   5.618  16.313 -0.3217  0.5200  0.4929
12774TIP3    H159737   0.073   5.594  16.222 -1.1197  0.9939  0.2138
12774TIP3    H259738   0.084   5.710  16.319  0.4083  0.2795  0.9201
12775TIP3   OH259739   4.423   3.384   3.610 -0.0859 -0.0125 -0.0269
12775TIP3    H159740   4.402   3.456   3.670 -1.6809 -1.0848  0.7736
12775TIP3    H259741   4.447   3.427   3.528 -0.1240  1.4459  0.7024
12776TIP3   OH259742   3.854   5.792  13.631 -0.4577 -0.0615  0.3753
12776TIP3    H159743   3.840   5.832  13.716 -2.4833  1.7123 -0.6789
12776TIP3    H259744   3.795   5.716  13.630 -1.0225  0.3684  0.3068
12777TIP3   OH259745   2.937   2.820  15.422 -0.2177  0.1383 -0.1066
12777TIP3    H159746   2.871   2.797  15.356  0.6827  0.0685 -0.9999
12777TIP3    H259747   2.896   2.890  15.473 -0.8913  0.2583 -0.7999
12778TIP3   OH259748   4.087   0.103   2.539 -0.0035 -0.9347  0.3075
12778TIP3    H159749   4.001   0.126   2.505 -0.4953 -0.2530  1.8922
12778TIP3    H259750   4.149   0.142   2.478 -0.7920 -1.7942 -1.0870
12779TIP3   OH259751   5.030   6.736  16.032  0.0801 -0.7860  0.6586
12779TIP3    H159752   5.024   6.757  16.125  0.3066  1.1917  0.2604
12779TIP3    H259753   5.123   6.741  16.012 -0.0964  0.2650  0.0321
12780TIP3   OH259754   3.197   2.913  13.717  0.3948  0.5023 -0.5554
12780TIP3    H159755   3.257   2.847  13.752 -0.1722 -0.7213 -1.8213
12780TIP3    H259756   3.217   2.917  13.623 -1.4586  0.0824 -1.0042
12781TIP3   OH259757   5.735   1.773  11.276  0.0871 -0.3403  0.0294
12781TIP3    H159758   5.740   1.678  11.261  0.9802  0.0095 -2.2067
12781TIP3    H259759   5.652   1.799  11.236 -0.0999 -0.1470  0.5390
12782TIP3   OH259760   0.175   3.482   4.682 -0.1693 -0.0690 -0.1570
12782TIP3    H159761   0.110   3.510   4.618 -0.3244  1.1853  0.5261
12782TIP3    H259762   0.260   3.502   4.641 -0.2311 -0.2946 -0.4060
12783TIP3   OH259763   2.206   6.004  13.530 -0.2971 -0.0056  0.1542
12783TIP3    H159764   2.195   5.909  13.520  0.9647 -0.2823  1.0385
12783TIP3    H259765   2.140   6.029  13.595  0.4624 -0.5947  1.1798
12784TIP3   OH259766   6.465   0.796   3.463  0.6936 -0.2470  0.2799
12784TIP3    H159767   6.507   0.836   3.539 -1.5737 -0.9120  2.0163
12784TIP3    H259768   6.396   0.858   3.438 -0.2033 -1.1660  0.4055
12785TIP3   OH259769   1.042   3.407  15.671 -0.6826 -0.0644 -0.3026
12785TIP3    H159770   1.008   3.456  15.746  1.6751 -0.1469  0.9295
12785TIP3    H259771   1.011   3.455  15.594  0.1934  2.5032  0.8165
12786TIP3   OH259772   3.158   5.681   2.542  0.2849  0.0117  0.2449
12786TIP3    H159773   3.113   5.749   2.491 -1.1145  2.6525  4.3984
12786TIP3    H259774   3.122   5.599   2.510 -3.4457  1.6963 -0.4518
12787TIP3   OH259775   2.501   5.742  16.923 -0.8028 -0.0955  0.4460
12787TIP3    H159776   2.444   5.679  16.967  0.9753 -0.5237  2.2533
12787TIP3    H259777   2.535   5.694  16.847 -0.0545 -1.0926  1.3802
12788TIP3   OH259778   3.653   1.109  16.377  0.5470  0.3809  0.2315
12788TIP3    H159779   3.599   1.035  16.349  0.1285 -0.1525  2.3001
12788TIP3    H259780   3.738   1.094  16.335  0.0497 -0.5224 -0.4878
12789TIP3   OH259781   0.373   6.727  13.796 -0.2739  0.2988 -0.4247
12789TIP3    H159782   0.298   6.783  13.818  0.0740  0.5608  0.1056
12789TIP3    H259783   0.446   6.788  13.787  0.0195 -0.0256 -0.2477
12790TIP3   OH259784   1.322   5.674   6.443  0.1163 -0.8122  0.1866
12790TIP3    H159785   1.267   5.742   6.404  0.1917 -0.8572 -0.0018
12790TIP3    H259786   1.412   5.707   6.433  0.0845 -0.4119  1.1326
12791TIP3   OH259787   1.684   2.141   6.632 -0.2669  0.4322  0.7080
12791TIP3    H159788   1.649   2.204   6.695 -3.5254 -0.2037 -0.3028
12791TIP3    H259789   1.610   2.084   6.610  1.6534 -1.5993 -1.0280
12792TIP3   OH259790   0.379   1.389   5.563 -1.0777  0.2853  0.2509
12792TIP3    H159791   0.387   1.338   5.482 -0.9917 -0.1411  0.5242
12792TIP3    H259792   0.422   1.335   5.629  0.1526  1.2867  0.3006
12793TIP3   OH259793   3.862   4.163  14.865 -0.6838  0.0496  0.1647
12793TIP3    H159794   3.938   4.190  14.917 -0.7125  0.3105  0.0740
12793TIP3    H259795   3.789   4.164  14.926 -0.6361 -0.0780  0.2233
12794TIP3   OH259796   2.316   0.675  16.246 -0.2982 -0.9866  0.4916
12794TIP3    H159797   2.379   0.678  16.174 -1.0925 -0.2644 -0.1990
12794TIP3    H259798   2.341   0.598  16.298  0.2172 -1.5881 -0.6235
12795TIP3   OH259799   5.253   4.998   5.041 -0.6342  0.2456 -0.7767
12795TIP3    H159800   5.288   5.040   5.120 -1.1706  0.0058 -0.4023
12795TIP3    H259801   5.303   4.916   5.034 -1.4462 -0.3462  0.0563
12796TIP3   OH259802   5.485   2.835   3.771 -0.7961  0.3630  0.2569
12796TIP3    H159803   5.485   2.745   3.738  0.0654  1.0370 -1.7514
12796TIP3    H259804   5.548   2.881   3.715 -1.9393  2.4421  0.5721
12797TIP3   OH259805   0.322   0.761  13.818 -0.0608 -0.2581 -0.3202
12797TIP3    H159806   0.278   0.678  13.801 -0.6114 -0.2623  0.9946
12797TIP3    H259807   0.373   0.745  13.898  1.1731  0.1833 -0.9916
12798TIP3   OH259808   4.248   0.963  16.126 -0.7908 -0.0655  0.0131
12798TIP3    H159809   4.239   0.998  16.215  1.2266 -0.5221  0.4563
12798TIP3    H259810   4.246   1.040  16.070 -2.7300  0.1868  0.3427
12799TIP3   OH259811   6.543   3.310  13.813 -0.0522 -0.0882 -0.6405
12799TIP3    H159812   6.631   3.346  13.809  0.1381 -0.5470 -0.6268
12799TIP3    H259813   6.550   3.224  13.771 -0.1767 -0.7302  0.6143
12800TIP3   OH259814   3.253   3.789  13.892 -0.8080  0.3796  0.1373
12800TIP3    H159815   3.204   3.738  13.827 -0.2776  0.5106 -0.3723
12800TIP3    H259816   3.249   3.737  13.972 -1.3072  0.1251 -0.0525
12801TIP3   OH259817   0.852   2.669   3.348 -0.1408 -0.2992 -0.4607
12801TIP3    H159818   0.859   2.695   3.439  0.5039 -0.9135 -0.3216
12801TIP3    H259819   0.921   2.719   3.303  0.9267 -1.5096 -0.2368
12802TIP3   OH259820   1.078   1.499  13.053 -0.6983  0.3818 -0.5948
12802TIP3    H159821   1.053   1.589  13.031  0.0327  0.9763  0.8505
12802TIP3    H259822   1.173   1.502  13.058 -0.6021 -0.7350 -1.5292
12803TIP3   OH259823   3.278   3.970  11.450  0.3636 -0.0506 -0.0464
12803TIP3    H159824   3.318   4.053  11.422  2.0532 -0.9816 -0.4887
12803TIP3    H259825   3.269   3.979  11.545  0.5910  0.6004 -0.0804
12804TIP3   OH259826   3.725   4.881  14.203  0.8978  0.2024 -0.0198
12804TIP3    H159827   3.805   4.886  14.255  0.7748 -0.6901  0.2761
12804TIP3    H259828   3.674   4.811  14.244 -0.7473  1.7568  0.7557
12805TIP3   OH259829   4.845   1.470   0.832 -0.5731  0.4773  0.9698
12805TIP3    H159830   4.928   1.511   0.807 -1.2220  0.6658 -1.1168
12805TIP3    H259831   4.863   1.428   0.916  0.6294  3.5070  2.4011
12806TIP3   OH259832   6.382   6.015  11.708  0.1648 -0.5080  0.3216
12806TIP3    H159833   6.382   6.011  11.804  2.1394  0.0139  0.3787
12806TIP3    H259834   6.453   6.075  11.687 -2.4187  2.2172 -1.4151
12807TIP3   OH259835   5.787   6.626  14.919  0.4036 -0.1781  0.1054
12807TIP3    H159836   5.797   6.540  14.961 -1.9739 -1.0670 -1.0174
12807TIP3    H259837   5.711   6.665  14.963  0.3114  0.5464 -0.6875
12808TIP3   OH259838   1.813   2.002   2.693 -0.3810 -0.4053 -0.0919
12808TIP3    H159839   1.781   1.923   2.650  0.8406 -0.4333 -1.0044
12808TIP3    H259840   1.909   1.996   2.685 -0.0912 -0.3232  2.4911
12809TIP3   OH259841   5.394   3.944  14.880 -0.1940  0.4050  0.1819
12809TIP3    H159842   5.372   3.863  14.833  0.9821 -0.1086  0.4784
12809TIP3    H259843   5.342   3.941  14.960 -2.6131  1.5258 -1.2279
12810TIP3   OH259844   4.209   5.055  13.021 -0.1185  0.3267  0.2185
12810TIP3    H159845   4.248   5.140  13.042  0.2167 -0.1833  1.7757
12810TIP3    H259846   4.284   4.996  13.012 -0.2889  0.3726 -1.8682
12811TIP3   OH259847   5.458   5.532  15.432 -1.0358  0.0111  0.6916
12811TIP3    H159848   5.395   5.601  15.411 -0.4540  0.4755  0.4274
12811TIP3    H259849   5.414   5.479  15.498 -1.3897  0.8140  1.1221
12812TIP3   OH259850   0.263   3.567  14.800 -0.8113  0.2298  0.3714
12812TIP3    H159851   0.307   3.598  14.721  0.0652  0.6823  1.0161
12812TIP3    H259852   0.171   3.563  14.776 -0.4896 -0.2001 -0.8458
12813TIP3   OH259853   1.500   4.578   3.740 -0.5422  0.5028  0.2491
12813TIP3    H159854   1.582   4.541   3.774 -0.0411  2.5948  1.4742
12813TIP3    H259855   1.451   4.502   3.709  0.7688 -1.1045  1.8649
12814TIP3   OH259856   0.662   4.646   3.729  0.6141 -0.0049  0.2922
12814TIP3    H159857   0.652   4.672   3.638  0.8546  0.0169  0.2713
12814TIP3    H259858   0.655   4.727   3.779  3.0005  0.3762  0.1172
12815TIP3   OH259859   2.290   6.453   2.317  0.3669  0.2669 -0.0446
12815TIP3    H159860   2.319   6.544   2.327 -0.3441  0.3617  1.2921
12815TIP3    H259861   2.362   6.411   2.270  1.6637  1.0473  1.1453
12816TIP3   OH259862   0.393   2.476  15.896  0.2030  0.1931 -0.5566
12816TIP3    H159863   0.440   2.510  15.820 -0.8446 -1.4031 -1.9920
12816TIP3    H259864   0.338   2.549  15.924  0.8035  0.9014 -1.1561
12817TIP3   OH259865   5.252   3.167  17.119 -0.3865 -0.1299  0.7181
12817TIP3    H159866   5.226   3.197  17.033 -1.1331 -1.1437  0.5687
12817TIP3    H259867   5.239   3.242  17.177  0.6064  0.7105 -0.1239
12818TIP3   OH259868   0.020   2.142   4.572 -0.4608  0.0975  0.2328
12818TIP3    H159869  -0.013   2.207   4.635  1.2471 -0.2229  1.5091
12818TIP3    H259870  -0.017   2.171   4.488 -1.3394  1.5814  1.0716
12819TIP3   OH259871   3.014   6.131   4.470  0.0080  0.2387  0.1033
12819TIP3    H159872   2.920   6.152   4.471 -0.0490  0.0778 -0.9855
12819TIP3    H259873   3.019   6.043   4.433  0.7290  1.1582 -2.1383
12820TIP3   OH259874   3.583   3.212  12.871 -0.3397  0.2287  0.6340
12820TIP3    H159875   3.608   3.149  12.938 -0.7001  1.8382  2.3548
12820TIP3    H259876   3.663   3.259  12.849 -0.5806  0.9972  1.3671
12821TIP3   OH259877   5.578   4.203   6.039 -0.2649 -0.1072  0.1081
12821TIP3    H159878   5.673   4.199   6.031 -0.2304 -2.5868  0.8119
12821TIP3    H259879   5.563   4.216   6.132 -0.5922 -0.1654  0.0640
12822TIP3   OH259880   3.903   0.146  15.511  0.5621  0.1361 -0.2232
12822TIP3    H159881   3.926   0.222  15.458 -0.6407  0.0744 -0.8721
12822TIP3    H259882   3.820   0.115  15.474  2.5511 -3.5102 -2.2323
12823TIP3   OH259883   6.221   1.731  15.312 -0.4880  0.7898  0.1519
12823TIP3    H159884   6.208   1.819  15.349 -1.8713  1.2873 -1.3981
12823TIP3    H259885   6.280   1.745  15.238 -0.4939  0.3608  0.0666
12824TIP3   OH259886   0.030   6.592   0.003 -0.4892 -0.1980  0.3576
12824TIP3    H159887   0.081   6.632  -0.068 -0.1416 -0.5014  0.4316
12824TIP3    H259888   0.076   6.511   0.022 -0.9875 -0.4593  0.4543
12825TIP3   OH259889   4.976   2.626   4.976  0.0123  0.0945 -0.2732
12825TIP3    H159890   4.903   2.592   4.924  0.2558 -0.3708 -0.3114
12825TIP3    H259891   4.995   2.557   5.039  0.4391  0.2080 -0.2761
12826TIP3   OH259892   0.838   3.117  14.060  0.1679  0.1014 -0.2496
12826TIP3    H159893   0.814   3.100  13.969 -0.4304 -0.7374  0.0483
12826TIP3    H259894   0.756   3.142  14.103  0.4400  0.4783  0.0608
12827TIP3   OH259895   2.227   4.542  16.260  0.0323 -0.7577  0.2977
12827TIP3    H159896   2.296   4.608  16.262 -1.2854  0.6916 -0.1984
12827TIP3    H259897   2.271   4.463  16.230  1.3487  0.2950 -0.7122
12828TIP3   OH259898   0.154   5.341  13.292 -0.2877  0.2506 -0.2943
12828TIP3    H159899   0.062   5.365  13.300 -1.6297 -4.2468  0.5373
12828TIP3    H259900   0.161   5.299  13.206  0.4981 -0.9761  0.3297
12829TIP3   OH259901   4.641   2.336   3.645 -0.1971  0.0474  0.5848
12829TIP3    H159902   4.569   2.385   3.606 -0.9813  0.0964  2.0093
12829TIP3    H259903   4.698   2.403   3.683 -0.2650 -0.0583  0.8767
12830TIP3   OH259904   2.009   2.085  11.302  0.0522 -0.2888  0.2926
12830TIP3    H159905   1.932   2.028  11.296 -1.1114  1.3103 -1.5966
12830TIP3    H259906   2.000   2.130  11.386  1.1277 -2.9328  1.9312
12831TIP3   OH259907   3.875   3.906   0.112 -0.6368  0.1072  0.4183
12831TIP3    H159908   3.947   3.860   0.068 -0.9043  0.6000 -0.5652
12831TIP3    H259909   3.828   3.837   0.159  0.0827 -0.3215  0.5286
12832TIP3   OH259910   2.414   4.291   2.342 -0.2814 -0.4708 -0.1853
12832TIP3    H159911   2.421   4.274   2.436  0.6118  0.0435 -0.1422
12832TIP3    H259912   2.497   4.262   2.306 -0.7924 -1.0859 -0.8961
12833TIP3   OH259913   1.103   1.792  12.961  0.0643 -0.2446  0.0210
12833TIP3    H159914   1.008   1.790  12.949  0.1908  0.8187 -1.4270
12833TIP3    H259915   1.121   1.879  12.998  0.7265  0.9990 -2.9407
12834TIP3   OH259916   1.364   1.336   1.025  0.0542 -1.0348 -0.1829
12834TIP3    H159917   1.458   1.325   1.037  0.3572  0.3480 -1.0983
12834TIP3    H259918   1.352   1.349   0.931 -0.8499  0.3459  0.0778
12835TIP3   OH259919   6.663   2.546   4.418 -0.8996  0.6980  0.7136
12835TIP3    H159920   6.571   2.520   4.425 -0.6693  0.1453  1.9551
12835TIP3    H259921   6.666   2.637   4.448 -1.3730  1.5308 -1.5753
12836TIP3   OH259922   4.624   0.273   0.917 -0.3418  0.3728 -0.7342
12836TIP3    H159923   4.571   0.225   0.853  1.7411 -0.1869 -2.1633
12836TIP3    H259924   4.562   0.329   0.963 -2.6724 -2.5338 -0.0347
12837TIP3   OH259925   1.394   0.499  12.479 -0.1511 -0.3343  0.3311
12837TIP3    H159926   1.475   0.448  12.476  1.2714  1.8453 -1.6217
12837TIP3    H259927   1.382   0.518  12.572  1.2445 -1.2161  0.7261
12838TIP3   OH259928   2.407   3.147  13.576 -0.1397 -0.0335 -0.1865
12838TIP3    H159929   2.385   3.221  13.520 -0.3898 -1.1182 -1.5670
12838TIP3    H259930   2.364   3.072  13.535  0.7293 -1.0775  0.7511
12839TIP3   OH259931   4.305   2.778  14.697 -0.1507 -0.5652  0.6042
12839TIP3    H159932   4.347   2.738  14.621 -1.5817  0.9427 -1.0690
12839TIP3    H259933   4.338   2.867  14.700 -0.5171 -0.4411  1.4476
12840TIP3   OH259934   2.528   2.128  11.172  0.5441 -0.4005  0.2693
12840TIP3    H159935   2.586   2.116  11.247  0.1098  1.0690  0.8720
12840TIP3    H259936   2.462   2.190  11.202 -1.0285 -1.5856 -0.5889
12841TIP3   OH259937   0.719   1.591  15.240 -0.0623  0.0556  0.4623
12841TIP3    H159938   0.641   1.609  15.187 -0.8757 -1.6677  1.0075
12841TIP3    H259939   0.691   1.608  15.330  0.6684  0.8986  0.5435
12842TIP3   OH259940   1.725   2.147  16.250  0.2640  0.0137 -0.1576
12842TIP3    H159941   1.738   2.216  16.186 -0.0876 -0.9280 -1.2856
12842TIP3    H259942   1.802   2.091  16.241 -0.8869 -1.4504 -1.5305
12843TIP3   OH259943   2.217   6.620  13.506  0.4382 -0.5993 -0.2794
12843TIP3    H159944   2.204   6.614  13.601  1.7769 -1.1840 -0.1231
12843TIP3    H259945   2.168   6.699  13.481  2.2146  1.1042  1.3118
12844TIP3   OH259946   2.712   4.019  15.979 -0.0476 -0.2648 -0.5438
12844TIP3    H159947   2.740   3.958  15.910 -1.3228 -2.1254  0.5017
12844TIP3    H259948   2.793   4.043  16.023  0.4819 -1.4356 -0.8178
12845TIP3   OH259949   1.286   0.789   2.506 -0.0570 -0.0315 -0.1418
12845TIP3    H159950   1.310   0.870   2.461 -0.7887  0.3080  0.0504
12845TIP3    H259951   1.338   0.790   2.586  0.2150  0.0666 -0.3192
12846TIP3   OH259952   5.879   4.795  14.045 -0.0783  0.2347 -0.3811
12846TIP3    H159953   5.934   4.757  13.976  1.4264  1.7625 -0.0764
12846TIP3    H259954   5.808   4.839  13.998 -1.4956 -2.2513 -0.7650
12847TIP3   OH259955   1.307   6.258  15.737 -0.1653 -0.5245 -0.4422
12847TIP3    H159956   1.298   6.213  15.821 -1.1790 -2.0611 -1.3230
12847TIP3    H259957   1.264   6.342  15.750  0.0201 -0.5913  0.6839
12848TIP3   OH259958   0.405   4.847  12.589 -0.3850 -0.9423 -0.3729
12848TIP3    H159959   0.453   4.913  12.638 -1.2181 -1.1527  0.7593
12848TIP3    H259960   0.456   4.835  12.509  1.1822 -0.8028  0.5647
12849TIP3   OH259961   3.085   6.687  11.040  0.0473  0.0606 -0.6107
12849TIP3    H159962   3.172   6.727  11.051  1.2929 -2.9519  2.2170
12849TIP3    H259963   3.055   6.671  11.129 -2.9222 -0.1578 -1.5521
12850TIP3   OH259964   0.802   6.452  11.734  0.3519  0.1279  0.3240
12850TIP3    H159965   0.715   6.434  11.769 -0.1535  1.7467 -0.0473
12850TIP3    H259966   0.830   6.533  11.775  1.2032  0.2475 -0.4318
12851TIP3   OH259967   5.810   6.141   3.407  0.0793  0.2092 -0.0595
12851TIP3    H159968   5.846   6.230   3.409 -0.1758  0.3260 -0.6402
12851TIP3    H259969   5.752   6.138   3.483  0.8791  0.1972  0.5697
12852TIP3   OH259970   4.998   3.354  11.382 -0.4400 -0.5516 -0.0001
12852TIP3    H159971   4.960   3.368  11.469 -0.0909 -2.3006  0.4747
12852TIP3    H259972   4.937   3.396  11.322 -0.7602  0.5706  1.0701
12853TIP3   OH259973   0.996   1.572  15.561 -0.4805  0.0720 -0.1757
12853TIP3    H159974   1.058   1.584  15.633 -1.3291  0.2179  0.5375
12853TIP3    H259975   0.915   1.610  15.592 -0.8743  0.1086 -1.2046
12854TIP3   OH259976   6.772   0.489  15.857 -0.1458 -0.3356  0.0858
12854TIP3    H159977   6.733   0.488  15.945 -0.2399  0.9334  0.0729
12854TIP3    H259978   6.854   0.538  15.869 -0.2835  0.0577 -0.5896
12855TIP3   OH259979   6.199   6.209  15.364  0.1534 -0.2926  0.6667
12855TIP3    H159980   6.241   6.247  15.288 -1.3830  0.1386  0.0021
12855TIP3    H259981   6.207   6.114  15.351  0.9420 -0.2240  0.5922
12856TIP3   OH259982   5.251   0.015  17.061  0.0667 -0.1325 -0.1395
12856TIP3    H159983   5.222  -0.028  16.981 -0.7872 -2.8613  1.5270
12856TIP3    H259984   5.172   0.025  17.114  0.7601  0.7489  0.7865
12857TIP3   OH259985   4.306   1.357  13.855  0.3173  0.2071 -0.5153
12857TIP3    H159986   4.216   1.360  13.889  1.2174  1.5277  1.9796
12857TIP3    H259987   4.336   1.268  13.875 -0.0832  0.0865 -0.4281
12858TIP3   OH259988   4.109   6.476   1.528 -0.4704  0.1577  0.7732
12858TIP3    H159989   4.053   6.517   1.593 -3.6345 -1.3908 -0.7345
12858TIP3    H259990   4.116   6.540   1.457 -0.5305  0.2740  0.8747
12859TIP3   OH259991   5.017   0.199  12.060 -0.5337 -0.0748  0.3755
12859TIP3    H159992   5.096   0.231  12.016  1.4726 -1.2152  2.8912
12859TIP3    H259993   5.037   0.108  12.083 -3.1498 -0.8305 -0.0727
12860TIP3   OH259994   4.778   3.325  14.605  0.4646 -0.1689 -0.4351
12860TIP3    H159995   4.816   3.413  14.603  0.5571 -0.1931  0.1012
12860TIP3    H259996   4.841   3.273  14.656  1.4265 -1.0324 -2.3842
12861TIP3   OH259997   1.434   0.613  13.268 -0.6142 -0.0506  0.0151
12861TIP3    H159998   1.348   0.643  13.297 -0.3590  0.4613  0.2722
12861TIP3    H259999   1.426   0.518  13.261 -1.7521  0.1335 -1.8308
12862TIP3   OH260000   1.331   0.623   1.008 -0.1940 -0.0321 -0.3927
12862TIP3    H160001   1.303   0.572   1.084 -2.2138  0.5612 -0.6861
12862TIP3    H260002   1.266   0.693   1.001  1.1254  1.1472 -1.4618
12863TIP3   OH260003   3.561   4.456  11.459 -0.3298  0.1421  0.3195
12863TIP3    H160004   3.610   4.479  11.538 -0.3477  1.1669  0.0403
12863TIP3    H260005   3.471   4.481  11.478 -0.6418 -1.0698  0.5511
12864TIP3   OH260006   4.726   1.242   2.135  0.4789  0.6190  0.0098
12864TIP3    H160007   4.655   1.202   2.085 -0.2909  0.9580  0.8137
12864TIP3    H260008   4.805   1.222   2.084 -0.1975  0.3425 -0.9575
12865TIP3   OH260009   4.751   1.704  11.251 -0.4746  0.2054  0.2177
12865TIP3    H160010   4.837   1.666  11.268 -0.7322 -0.1654  0.6787
12865TIP3    H260011   4.732   1.758  11.328 -1.7106 -1.6051  1.2403
12866TIP3   OH260012   2.984   3.562  14.014 -0.4655  0.1804 -0.6641
12866TIP3    H160013   3.040   3.486  14.030 -1.5627 -0.6990 -0.8175
12866TIP3    H260014   2.995   3.617  14.091  0.4506 -0.0751 -0.6076
12867TIP3   OH260015   1.370   1.893  15.353  0.0513 -0.3615 -0.7272
12867TIP3    H160016   1.410   1.949  15.286 -0.0736 -1.0619 -1.4025
12867TIP3    H260017   1.442   1.875  15.414  0.4733 -0.6580 -1.3010
12868TIP3   OH260018   5.230   1.164   4.100  0.4295 -0.0976 -0.1034
12868TIP3    H160019   5.245   1.258   4.091  0.3524 -0.0137  0.5567
12868TIP3    H260020   5.306   1.123   4.061 -0.4098  0.1828 -2.1625
12869TIP3   OH260021   5.100   2.260  13.459  0.4890 -0.0159 -0.0965
12869TIP3    H160022   5.153   2.183  13.435  0.5194 -0.1562  0.4175
12869TIP3    H260023   5.010   2.232  13.442  0.2732 -1.0647  2.4013
12870TIP3   OH260024   1.041   2.121   5.491  0.3305 -0.1432 -0.1113
12870TIP3    H160025   1.057   2.038   5.446 -0.7054 -1.1302  1.2322
12870TIP3    H260026   1.011   2.095   5.579 -2.9700  1.5472 -0.5830
12871TIP3   OH260027   2.872   0.630   0.193 -0.0166  0.2263 -0.5535
12871TIP3    H160028   2.880   0.725   0.202 -0.2788  0.0846  2.0795
12871TIP3    H260029   2.956   0.602   0.156  0.7374  1.3436  0.2598
12872TIP3   OH260030   0.882   4.300   4.719  0.2324  0.3717  0.8732
12872TIP3    H160031   0.912   4.330   4.633 -0.7321  0.4509  0.5608
12872TIP3    H260032   0.861   4.208   4.706  3.2106 -0.5805  1.8348
12873TIP3   OH260033   4.616   0.498  10.650 -0.2551 -0.1345 -0.7554
12873TIP3    H160034   4.701   0.485  10.691 -0.1756 -1.6464 -1.3525
12873TIP3    H260035   4.569   0.556  10.711  1.6600  1.9414 -1.1089
12874TIP3   OH260036   3.607   1.646   3.316  0.0665 -0.0956  0.1545
12874TIP3    H160037   3.630   1.561   3.277  0.6713 -0.6353  1.6225
12874TIP3    H260038   3.648   1.645   3.402  1.2516  2.2582 -0.2946
12875TIP3   OH260039   2.368   2.835  13.999  0.2700 -0.7011  0.2256
12875TIP3    H160040   2.322   2.755  13.975 -0.8330  0.4702 -1.8119
12875TIP3    H260041   2.302   2.890  14.042  0.2124  0.2260 -0.9891
12876TIP3   OH260042   3.163   4.155  13.488 -0.3667 -0.2955 -0.0661
12876TIP3    H160043   3.212   4.090  13.539  0.3763  0.1102 -0.2400
12876TIP3    H260044   3.072   4.144  13.515 -0.2007 -1.1692  0.1653
12877TIP3   OH260045   0.403   1.851  12.376 -0.3904  0.4723  0.7615
12877TIP3    H160046   0.329   1.894  12.334 -0.4521  1.1531  1.5454
12877TIP3    H260047   0.364   1.776  12.421 -0.5974  0.8072  1.1414
12878TIP3   OH260048   5.876   6.321   5.430  0.6608  0.4121  0.1577
12878TIP3    H160049   5.854   6.334   5.522  1.1081  0.3903  0.2691
12878TIP3    H260050   5.924   6.238   5.428 -0.4801 -0.2568 -0.2805
12879TIP3   OH260051   4.306   5.440   5.432  0.0035  0.4360 -0.6534
12879TIP3    H160052   4.370   5.372   5.451  0.4575  1.1234  0.3315
12879TIP3    H260053   4.322   5.462   5.340 -0.2617 -0.8921 -1.0263
12880TIP3   OH260054   5.754   5.734   6.517 -0.2641  0.1395  0.6230
12880TIP3    H160055   5.725   5.643   6.509  1.4503 -0.4916  1.1209
12880TIP3    H260056   5.845   5.732   6.489  0.2212  1.4451  2.0048
12881TIP3   OH260057   4.732   1.840   0.234 -0.3502 -0.2557 -1.0183
12881TIP3    H160058   4.782   1.856   0.314 -0.3355 -0.2209 -1.0346
12881TIP3    H260059   4.682   1.760   0.253 -1.6994  0.7031 -0.3022
12882TIP3   OH260060   1.890   5.729  12.019  0.8468  0.0150  0.1700
12882TIP3    H160061   1.968   5.720  11.963  0.3454  1.9366 -0.9275
12882TIP3    H260062   1.831   5.785  11.968 -0.2646  0.5701  2.0059
12883TIP3   OH260063   4.113   6.242   1.048  0.0546  0.6576 -0.7036
12883TIP3    H160064   4.050   6.222   1.117  0.8717 -0.5342 -0.2737
12883TIP3    H260065   4.197   6.243   1.093  0.4656  1.1348 -1.4711
12884TIP3   OH260066   5.839   1.646  13.773 -0.1010 -0.4933  0.5173
12884TIP3    H160067   5.895   1.573  13.797 -0.9720 -1.3198  0.1055
12884TIP3    H260068   5.876   1.679  13.692 -0.4716 -1.3475 -0.0171
12885TIP3   OH260069   6.659   5.119   1.971 -0.1658  0.2915 -0.5854
12885TIP3    H160070   6.681   5.132   2.064  2.0298  0.0359 -1.0153
12885TIP3    H260071   6.739   5.142   1.924 -0.8587 -0.7158 -2.3582
12886TIP3   OH260072   3.778   3.270  13.712  0.4500 -0.0046 -0.4438
12886TIP3    H160073   3.736   3.188  13.687  0.6549 -0.2189 -0.0898
12886TIP3    H260074   3.871   3.250  13.712  0.5028  0.2360 -0.3738
12887TIP3   OH260075   3.017   0.940   4.814 -0.2912  0.1046  0.3957
12887TIP3    H160076   3.089   0.899   4.767 -1.4053 -0.0939 -1.2338
12887TIP3    H260077   2.977   0.869   4.863  1.0571  0.3691  1.9697
12888TIP3   OH260078   5.887   0.396  14.295 -0.2687 -0.3407  0.3556
12888TIP3    H160079   5.982   0.389  14.285 -0.2468 -2.1531  1.4718
12888TIP3    H260080   5.853   0.384  14.206  0.5255  0.0393 -0.0065
12889TIP3   OH260081   6.073   6.565   5.665 -0.3664  0.6937  0.0543
12889TIP3    H160082   6.086   6.590   5.756 -0.4836 -0.2911  0.3619
12889TIP3    H260083   6.111   6.477   5.659 -0.8836  0.5114 -0.6960
12890TIP3   OH260084   0.251   3.879  10.958 -0.1525 -0.1842 -0.4893
12890TIP3    H160085   0.267   3.797  10.911  1.7491  0.1581 -0.4818
12890TIP3    H260086   0.156   3.889  10.955 -0.7317 -3.5081  1.3980
12891TIP3   OH260087   6.287   3.387  13.669  0.0796  0.1305 -0.5238
12891TIP3    H160088   6.345   3.404  13.594 -0.1805  0.2753 -0.6945
12891TIP3    H260089   6.340   3.408  13.746 -0.4108  2.3576 -0.7316
12892TIP3   OH260090   5.103   3.775  11.593 -0.6695  0.3492  0.1463
12892TIP3    H160091   5.081   3.829  11.517  0.0261  0.7316  0.2115
12892TIP3    H260092   5.142   3.696  11.555 -0.4759  0.4667  0.1008
12893TIP3   OH260093   0.649   4.200   1.169  0.2652  0.0486 -0.2190
12893TIP3    H160094   0.656   4.291   1.141 -0.1645  0.8390  2.0978
12893TIP3    H260095   0.679   4.199   1.259 -2.0231 -1.6473  0.6268
12894TIP3   OH260096   2.965   3.726   0.867  0.1444 -0.5134 -0.3899
12894TIP3    H160097   2.930   3.638   0.882  1.8645 -1.1511  0.2154
12894TIP3    H260098   3.026   3.715   0.794 -0.6944  0.4944 -1.2659
12895TIP3   OH260099   0.524   3.569   0.633 -0.1661  0.1416 -0.2397
12895TIP3    H160100   0.603   3.516   0.637 -0.0425  0.2741  3.8784
12895TIP3    H260101   0.553   3.656   0.662 -1.7729  0.1482  1.5098
12896TIP3   OH260102   5.179   6.046  14.867  0.3221  0.0051  1.2019
12896TIP3    H160103   5.167   6.115  14.801 -1.4780  1.2059  2.6619
12896TIP3    H260104   5.166   5.964  14.819 -1.9301  0.8792  0.1925
12897TIP3   OH260105   0.513   1.556   2.740  0.2623  0.2606 -0.5394
12897TIP3    H160106   0.550   1.576   2.825  1.7760  0.6565 -1.2638
12897TIP3    H260107   0.444   1.491   2.758  0.8660 -0.0024  0.9157
12898TIP3   OH260108   6.022   1.897  16.416 -0.0704 -0.6519  0.0584
12898TIP3    H160109   5.984   1.825  16.466 -0.1119 -1.6453 -1.3327
12898TIP3    H260110   6.115   1.894  16.437 -0.1235 -0.8943  0.2681
12899TIP3   OH260111   5.843   4.488  13.807 -0.1803  0.1909  0.4601
12899TIP3    H160112   5.829   4.564  13.751  0.3360  0.8704  1.2347
12899TIP3    H260113   5.766   4.433  13.793  0.4848 -0.2706 -1.8471
12900TIP3   OH260114   5.315   2.046  12.176  0.2026 -0.3664 -0.1289
12900TIP3    H160115   5.259   2.046  12.254 -0.4687  0.0842 -0.5980
12900TIP3    H260116   5.316   1.955  12.148 -0.2801 -0.3812 -0.1046
12901TIP3   OH260117   2.657   5.989  16.287 -0.5053 -0.0554  0.4655
12901TIP3    H160118   2.589   5.923  16.291  0.6380 -1.3525 -0.4555
12901TIP3    H260119   2.656   6.019  16.196  0.5653 -0.5893  0.2541
12902TIP3   OH260120   3.317   0.813  12.424 -0.2373  0.2469 -0.3176
12902TIP3    H160121   3.387   0.837  12.362 -0.4088  1.1480 -0.1738
12902TIP3    H260122   3.272   0.740  12.382 -0.3106  0.8039 -1.2367
12903TIP3   OH260123   4.908   1.277   4.730 -0.2199  0.7696  0.0433
12903TIP3    H160124   4.834   1.331   4.703 -0.1078  0.4120 -1.0526
12903TIP3    H260125   4.883   1.241   4.814 -1.5865  0.1217 -0.6130
12904TIP3   OH260126   6.266   0.350  17.178  0.1678  0.1477  0.0319
12904TIP3    H160127   6.311   0.391  17.105 -1.5185  1.8512 -0.1047
12904TIP3    H260128   6.333   0.294  17.219  1.9378  1.3732 -1.0686
12905TIP3   OH260129   5.743   3.628   3.103 -0.1082 -0.0782  0.0590
12905TIP3    H160130   5.772   3.621   3.194  1.5110 -0.2262 -0.4323
12905TIP3    H260131   5.782   3.710   3.072  1.2982 -1.1326 -1.1218
12906TIP3   OH260132   2.669   4.647  14.940  0.3695  0.3699  0.1541
12906TIP3    H160133   2.684   4.724  14.885  0.7649  0.1038 -0.1165
12906TIP3    H260134   2.751   4.598  14.936 -0.4353 -0.9625 -1.1085
12907TIP3   OH260135   1.353   2.535  11.149 -0.3221  0.0495 -0.2349
12907TIP3    H160136   1.385   2.623  11.130  0.8260  0.1151  1.7787
12907TIP3    H260137   1.367   2.486  11.068 -1.1810  1.7337 -1.4537
12908TIP3   OH260138   2.893   4.267  13.787  0.0476 -0.6153  0.4231
12908TIP3    H160139   2.894   4.337  13.852 -0.4841 -1.6153  1.5439
12908TIP3    H260140   2.881   4.312  13.703 -1.9529  0.5444  1.2612
12909TIP3   OH260141   2.057   3.184  11.427 -0.1099 -0.0937  0.0576
12909TIP3    H160142   1.992   3.239  11.382  0.6335  0.8739  0.1313
12909TIP3    H260143   2.094   3.241  11.494 -1.5533 -1.6400  2.3014
12910TIP3   OH260144   6.311   4.272   3.186  0.2094 -0.2072 -0.1367
12910TIP3    H160145   6.238   4.276   3.248  0.2374 -0.1644 -0.1063
12910TIP3    H260146   6.281   4.213   3.117 -0.4509  0.9654 -0.8937
12911TIP3   OH260147   2.879   6.060  16.415 -0.2650  0.1260 -0.0553
12911TIP3    H160148   2.801   6.016  16.382 -0.4698  1.2967 -1.1938
12911TIP3    H260149   2.939   5.988  16.438 -0.7830 -0.7587 -1.3709
12912TIP3   OH260150   4.516   6.289   0.708  0.5698  0.7054 -0.2252
12912TIP3    H160151   4.475   6.345   0.773 -0.9698  0.8168 -1.2374
12912TIP3    H260152   4.510   6.201   0.745 -1.4052  0.5994 -0.6910
12913TIP3   OH260153   2.606   0.826  16.943  0.0740  0.0440 -0.4997
12913TIP3    H160154   2.685   0.869  16.911  1.4080 -2.7523 -1.2121
12913TIP3    H260155   2.635   0.774  17.018 -0.7565 -1.9932 -1.5181
12914TIP3   OH260156   6.040   1.754  16.146  0.6635  0.4510 -0.1538
12914TIP3    H160157   5.959   1.804  16.133  0.4886  0.1096 -0.3858
12914TIP3    H260158   6.057   1.759  16.240 -1.0787 -1.6748  0.3621
12915TIP3   OH260159   3.091   0.094   6.597 -0.1785 -0.0022 -0.5018
12915TIP3    H160160   3.083   0.011   6.550 -1.7010 -1.5588  2.2042
12915TIP3    H260161   3.146   0.072   6.673 -0.8747  1.3754  0.4349
12916TIP3   OH260162   4.002   5.361  14.129 -0.2356  0.2674 -0.4534
12916TIP3    H160163   3.979   5.270  14.109 -0.4500  0.4146 -0.8969
12916TIP3    H260164   3.940   5.413  14.077 -2.0932  0.6895  1.9927
12917TIP3   OH260165   5.915   5.341   4.685 -0.0058 -0.0201 -0.0645
12917TIP3    H160166   5.946   5.278   4.620  0.1870  0.1643 -0.1521
12917TIP3    H260167   5.949   5.425   4.655  0.2139  0.0446  0.3549
12918TIP3   OH260168   4.472   1.205  16.501  0.1325  0.1547 -0.3473
12918TIP3    H160169   4.555   1.236  16.465  0.8226 -2.1730 -0.9210
12918TIP3    H260170   4.475   1.231  16.593  1.3828  0.3552 -0.4265
12919TIP3   OH260171   2.250   1.639   2.935 -0.1226 -0.1840 -0.2453
12919TIP3    H160172   2.258   1.653   3.030  0.2891  1.6117 -0.4936
12919TIP3    H260173   2.181   1.700   2.908 -0.2886 -0.7405 -1.0931
12920TIP3   OH260174   6.679   5.907  13.949  0.4152  0.4064  0.2022
12920TIP3    H160175   6.756   5.963  13.958  0.7049  0.0553 -0.0602
12920TIP3    H260176   6.640   5.905  14.036  0.2874  1.1797  0.1648
12921TIP3   OH260177   2.680   5.173   1.306 -0.0239  0.6847 -0.2435
12921TIP3    H160178   2.663   5.079   1.299  2.8724  0.0520 -0.1049
12921TIP3    H260179   2.605   5.208   1.354 -0.1716 -1.9472  1.6410
12922TIP3   OH260180   0.191   5.764   0.260  0.1725 -0.3459  0.6068
12922TIP3    H160181   0.171   5.708   0.335  0.3613 -0.8983  0.2526
12922TIP3    H260182   0.209   5.703   0.188  1.7853  0.1240  0.5641
12923TIP3   OH260183   0.501   1.491  14.487 -0.1170  0.6736 -0.5965
12923TIP3    H160184   0.486   1.575  14.531 -0.9065  0.6651 -0.8180
12923TIP3    H260185   0.520   1.430  14.557  1.6599  1.2668 -0.5265
12924TIP3   OH260186   3.804   2.392  13.290 -0.3677 -0.1975 -0.2997
12924TIP3    H160187   3.830   2.369  13.201  0.5779 -1.5734  0.3003
12924TIP3    H260188   3.733   2.455  13.279 -0.6675 -0.7955 -2.0183
12925TIP3   OH260189   2.673   1.022   0.422 -0.6192 -0.0800  0.2838
12925TIP3    H160190   2.601   1.016   0.485 -0.4826  0.5587  0.5114
12925TIP3    H260191   2.663   1.108   0.382 -0.3418 -0.2343 -0.1282
12926TIP3   OH260192   3.169   6.574   5.731  0.6787  0.0385  0.1040
12926TIP3    H160193   3.089   6.615   5.763 -0.2069 -0.1161 -1.7546
12926TIP3    H260194   3.230   6.579   5.804 -1.4422 -1.0547  2.0679
12927TIP3   OH260195   2.924   1.801  15.849 -0.5372  0.3853  0.9740
12927TIP3    H160196   2.875   1.851  15.914  0.8012  0.1172  2.2302
12927TIP3    H260197   3.009   1.843  15.845 -0.1178 -0.4759  0.4359
12928TIP3   OH260198   2.855   3.341   3.693  0.4370 -0.4825 -0.0965
12928TIP3    H160199   2.950   3.328   3.694  0.3050 -1.4733  0.1282
12928TIP3    H260200   2.828   3.315   3.604  0.1576 -1.9868  0.3940
12929TIP3   OH260201   3.624   0.788  14.190 -0.3558 -0.6579  0.2283
12929TIP3    H160202   3.699   0.781  14.131 -0.7186 -1.6324 -0.1325
12929TIP3    H260203   3.555   0.825  14.135 -0.5722 -1.1710  0.1538
12930TIP3   OH260204   3.192   0.283   1.929 -0.0328 -0.3189 -0.2335
12930TIP3    H160205   3.259   0.344   1.960  0.3455 -0.5385 -0.6067
12930TIP3    H260206   3.241   0.202   1.909 -0.6250 -1.0032  0.9607
12931TIP3   OH260207   0.838   5.789  11.937  0.4042 -0.1530  0.4484
12931TIP3    H160208   0.778   5.827  12.002 -0.4412  1.4501 -1.1841
12931TIP3    H260209   0.804   5.701  11.922 -0.1509 -0.0863  1.2335
12932TIP3   OH260210   4.679   5.133  11.817  0.7301 -0.0692  0.3672
12932TIP3    H160211   4.746   5.103  11.879 -0.5404 -1.9008  0.9349
12932TIP3    H260212   4.620   5.186  11.870  1.3090  0.9484  0.0196
12933TIP3   OH260213   3.608   6.606   4.849 -0.1695 -0.6340  0.0506
12933TIP3    H160214   3.673   6.633   4.914  0.9989 -0.5423 -1.1327
12933TIP3    H260215   3.581   6.687   4.807 -0.9933 -0.6862  0.4536
12934TIP3   OH260216   0.152   2.649   2.858  0.3634  0.0781  0.0300
12934TIP3    H160217   0.088   2.655   2.787 -1.0146 -1.5215  1.0668
12934TIP3    H260218   0.201   2.569   2.840  2.2364  1.3382 -0.8095
12935TIP3   OH260219   3.347   3.725  12.514  0.4519  0.2882 -0.3378
12935TIP3    H160220   3.341   3.719  12.609  0.4549  2.5096 -0.1530
12935TIP3    H260221   3.409   3.796  12.498  0.1829  0.1883 -2.0020
12936TIP3   OH260222   5.589   2.993  16.594 -0.3422 -0.6146  0.0496
12936TIP3    H160223   5.674   2.976  16.553 -0.4151 -2.4497  0.5348
12936TIP3    H260224   5.536   3.032  16.525  1.3567  2.2177  0.2153
12937TIP3   OH260225   0.432   3.292  14.764 -0.0847  0.6224 -0.1751
12937TIP3    H160226   0.355   3.321  14.814 -0.5429 -1.9563  0.7987
12937TIP3    H260227   0.505   3.306  14.824 -0.4824 -1.3363  0.8727
12938TIP3   OH260228   1.210   6.156   0.694 -0.2624 -0.3245  0.2559
12938TIP3    H160229   1.251   6.073   0.671 -1.2821 -0.9886  0.7860
12938TIP3    H260230   1.284   6.217   0.704  0.6859 -1.6316  1.8218
12939TIP3   OH260231   0.346   0.200  12.313  0.4778  0.3445  0.1923
12939TIP3    H160232   0.288   0.130  12.286  0.5817  0.6790 -0.9219
12939TIP3    H260233   0.416   0.201  12.248  1.3295  0.4487  1.0800
12940TIP3   OH260234   3.834   3.864   3.019 -0.5753  0.0320 -0.2493
12940TIP3    H160235   3.788   3.929   2.966 -1.3798 -1.7861 -1.9297
12940TIP3    H260236   3.927   3.877   2.998 -0.6587  1.0193 -0.0638
12941TIP3   OH260237   5.488   4.999  17.072 -0.5471 -0.1839 -0.1881
12941TIP3    H160238   5.544   5.056  17.018 -0.5007 -0.3551 -0.3205
12941TIP3    H260239   5.468   4.925  17.015 -1.0118 -0.0664 -0.1846
12942TIP3   OH260240   1.626   1.944   3.087  0.2304  0.0061 -0.1639
12942TIP3    H160241   1.582   2.024   3.116  1.5397  1.9283 -3.0291
12942TIP3    H260242   1.710   1.974   3.052  1.2188 -2.7851 -0.4332
12943TIP3   OH260243   1.779   3.817  12.975  0.3742  0.3087  0.2606
12943TIP3    H160244   1.751   3.859  12.894  1.8070 -0.3867 -0.6433
12943TIP3    H260245   1.725   3.738  12.981 -1.5437  1.6338  1.3843
12944TIP3   OH260246   0.648   5.217   4.435 -0.5318  0.0213  0.5389
12944TIP3    H160247   0.720   5.280   4.429 -0.2758 -0.1607  1.4614
12944TIP3    H260248   0.642   5.177   4.349  0.7205 -0.2276  0.5570
12945TIP3   OH260249   3.599   2.862  15.810  0.2320 -0.1179  0.1947
12945TIP3    H160250   3.665   2.804  15.848  0.1798  0.5194  1.3059
12945TIP3    H260251   3.603   2.941  15.865  1.7893  1.8434 -2.4795
12946TIP3   OH260252   5.758   2.527  15.620 -0.0005  0.3110  0.0705
12946TIP3    H160253   5.825   2.574  15.669  1.8949  0.3678 -2.4092
12946TIP3    H260254   5.766   2.436  15.649  1.1845  0.3204 -0.1868
12947TIP3   OH260255   2.375   6.671   1.290 -0.3551 -0.7936 -0.6807
12947TIP3    H160256   2.413   6.656   1.377  1.5338 -1.7877 -1.6318
12947TIP3    H260257   2.294   6.719   1.308  1.5553  2.0281  1.4543
12948TIP3   OH260258   3.967   5.841   3.778  0.2140 -0.0892  0.1183
12948TIP3    H160259   3.909   5.896   3.830  1.0333  2.3724 -1.4064
12948TIP3    H260260   4.041   5.822   3.836  0.5723  1.6342  0.2686
12949TIP3   OH260261   0.284   4.693  16.925  0.0558 -0.0761 -0.3434
12949TIP3    H160262   0.222   4.637  16.972 -1.7328  2.7348  0.9279
12949TIP3    H260263   0.266   4.675  16.833  0.7202 -2.7100 -0.0313
12950TIP3   OH260264   5.574   3.704   0.217  0.0489 -0.2880  0.0209
12950TIP3    H160265   5.651   3.755   0.242 -1.1813  0.8068  1.7430
12950TIP3    H260266   5.561   3.724   0.124  2.4383 -1.3600 -0.6213
12951TIP3   OH260267   1.056   2.482   4.120  0.4211  0.3445  0.3880
12951TIP3    H160268   0.995   2.555   4.116  0.5174  0.3817 -1.5327
12951TIP3    H260269   1.000   2.404   4.121  0.3165  0.4063 -0.1766
12952TIP3   OH260270   4.757   6.463  11.020 -0.0563 -0.1237 -0.5814
12952TIP3    H160271   4.703   6.536  10.989  0.5377 -0.2920 -2.0967
12952TIP3    H260272   4.717   6.386  10.981  0.4638 -0.4004 -0.5725
12953TIP3   OH260273   3.432   2.051  15.697 -0.1881 -0.5260 -0.3881
12953TIP3    H160274   3.441   1.962  15.729  0.7141 -0.0520  0.7311
12953TIP3    H260275   3.338   2.070  15.707 -0.2045 -0.9784  0.3742
12954TIP3   OH260276   1.680   2.332  15.569  0.0129  0.4320  0.3680
12954TIP3    H160277   1.619   2.352  15.641 -1.8869 -0.4913 -0.9029
12954TIP3    H260278   1.667   2.403  15.507 -1.6922 -0.9831 -1.0250
12955TIP3   OH260279   3.109   3.430   5.359 -0.8741 -0.4886 -0.6158
12955TIP3    H160280   3.138   3.339   5.347  2.7682  0.5206 -0.5953
12955TIP3    H260281   3.120   3.446   5.452 -1.5420 -0.0057 -0.6148
12956TIP3   OH260282   1.309   1.927  16.222 -0.0004  0.0538 -0.3959
12956TIP3    H160283   1.401   1.921  16.249  0.2706 -0.9784 -1.4775
12956TIP3    H260284   1.311   1.974  16.139 -0.5247  0.6015 -0.1042
12957TIP3   OH260285   0.605   5.984   0.246  0.4927  0.0303  0.2476
12957TIP3    H160286   0.510   5.990   0.232  0.4193  0.5955  0.9321
12957TIP3    H260287   0.616   5.988   0.341  1.1933 -0.2177  0.1810
12958TIP3   OH260288   1.764   1.935   4.240 -0.3294  0.3643  0.2456
12958TIP3    H160289   1.680   1.945   4.286 -0.5737 -1.8732  0.4304
12958TIP3    H260290   1.826   1.912   4.309  0.5581  2.3622  0.1574
12959TIP3   OH260291   5.908   3.256  15.950 -0.0285  0.2358  0.5444
12959TIP3    H160292   5.988   3.296  15.916 -0.0910 -0.1865 -0.1238
12959TIP3    H260293   5.928   3.163  15.957 -0.0457  0.2966  1.6155
12960TIP3   OH260294   0.655   2.617   1.540  0.2281 -0.2086  0.0471
12960TIP3    H160295   0.620   2.538   1.501  1.4203 -0.6279 -0.2011
12960TIP3    H260296   0.737   2.634   1.493  1.0455 -0.0128  1.4791
12961TIP3   OH260297   0.071   3.433  16.099 -0.3973  0.1631 -0.0196
12961TIP3    H160298   0.077   3.528  16.107 -0.0046  0.0444  1.4317
12961TIP3    H260299   0.145   3.400  16.150 -1.3655 -0.9386  0.7271
12962TIP3   OH260300   0.558   4.075  16.630  0.5976 -0.8969  0.9487
12962TIP3    H160301   0.604   4.065  16.713  0.1862 -1.2431  1.1354
12962TIP3    H260302   0.506   3.995  16.621  1.1110 -1.1379  0.0641
12963TIP3   OH260303   2.664   3.461  12.285 -0.1664  0.2810 -0.3227
12963TIP3    H160304   2.580   3.429  12.251 -0.4853  0.5282  0.2172
12963TIP3    H260305   2.676   3.546  12.244 -0.1967  0.2610 -0.3730
12964TIP3   OH260306   5.648   6.278  16.150  0.4090  0.3453  0.2057
12964TIP3    H160307   5.671   6.313  16.064  1.7708  1.5723  1.0108
12964TIP3    H260308   5.717   6.214  16.168  0.1912  0.1737  0.4206
12965TIP3   OH260309   6.252   2.875   0.862 -0.0694 -0.1752 -0.4259
12965TIP3    H160310   6.169   2.832   0.845  0.9446 -1.1669 -3.5167
12965TIP3    H260311   6.309   2.806   0.896  0.4249 -0.3906 -1.6283
12966TIP3   OH260312   5.246   0.583  16.593  0.0585  0.1979  0.3612
12966TIP3    H160313   5.228   0.501  16.640  0.5862 -0.1352 -0.0003
12966TIP3    H260314   5.162   0.628  16.590 -0.4053 -0.6720 -0.0841
12967TIP3   OH260315   0.300   4.033  16.127  0.1719  0.2970  0.7516
12967TIP3    H160316   0.309   4.074  16.040 -1.5886  0.7947  0.7675
12967TIP3    H260317   0.386   4.043  16.166  1.1588 -0.3583 -1.1103
12968TIP3   OH260318   0.350   0.393   4.953  0.1021 -0.0189  0.2031
12968TIP3    H160319   0.327   0.340   5.030 -0.3723 -0.2678 -0.1132
12968TIP3    H260320   0.440   0.365   4.932  0.2689  0.1111  0.7146
12969TIP3   OH260321   2.413   2.112   3.806  0.6105 -0.5138 -0.0497
12969TIP3    H160322   2.484   2.166   3.770  2.0230 -2.3429 -0.1576
12969TIP3    H260323   2.334   2.145   3.763  1.7079  0.0542 -1.7640
12970TIP3   OH260324   4.341   2.199   4.626 -0.4192 -0.0365 -0.1115
12970TIP3    H160325   4.372   2.263   4.562  0.5770 -0.0542  0.3369
12970TIP3    H260326   4.269   2.154   4.581 -2.0509  2.2641  0.0409
12971TIP3   OH260327   2.304   4.190  11.140  0.0940  0.1885  0.6471
12971TIP3    H160328   2.372   4.227  11.196 -0.1353  1.5147  0.0903
12971TIP3    H260329   2.348   4.124  11.087  0.6815  0.1708  1.1552
12972TIP3   OH260330   3.503   5.664   2.491 -0.1102 -0.8083  0.1118
12972TIP3    H160331   3.489   5.599   2.423  0.5996 -0.7183 -0.1258
12972TIP3    H260332   3.512   5.747   2.444 -0.6560 -0.5883  0.3879
12973TIP3   OH260333   2.729   0.043  12.830 -0.0996  0.0558  0.0249
12973TIP3    H160334   2.731   0.133  12.797  1.0054  0.1164  0.2011
12973TIP3    H260335   2.736  -0.012  12.752  2.3237  0.1957  0.0789
12974TIP3   OH260336   0.257   1.597   1.206  0.1361  0.6951 -0.1017
12974TIP3    H160337   0.346   1.625   1.186 -0.1595  0.7249 -1.4179
12974TIP3    H260338   0.226   1.556   1.126 -0.5220 -0.6677  0.8123
12975TIP3   OH260339   1.304   0.808  13.586 -0.2513  0.7329  0.6592
12975TIP3    H160340   1.387   0.843  13.618  0.4150  1.4970 -1.6533
12975TIP3    H260341   1.237   0.865  13.623  0.3513  0.8361  1.6074
12976TIP3   OH260342   2.450   4.522  17.166 -0.6843  0.3430 -0.0695
12976TIP3    H160343   2.401   4.447  17.131  0.0779 -1.6511  2.7739
12976TIP3    H260344   2.542   4.502  17.147 -0.5721  1.3702 -0.6582
12977TIP3   OH260345   4.628   0.968  14.804  0.2225  0.5781  0.1040
12977TIP3    H160346   4.636   0.980  14.709  0.9168 -1.5151 -0.1470
12977TIP3    H260347   4.717   0.951  14.834 -0.2431 -0.8111  0.7891
12978TIP3   OH260348   0.659   3.595   4.247  0.0231  0.1667 -0.1125
12978TIP3    H160349   0.668   3.669   4.306 -0.9118  1.0215 -1.0077
12978TIP3    H260350   0.583   3.616   4.193  0.2952 -1.0220 -1.0041
12979TIP3   OH260351   3.511   3.346  17.246 -0.1303  0.8023 -0.3368
12979TIP3    H160352   3.422   3.317  17.225 -0.3488 -1.3042  2.9239
12979TIP3    H260353   3.564   3.315  17.172 -1.6235 -1.0061 -0.7231
12980TIP3   OH260354   6.172   5.316  13.928  0.1666 -0.2611 -0.0601
12980TIP3    H160355   6.096   5.267  13.898 -0.8366  1.1032  0.1182
12980TIP3    H260356   6.167   5.399  13.880  0.0861  0.8531  1.7818
12981TIP3   OH260357   0.661   6.162  14.168 -0.3083  0.0484  0.0713
12981TIP3    H160358   0.745   6.191  14.204 -0.0196 -0.3662 -0.2619
12981TIP3    H260359   0.654   6.206  14.084 -0.4093  0.0525  0.0814
12982TIP3   OH260360   6.261   5.946   6.718 -0.1980 -0.3638 -0.1607
12982TIP3    H160361   6.293   5.863   6.755  1.4178  0.9352  1.5577
12982TIP3    H260362   6.166   5.934   6.712  0.0783 -2.7122 -1.0106
12983TIP3   OH260363   5.913   0.553  15.582  0.4245 -0.2808  0.0141
12983TIP3    H160364   5.998   0.510  15.583 -0.4434 -2.0822  0.4226
12983TIP3    H260365   5.852   0.488  15.618 -1.5329  0.0865 -2.3762
12984TIP3   OH260366   1.691   3.647  13.978  0.1306  0.2232 -0.1007
12984TIP3    H160367   1.618   3.625  14.036  0.3499 -2.4470 -0.7005
12984TIP3    H260368   1.767   3.604  14.017  1.1231  1.7621 -0.2532
12985TIP3   OH260369   4.638   0.150  12.394  0.0556  0.4174  0.3733
12985TIP3    H160370   4.622   0.240  12.367  0.9006  0.0120 -1.6967
12985TIP3    H260371   4.698   0.157  12.468  2.2844  1.5502 -1.4168
12986TIP3   OH260372   1.906   2.030  11.885  0.7468 -0.0458  0.0952
12986TIP3    H160373   1.993   1.990  11.891  0.9725  0.1198 -1.6042
12986TIP3    H260374   1.876   2.035  11.976  3.4614  1.9958  1.0050
12987TIP3   OH260375   4.828   5.986  16.074  0.3179  0.1677 -0.3548
12987TIP3    H160376   4.796   6.061  16.125 -1.1634  0.6757 -1.9090
12987TIP3    H260377   4.767   5.915  16.097 -0.3525  0.3985 -1.3548
12988TIP3   OH260378   6.156   1.618   3.501  0.5618 -0.1544 -0.0594
12988TIP3    H160379   6.199   1.570   3.430  0.9966  1.7081 -1.1427
12988TIP3    H260380   6.223   1.626   3.568  0.5047 -0.9909  0.1013
12989TIP3   OH260381   1.017   5.297  13.635 -0.0300  0.3730  0.0953
12989TIP3    H160382   1.039   5.372  13.580 -0.4951  0.9156  0.6369
12989TIP3    H260383   1.092   5.288  13.693 -0.2036  0.7687  0.3905
12990TIP3   OH260384   6.014   0.364   4.091  0.0264 -0.2148  0.2009
12990TIP3    H160385   6.090   0.405   4.049 -1.1186  0.3966 -1.4028
12990TIP3    H260386   6.015   0.273   4.061 -0.5013  0.0941 -0.8344
12991TIP3   OH260387   3.591   3.207  14.385  0.6212 -0.2098 -0.0804
12991TIP3    H160388   3.645   3.274  14.343  1.4375 -0.1152  1.0632
12991TIP3    H260389   3.647   3.173  14.455 -0.5644 -0.6005  0.6888
12992TIP3   OH260390   1.372   0.183   0.647  0.5766 -0.2773  0.4894
12992TIP3    H160391   1.374   0.103   0.595  2.2127  0.9037 -1.4033
12992TIP3    H260392   1.450   0.231   0.621 -0.3565  1.9772  1.5408
12993TIP3   OH260393   1.204   4.573   1.472  0.3654 -0.3467  0.5396
12993TIP3    H160394   1.266   4.570   1.546  1.4338  3.4241 -0.0135
12993TIP3    H260395   1.182   4.665   1.463  1.1038 -0.3890 -4.4965
12994TIP3   OH260396   4.272   5.688  13.159 -0.4519  0.7927 -0.1691
12994TIP3    H160397   4.223   5.610  13.131  0.6192 -0.7674  1.9413
12994TIP3    H260398   4.291   5.735  13.079  0.5608 -2.1776 -1.8408
12995TIP3   OH260399   4.318   4.042   3.633  0.5876  0.4575 -0.5808
12995TIP3    H160400   4.240   4.057   3.579 -1.2389 -0.0874  1.7508
12995TIP3    H260401   4.364   3.970   3.590 -0.9088 -0.0855 -1.3469
12996TIP3   OH260402   3.963   0.674   5.146  0.3048  0.2240 -0.5986
12996TIP3    H160403   3.956   0.579   5.136 -0.4172  0.0708  0.9743
12996TIP3    H260404   3.875   0.706   5.126 -0.4314  0.1604  2.1611
12997TIP3   OH260405   5.185   4.708  16.579  0.2469  0.0076  0.6670
12997TIP3    H160406   5.107   4.764  16.583  1.3109  2.2633 -3.6550
12997TIP3    H260407   5.258   4.767  16.599  1.2206 -0.4228 -1.4023
12998TIP3   OH260408   2.881   1.903   3.969 -0.5358  0.3368 -0.0205
12998TIP3    H160409   2.819   1.865   4.032  0.1535 -0.6197  0.1115
12998TIP3    H260410   2.965   1.900   4.014 -0.0536 -0.2562 -0.9414
12999TIP3   OH260411   3.625   4.018   1.157 -0.1359 -0.3452  0.0944
12999TIP3    H160412   3.638   3.996   1.249  0.7675  1.0019  0.3177
12999TIP3    H260413   3.658   3.942   1.109  1.1314 -0.3159  0.8646
13000TIP3   OH260414   5.860   4.114   2.059 -0.1005 -0.6738  0.0666
13000TIP3    H160415   5.887   4.186   2.002 -1.0630  0.4505  0.9502
13000TIP3    H260416   5.883   4.145   2.147 -1.4404 -0.9891  0.5460
13001TIP3   OH260417   3.754   2.751  13.430 -0.7369  0.6411 -0.2130
13001TIP3    H160418   3.690   2.792  13.488 -0.8373  0.2404 -0.0394
13001TIP3    H260419   3.708   2.678  13.389 -0.5065  0.5867 -0.3821
13002TIP3   OH260420   6.544   2.264  11.031 -0.0121 -0.2865  0.6054
13002TIP3    H160421   6.485   2.217  11.090 -0.7113 -2.8744 -1.8942
13002TIP3    H260422   6.488   2.296  10.961  0.9664  1.3784  0.5349
13003TIP3   OH260423   3.289   5.671  17.022 -0.0736  0.0370  0.0063
13003TIP3    H160424   3.339   5.650  17.101 -2.5839  1.0634  2.0042
13003TIP3    H260425   3.254   5.587  16.993  0.3932 -0.2692  0.3159
13004TIP3   OH260426   1.676   2.231  11.874  0.2584  0.0969 -0.4603
13004TIP3    H160427   1.754   2.177  11.864  1.7053  1.7644  1.0442
13004TIP3    H260428   1.619   2.205  11.801  1.8186 -1.7784 -1.1040
13005TIP3   OH260429   5.769   6.637  15.716 -0.3168  0.9657 -0.8048
13005TIP3    H160430   5.794   6.601  15.631 -0.1525  0.9385 -0.7451
13005TIP3    H260431   5.828   6.594  15.779  0.7639  2.2802 -0.8701
13006TIP3   OH260432   1.060   4.048  16.402 -0.1775 -0.3627  0.4221
13006TIP3    H160433   0.971   4.039  16.436 -0.7420  3.0960  0.2379
13006TIP3    H260434   1.049   4.052  16.307  0.2354 -0.4799  0.3683
13007TIP3   OH260435   6.109   4.557  13.900 -0.5214  0.4547 -0.2672
13007TIP3    H160436   6.033   4.505  13.872  0.2471 -1.2394  0.6673
13007TIP3    H260437   6.114   4.542  13.995  0.2150  1.6161 -0.1083
13008TIP3   OH260438   1.702   2.133   2.202  0.0572 -0.4348  0.0254
13008TIP3    H160439   1.687   2.043   2.174  1.2866 -0.6723  0.0985
13008TIP3    H260440   1.784   2.158   2.160  0.2552  0.3033  0.8280
13009TIP3   OH260441   5.200   5.776  12.340 -0.0427  0.0382  0.2776
13009TIP3    H160442   5.247   5.693  12.335 -0.5275 -0.2489  0.4386
13009TIP3    H260443   5.145   5.778  12.262  0.9058  0.7987 -0.4026
13010TIP3   OH260444   3.574   2.686  11.096  0.0283 -0.0893  0.2548
13010TIP3    H160445   3.628   2.657  11.023  0.4930 -0.1772  0.6310
13010TIP3    H260446   3.614   2.646  11.174 -2.0806 -2.3428  0.3105
13011TIP3   OH260447   0.565   0.957  16.213 -0.5119 -0.5794 -0.6292
13011TIP3    H160448   0.487   0.914  16.250 -0.3728 -1.5385 -1.4309
13011TIP3    H260449   0.638   0.905  16.245 -0.2017  0.2113 -0.0358
13012TIP3   OH260450   4.806   5.686   5.742  0.0079 -0.1528  0.0312
13012TIP3    H160451   4.803   5.726   5.655  1.0260  0.0598  0.0814
13012TIP3    H260452   4.733   5.624   5.743 -0.3759  0.2735 -0.7571
13013TIP3   OH260453   2.145   2.210   1.635  0.4176 -0.4575 -0.1118
13013TIP3    H160454   2.180   2.147   1.699 -0.5397  0.5568  1.4663
13013TIP3    H260455   2.056   2.180   1.618 -0.3494  0.8859  1.3066
13014TIP3   OH260456   6.426   5.491  12.222  0.1711  0.9939 -0.4659
13014TIP3    H160457   6.425   5.396  12.230 -1.8799  1.0908  2.0644
13014TIP3    H260458   6.516   5.516  12.239  0.5959 -0.4612 -0.4523
13015TIP3   OH260459   1.453   2.723   3.721  0.2920  0.6071 -0.0394
13015TIP3    H160460   1.364   2.710   3.753  0.3012  1.0933  0.1913
13015TIP3    H260461   1.453   2.811   3.685  0.7069  0.6455  0.0514
13016TIP3   OH260462   0.337   2.601   1.653 -0.1336 -0.5525  0.7127
13016TIP3    H160463   0.269   2.610   1.721 -1.7823  2.1872 -1.1071
13016TIP3    H260464   0.392   2.679   1.665  0.8613 -1.1655  0.2125
13017TIP3   OH260465   4.465   2.814   0.174  0.3088  1.1120  0.7462
13017TIP3    H160466   4.485   2.737   0.228 -0.9659  1.8818  2.4078
13017TIP3    H260467   4.548   2.835   0.131  0.4298 -1.8825 -0.7580
13018TIP3   OH260468   1.875   3.566  13.230  0.0989  0.3122 -0.4774
13018TIP3    H160469   1.795   3.553  13.281 -0.5969  1.9226 -1.1023
13018TIP3    H260470   1.863   3.511  13.152 -0.1268  0.0954 -0.2914
13019TIP3   OH260471   2.947   5.198  12.547  0.2749  0.2468 -0.0663
13019TIP3    H160472   2.940   5.269  12.610 -0.4534 -0.1350  0.2849
13019TIP3    H260473   3.041   5.191  12.529  0.2866  1.9673 -0.8848
13020TIP3   OH260474   3.460   4.638   6.102 -0.3295  0.0090 -0.1733
13020TIP3    H160475   3.489   4.688   6.178 -1.4084  0.2410  0.1094
13020TIP3    H260476   3.506   4.555   6.108 -1.3169 -0.4757  1.4449
13021TIP3   OH260477   1.431   5.146   1.216 -0.2938 -0.5225  0.0142
13021TIP3    H160478   1.385   5.097   1.284  0.3008  0.6777  1.3452
13021TIP3    H260479   1.433   5.236   1.249 -0.1937  0.1433 -1.7280
13022TIP3   OH260480   6.502   2.518  14.054  0.3814 -0.6906 -0.0933
13022TIP3    H160481   6.409   2.530  14.071  0.6401 -1.1478  1.8585
13022TIP3    H260482   6.534   2.468  14.129  2.7807  2.0399  0.9031
13023TIP3   OH260483   3.917   3.027  13.689 -0.1164 -0.0461  0.1144
13023TIP3    H160484   3.861   2.950  13.694 -0.4303  0.1989  0.4322
13023TIP3    H260485   3.961   3.030  13.773 -1.1333  0.8834  0.6481
13024TIP3   OH260486   4.733   4.719  11.694 -0.1152  0.3452  0.0356
13024TIP3    H160487   4.673   4.791  11.679  0.6208  1.0652  0.4907
13024TIP3    H260488   4.820   4.759  11.694  0.3226 -0.5754  0.0477
13025TIP3   OH260489   3.936   6.161  11.396 -0.3743 -0.4681  0.1314
13025TIP3    H160490   3.865   6.117  11.351 -1.2774  0.9792  0.0895
13025TIP3    H260491   3.953   6.240  11.344  1.0659 -0.6370  0.3030
13026TIP3   OH260492   6.406   0.825   4.803 -0.0258  0.6136  0.0231
13026TIP3    H160493   6.485   0.855   4.848 -1.4386  1.7660  1.8992
13026TIP3    H260494   6.385   0.895   4.741  0.1793  0.5085 -0.1657
13027TIP3   OH260495   6.074   2.306   2.990 -0.7038 -0.0517 -0.3031
13027TIP3    H160496   6.081   2.298   3.085 -1.2010 -0.0408 -0.2593
13027TIP3    H260497   5.986   2.342   2.976 -0.5957  0.0414 -0.7625
13028TIP3   OH260498   1.533   1.262  12.820  0.0251 -0.3030 -0.2326
13028TIP3    H160499   1.619   1.225  12.835  0.4070  0.0100 -1.5177
13028TIP3    H260500   1.478   1.223  12.888  1.5109  0.7937  1.6876
13029TIP3   OH260501   5.588   4.023  12.023  0.1478  0.1388  0.5090
13029TIP3    H160502   5.646   4.003  12.097  0.4225 -1.9860 -0.2020
13029TIP3    H260503   5.542   3.940  12.006  0.9047  0.2140 -2.3785
13030TIP3   OH260504   5.816   0.078  14.515  0.0176 -0.4099 -0.1971
13030TIP3    H160505   5.807   0.063  14.421 -0.7167  0.1185 -0.2165
13030TIP3    H260506   5.738   0.038  14.554 -1.1881  1.8390 -0.1061
13031TIP3   OH260507   0.855   0.813  13.202 -0.5987 -0.2659  0.6103
13031TIP3    H160508   0.784   0.805  13.138 -0.3125 -3.1869  0.4997
13031TIP3    H260509   0.894   0.899  13.184 -0.1361 -1.1222 -3.6417
13032TIP3   OH260510   6.473   4.902   0.323 -0.5782 -0.1394  0.2715
13032TIP3    H160511   6.535   4.973   0.342 -1.3672  0.1840  1.7433
13032TIP3    H260512   6.388   4.937   0.348 -1.2058 -1.0528 -0.4923
13033TIP3   OH260513   3.360   6.781  10.997 -0.2002 -0.7914 -0.3941
13033TIP3    H160514   3.454   6.792  10.989 -0.2743  1.3080  0.8470
13033TIP3    H260515   3.323   6.864  10.968 -1.4844 -0.6216  1.4856
13034TIP3   OH260516   4.783   4.179  13.582  0.5336 -0.0957 -0.0307
13034TIP3    H160517   4.802   4.098  13.629  1.7543 -0.2292 -0.6974
13034TIP3    H260518   4.870   4.215  13.560  0.0125  0.5321 -1.1717
13035TIP3   OH260519   2.159   0.533   1.121  0.7846 -0.2160 -0.8038
13035TIP3    H160520   2.096   0.532   1.192 -0.1761 -0.0703 -1.6308
13035TIP3    H260521   2.243   0.553   1.163  0.0123  1.3071  0.0901
13036TIP3   OH260522   6.033   0.970   3.901  0.4141  0.1393  0.8030
13036TIP3    H160523   6.058   1.009   3.818 -0.9247  0.7477  0.6712
13036TIP3    H260524   6.066   1.032   3.967 -0.4809  0.8055  0.6399
13037TIP3   OH260525   0.720   2.358   0.269 -0.0542 -0.0515  0.5756
13037TIP3    H160526   0.803   2.405   0.255 -0.6834  0.8465 -0.2864
13037TIP3    H260527   0.656   2.427   0.286 -1.2448 -0.4369 -1.8562
13038TIP3   OH260528   3.653   5.329  13.678 -0.2078  0.1505  0.0374
13038TIP3    H160529   3.594   5.397  13.712 -0.2843 -0.6867  1.6682
13038TIP3    H260530   3.737   5.374  13.666  0.2673  0.2087  2.8645
13039TIP3   OH260531   1.189   0.482   4.623 -0.1870 -0.0792  0.2143
13039TIP3    H160532   1.195   0.391   4.652  0.3293 -0.0545  0.1856
13039TIP3    H260533   1.175   0.477   4.529  1.7028 -0.1202 -0.1098
13040TIP3   OH260534   6.108   5.672  15.412 -0.3383 -0.6852  0.6166
13040TIP3    H160535   6.178   5.661  15.476  0.4195  1.4257  0.2336
13040TIP3    H260536   6.040   5.611  15.440  1.6452 -2.8557  0.9620
13041TIP3   OH260537   2.753   2.659  13.855 -0.1249  0.1930 -0.8439
13041TIP3    H160538   2.685   2.710  13.899 -1.2975 -2.0091  0.0751
13041TIP3    H260539   2.819   2.724  13.829 -1.3274  2.0860  0.5599
13042TIP3   OH260540   1.109   5.100  10.895 -0.5926  0.3136  0.2234
13042TIP3    H160541   1.171   5.030  10.875 -1.7910  0.0098 -3.0196
13042TIP3    H260542   1.163   5.178  10.907  0.5103 -0.2944 -0.6295
13043TIP3   OH260543   0.864   5.009   3.270 -0.1243 -0.0444 -0.2905
13043TIP3    H160544   0.892   5.059   3.346 -0.1472  0.9200 -0.8991
13043TIP3    H260545   0.779   4.973   3.294 -0.0014  0.0212  0.2362
13044TIP3   OH260546   6.492   6.619   3.720 -0.4987  0.3949  0.7571
13044TIP3    H160547   6.485   6.705   3.761  0.4425  1.7781 -1.7952
13044TIP3    H260548   6.403   6.586   3.716 -1.4010  2.7910 -1.2273
13045TIP3   OH260549   0.367   6.155  13.187  1.2534 -0.0115  0.3332
13045TIP3    H160550   0.349   6.177  13.096  1.1607 -2.6572 -0.3587
13045TIP3    H260551   0.451   6.110  13.185  0.5559 -1.4318  1.3239
13046TIP3   OH260552   1.314   4.959   0.636  0.2236 -0.9386  0.0205
13046TIP3    H160553   1.247   4.902   0.598 -0.7288  0.2706 -0.1804
13046TIP3    H260554   1.381   4.965   0.569 -0.9011  0.2399 -1.0698
13047TIP3   OH260555   6.130   1.123   2.198 -0.0216 -0.4075 -0.6249
13047TIP3    H160556   6.057   1.100   2.255  0.5034  0.9618  0.6683
13047TIP3    H260557   6.179   1.041   2.187 -1.2499 -1.1403 -0.8109
13048TIP3   OH260558   4.128   6.012   5.406  0.2750 -0.6238  0.3209
13048TIP3    H160559   4.180   5.934   5.387 -0.0111 -0.5222 -0.9877
13048TIP3    H260560   4.045   5.998   5.361 -0.6511 -0.5311  1.9264
13049TIP3   OH260561   0.630   5.398  11.119 -0.1919 -0.1801  0.0888
13049TIP3    H160562   0.547   5.384  11.074 -0.0467 -0.3867 -0.1120
13049TIP3    H260563   0.623   5.344  11.198 -1.5416  2.1852  1.7158
13050TIP3   OH260564   0.939   2.486  14.346  0.6252  0.1508  0.6610
13050TIP3    H160565   0.953   2.444  14.431  1.1021 -1.9636 -0.3853
13050TIP3    H260566   1.001   2.443  14.288  0.0458  1.2782 -0.8529
13051TIP3   OH260567   0.515   2.843   0.863 -0.2538 -0.0887 -0.6556
13051TIP3    H160568   0.563   2.847   0.946 -0.3514 -0.0855 -0.5985
13051TIP3    H260569   0.518   2.751   0.838 -1.1322 -0.2791 -0.1038
13052TIP3   OH260570   1.807   4.647  14.332 -0.4141  0.4466 -0.2868
13052TIP3    H160571   1.885   4.594  14.319 -0.3930  0.0388  1.2631
13052TIP3    H260572   1.758   4.639  14.250  0.6865 -0.1058 -0.9054
13053TIP3   OH260573   4.360   0.769  11.992  0.2656 -0.0647  0.4590
13053TIP3    H160574   4.267   0.747  11.987  0.5872 -1.2581 -2.4518
13053TIP3    H260575   4.405   0.696  11.950  2.6108  0.2736  2.1740
13054TIP3   OH260576   3.152   0.307   1.050  0.0907 -0.2211 -0.2634
13054TIP3    H160577   3.199   0.389   1.060 -0.3008 -0.1949  2.0396
13054TIP3    H260578   3.219   0.239   1.056  0.1997 -0.1160 -0.3059
13055TIP3   OH260579   4.376   6.234  15.522  0.0890  0.7141  0.3596
13055TIP3    H160580   4.301   6.180  15.547  0.6296  0.2857  1.0831
13055TIP3    H260581   4.337   6.307  15.474 -0.6197 -0.5426 -1.0872
13056TIP3   OH260582   2.836   4.593   3.846 -0.5040 -0.6315 -0.2317
13056TIP3    H160583   2.869   4.538   3.775 -1.1823  0.5147 -1.4795
13056TIP3    H260584   2.741   4.591   3.837 -0.6071 -0.5658  0.7211
13057TIP3   OH260585   3.376   0.530   0.472  0.3183 -0.1074  0.0237
13057TIP3    H160586   3.288   0.559   0.498  0.8729  0.9785  0.7836
13057TIP3    H260587   3.365   0.498   0.382 -0.8046  0.2540  0.0151
13058TIP3   OH260588   4.458   6.201  13.841 -0.5765  0.3353  0.6023
13058TIP3    H160589   4.515   6.255  13.786 -1.3334  1.3020  0.7553
13058TIP3    H260590   4.398   6.159  13.780 -0.2626 -0.0094  0.5255
13059TIP3   OH260591   0.168   0.626  16.011  0.0679  0.4766 -0.3959
13059TIP3    H160592   0.235   0.693  16.018 -0.8771  1.3149  0.9099
13059TIP3    H260593   0.095   0.658  16.064 -1.6691 -0.0680 -2.3038
13060TIP3   OH260594   4.801   2.982  16.718  0.7445  0.6458  0.0052
13060TIP3    H160595   4.812   2.927  16.795  1.8902 -0.5354 -0.9579
13060TIP3    H260596   4.871   3.047  16.725  1.8775 -0.4225 -0.7739
13061TIP3   OH260597   4.167   6.674  13.512  0.3694  0.6870 -0.2824
13061TIP3    H160598   4.208   6.631  13.587 -0.7142  2.1670  1.2219
13061TIP3    H260599   4.153   6.764  13.540 -0.8781  1.0748 -1.9528
13062TIP3   OH260600   5.696   0.400   3.263 -0.0441 -0.2304 -0.4818
13062TIP3    H160601   5.768   0.385   3.325  0.8748  0.4133 -1.3492
13062TIP3    H260602   5.638   0.461   3.308  0.8204  0.5398 -0.3726
13063TIP3   OH260603   1.915   4.093   6.009 -0.3683  0.1530  0.2041
13063TIP3    H160604   1.849   4.125   6.070  0.7918  1.3620  0.8628
13063TIP3    H260605   1.991   4.073   6.063  0.6136  1.0495 -0.7984
13064TIP3   OH260606   1.627   5.785   2.161  0.1607  0.9067 -0.4668
13064TIP3    H160607   1.563   5.855   2.171 -0.6997  0.1552 -0.6234
13064TIP3    H260608   1.575   5.705   2.152  1.1120  0.2980 -0.7542
13065TIP3   OH260609   1.011   3.049  14.513 -0.0212  0.2513  0.6928
13065TIP3    H160610   0.949   2.996  14.462  1.0643  0.5346 -1.0055
13065TIP3    H260611   1.080   3.071  14.450  0.9220  1.3957  2.0863
13066TIP3   OH260612   4.084   0.059   4.921 -0.1116 -0.2635  0.1037
13066TIP3    H160613   4.050   0.076   5.008  0.9969  2.4699  0.1215
13066TIP3    H260614   4.179   0.057   4.932  0.0993  1.1205 -1.1174
13067TIP3   OH260615   1.177   2.487  15.566 -0.1351  0.2111  0.3566
13067TIP3    H160616   1.159   2.568  15.518  0.9918  0.5725  0.5024
13067TIP3    H260617   1.125   2.420  15.522  0.9768  0.4959 -1.4666
13068TIP3   OH260618   2.901   6.040   2.891  0.2197 -0.5147  0.3956
13068TIP3    H160619   2.901   5.947   2.869 -1.1475 -0.5757  0.5603
13068TIP3    H260620   2.931   6.043   2.982  1.1503 -0.6987  0.1048
13069TIP3   OH260621   2.365   3.217  10.616 -0.1193 -0.4019 -0.2347
13069TIP3    H160622   2.371   3.268  10.697  1.4106  0.3103 -0.7567
13069TIP3    H260623   2.275   3.229  10.587 -0.6078 -0.4217  1.1994
13070TIP3   OH260624   1.505   2.428  11.636 -0.7591 -0.1105  0.4288
13070TIP3    H160625   1.491   2.490  11.708 -1.0308  0.8126 -0.3970
13070TIP3    H260626   1.584   2.459  11.593 -1.9048  0.7882 -1.1085
13071TIP3   OH260627   4.788   3.580   3.348  0.5357  0.1862  0.3597
13071TIP3    H160628   4.826   3.506   3.301  0.1760  0.5477 -0.5274
13071TIP3    H260629   4.808   3.563   3.440  1.1523 -0.6002  0.0917
13072TIP3   OH260630   0.981   2.200  16.938 -0.0406 -0.2837  0.5476
13072TIP3    H160631   0.982   2.109  16.909  0.0674 -0.2725  0.5139
13072TIP3    H260632   0.925   2.201  17.015  1.2551 -0.6883  1.5374
13073TIP3   OH260633   0.417   4.759  12.989 -0.2985  0.4817 -0.0534
13073TIP3    H160634   0.419   4.826  12.921 -1.2037 -1.2558 -1.8886
13073TIP3    H260635   0.505   4.760  13.027 -0.5374  3.3042  0.6747
13074TIP3   OH260636   0.209   6.796   0.835 -0.1235  0.4425 -0.6788
13074TIP3    H160637   0.227   6.714   0.790 -1.3389  0.4522 -1.2401
13074TIP3    H260638   0.292   6.844   0.832  0.4751 -0.5675 -0.7365
13075TIP3   OH260639   0.817   1.512   4.746  0.4767 -0.0823  0.1186
13075TIP3    H160640   0.756   1.554   4.686  0.7690  1.7072  0.9962
13075TIP3    H260641   0.842   1.431   4.702  0.1121  0.7987 -1.8267
13076TIP3   OH260642   3.518   0.611  11.453 -0.0064 -0.4576 -0.2285
13076TIP3    H160643   3.477   0.584  11.535 -0.9534  0.0309 -0.5326
13076TIP3    H260644   3.542   0.703  11.467  1.2910 -0.8094  0.0522
13077TIP3   OH260645   0.233   2.596  13.528 -0.2843 -0.4023 -0.0294
13077TIP3    H160646   0.311   2.652  13.532 -1.1405  0.8242  0.0833
13077TIP3    H260647   0.168   2.642  13.580 -0.8167 -1.8774  0.6481
13078TIP3   OH260648   0.255   4.677  11.573  0.5373  0.5307 -0.1651
13078TIP3    H160649   0.248   4.698  11.480 -2.2498 -1.2202 -0.4758
13078TIP3    H260650   0.349   4.671  11.589  1.1320  2.1739 -2.5071
13079TIP3   OH260651   4.926   2.130   5.210 -0.1167  0.1455 -0.3284
13079TIP3    H160652   4.983   2.057   5.234 -0.5938 -0.3102 -0.5426
13079TIP3    H260653   4.919   2.124   5.114  1.4539  1.6963 -0.5817
13080TIP3   OH260654   4.880   6.493  14.008 -0.4058  1.0115 -0.2137
13080TIP3    H160655   4.847   6.550  14.077  0.0398  1.6348 -0.5070
13080TIP3    H260656   4.954   6.447  14.048 -2.0154 -0.9666  0.6917
13081TIP3   OH260657   0.263   4.053  15.672 -0.4495 -0.5591 -0.2669
13081TIP3    H160658   0.214   4.134  15.653 -0.5247 -0.1342  1.5819
13081TIP3    H260659   0.207   4.004  15.732 -0.0842 -1.6721 -0.8082
13082TIP3   OH260660   1.170   6.287  15.282 -0.0987 -0.1394  0.1920
13082TIP3    H160661   1.243   6.272  15.341 -0.5952 -1.5526  0.4710
13082TIP3    H260662   1.109   6.340  15.332  0.8154  1.2812 -0.1310
13083TIP3   OH260663   3.183   6.239  16.066  0.0133 -0.1780  0.6282
13083TIP3    H160664   3.126   6.308  16.032 -0.6769 -0.9442  0.1912
13083TIP3    H260665   3.253   6.286  16.112  0.9765  0.9464 -1.7753
13084TIP3   OH260666   5.823   6.664  13.163 -0.0539 -0.6555 -0.0578
13084TIP3    H160667   5.862   6.666  13.075  0.0903 -1.8193 -0.0316
13084TIP3    H260668   5.805   6.572  13.179 -3.4970 -0.1779 -0.3785
13085TIP3   OH260669   4.463   1.780  14.265 -0.2960 -0.4214  0.0151
13085TIP3    H160670   4.429   1.694  14.290 -2.8124  0.3609 -0.4582
13085TIP3    H260671   4.471   1.829  14.347 -1.3484 -0.2824  0.0400
13086TIP3   OH260672   1.891   1.648  16.336  0.3281  0.1025 -0.1624
13086TIP3    H160673   1.817   1.635  16.396 -0.7654  1.0664 -1.2565
13086TIP3    H260674   1.865   1.603  16.256  1.4116 -0.4523 -0.2172
13087TIP3   OH260675   4.137   2.476  12.177  0.4353  0.2931 -0.3748
13087TIP3    H160676   4.156   2.564  12.147  0.5879  0.2918 -0.2791
13087TIP3    H260677   4.212   2.424  12.151 -0.5857 -0.2683 -2.3627
13088TIP3   OH260678   0.171   1.049   2.762  0.1536 -0.0192 -0.1692
13088TIP3    H160679   0.235   1.036   2.833 -0.5316 -0.1402  0.4311
13088TIP3    H260680   0.099   1.097   2.803 -0.6941 -0.9449 -0.5346
13089TIP3   OH260681   1.821   2.960  16.615  0.2140  0.2647 -0.3185
13089TIP3    H160682   1.832   2.966  16.710  1.1866 -0.1013 -0.4023
13089TIP3    H260683   1.733   2.922  16.604  0.3017 -0.1946  0.4491
13090TIP3   OH260684   5.363   2.881   4.173  0.0254  0.1284  0.0828
13090TIP3    H160685   5.395   2.792   4.184 -1.5362 -0.2064  2.6507
13090TIP3    H260686   5.319   2.881   4.088 -0.5539 -1.7427  0.3519
13091TIP3   OH260687   1.699   1.877   6.538  0.4006 -0.1398  0.1093
13091TIP3    H160688   1.618   1.922   6.514  0.2949  0.1739  1.0321
13091TIP3    H260689   1.741   1.934   6.603 -0.1980 -1.7529  2.0226
13092TIP3   OH260690   0.149   4.009   5.167 -0.6587  0.7389  0.3320
13092TIP3    H160691   0.121   3.996   5.258 -1.1363  0.3609  0.1345
13092TIP3    H260692   0.205   4.086   5.170 -0.8670  0.8724  0.9106
13093TIP3   OH260693   3.643   6.811  10.999 -0.2913 -0.1839  0.2981
13093TIP3    H160694   3.708   6.742  10.986 -1.1655 -1.0353  0.3343
13093TIP3    H260695   3.627   6.810  11.094 -2.0734 -1.6348  0.0423
13094TIP3   OH260696   4.245   0.984   4.776  0.0001 -0.3682 -0.0407
13094TIP3    H160697   4.339   0.993   4.793  0.6872 -1.2054 -2.8257
13094TIP3    H260698   4.204   1.001   4.860  2.5150  1.8992  0.8745
13095TIP3   OH260699   3.287   0.264  15.216  0.4714  0.1738  0.5314
13095TIP3    H160700   3.359   0.242  15.157 -0.2486 -0.8116 -0.0245
13095TIP3    H260701   3.329   0.301  15.293  1.7162 -2.0996  1.0152
13096TIP3   OH260702   3.682   4.430   5.879  0.0454  0.4399  0.2427
13096TIP3    H160703   3.650   4.429   5.969 -0.1722 -1.3064  0.1788
13096TIP3    H260704   3.765   4.383   5.882  0.5221  1.2308 -0.3089
13097TIP3   OH260705   2.553   5.836   4.131  0.3253 -0.2027  0.3531
13097TIP3    H160706   2.549   5.879   4.217 -0.9604  0.3242  0.0578
13097TIP3    H260707   2.547   5.908   4.068  0.0520 -0.6669 -0.1570
13098TIP3   OH260708   5.452   5.849   2.493  0.4387 -0.0869  0.0605
13098TIP3    H160709   5.542   5.825   2.512  0.8562 -0.6698 -2.3341
13098TIP3    H260710   5.414   5.772   2.451  0.2003  1.4562 -2.8769
13099TIP3   OH260711   0.422   4.567  17.135  0.0596 -0.4972  0.1135
13099TIP3    H160712   0.413   4.580  17.040 -0.1031  0.5827  0.2657
13099TIP3    H260713   0.492   4.627  17.160  0.5029 -1.2062  0.5948
13100TIP3   OH260714   6.041   4.142  13.905  0.2545 -0.0793  0.1781
13100TIP3    H160715   5.977   4.203  13.869 -0.6326  0.0870  1.9679
13100TIP3    H260716   5.998   4.057  13.900  1.0112 -0.4167 -1.1690
13101TIP3   OH260717   5.299   1.032   0.708 -0.1372  0.1441 -0.2268
13101TIP3    H160718   5.338   0.947   0.687 -2.7996 -1.5054  0.9898
13101TIP3    H260719   5.349   1.063   0.784 -1.0460 -1.9072  1.3108
13102TIP3   OH260720   2.206   0.513  15.996 -0.2496 -0.1248  0.2888
13102TIP3    H160721   2.235   0.506  16.087 -1.1599 -1.0986  0.5234
13102TIP3    H260722   2.261   0.451  15.949 -0.2969 -0.1876  0.3151
13103TIP3   OH260723   6.677   5.935   1.719 -0.2062  0.6037  0.4935
13103TIP3    H160724   6.705   5.942   1.628  0.3948  0.7054  0.6828
13103TIP3    H260725   6.594   5.983   1.723 -0.6643 -0.0990 -0.1767
13104TIP3   OH260726   2.777   4.464  13.117  1.0842 -0.7920 -0.2619
13104TIP3    H160727   2.778   4.371  13.097  0.0030 -1.0402  0.7734
13104TIP3    H260728   2.846   4.476  13.183  0.1920 -1.1473  0.7569
13105TIP3   OH260729   0.359   5.230   1.858 -0.2213  0.1382  0.0110
13105TIP3    H160730   0.424   5.203   1.924 -0.7410 -0.8120  0.1398
13105TIP3    H260731   0.412   5.269   1.788  0.4951 -0.5415  0.1529
13106TIP3   OH260732   2.999   3.266   0.414  0.0391 -0.4012 -0.2523
13106TIP3    H160733   3.068   3.311   0.463 -1.0150  2.7091 -1.3327
13106TIP3    H260734   2.939   3.233   0.481  1.0781 -0.5749  0.6181
13107TIP3   OH260735   2.956   1.917   1.902 -0.2177  0.3204 -0.8336
13107TIP3    H160736   3.010   1.980   1.949  0.4162 -1.0557  0.3495
13107TIP3    H260737   2.900   1.879   1.969 -1.3266  0.3543 -1.7155
13108TIP3   OH260738   3.977   5.274   5.694  0.5788  0.5582 -0.1091
13108TIP3    H160739   3.950   5.192   5.735  0.7789  0.4507 -0.1921
13108TIP3    H260740   4.070   5.283   5.716  0.6887  0.4963 -0.5403
13109TIP3   OH260741   3.309   2.211  11.178 -0.7987  0.1491 -0.1144
13109TIP3    H160742   3.325   2.303  11.200  0.7428 -0.4261  1.3504
13109TIP3    H260743   3.348   2.200  11.091 -1.3249  0.9421 -0.4671
13110TIP3   OH260744   5.379   0.104   5.188 -0.0759 -0.2941  0.1519
13110TIP3    H160745   5.358   0.197   5.182 -1.0330 -0.4817  0.5145
13110TIP3    H260746   5.413   0.082   5.101 -0.3215  0.2754 -0.0951
13111TIP3   OH260747   3.812   6.027   3.947 -0.0061  1.0389  0.3137
13111TIP3    H160748   3.719   6.008   3.957 -0.2922  1.5233 -1.2019
13111TIP3    H260749   3.832   6.089   4.017 -0.8597  1.0666  0.5406
13112TIP3   OH260750   5.166   6.202   5.161  0.5261  0.1174  0.2117
13112TIP3    H160751   5.143   6.293   5.180  0.5013  0.6541 -2.0702
13112TIP3    H260752   5.259   6.205   5.138  0.7913 -0.6236  1.1454
13113TIP3   OH260753   0.747   0.913   1.801  0.0407 -0.5749 -0.3910
13113TIP3    H160754   0.829   0.953   1.774 -0.1104  0.3037  0.4061
13113TIP3    H260755   0.681   0.954   1.746 -0.4837  2.4129  2.2192
13114TIP3   OH260756   5.555   6.374  14.541  0.2459  0.4310  0.3261
13114TIP3    H160757   5.571   6.347  14.451  0.6769  0.6984  0.3193
13114TIP3    H260758   5.628   6.337  14.590 -0.0130  0.2449  0.5761
13115TIP3   OH260759   2.772   2.519  15.719  0.0239  0.5681  0.0759
13115TIP3    H160760   2.681   2.504  15.691  0.8601 -2.4516 -1.4273
13115TIP3    H260761   2.773   2.495  15.812 -0.0986 -3.1101 -0.7369
13116TIP3   OH260762   2.372   1.774   1.993  0.3072  0.4260 -0.0312
13116TIP3    H160763   2.438   1.791   1.925  0.9511 -2.0650 -0.1526
13116TIP3    H260764   2.300   1.732   1.946  0.2017 -0.1369  0.6156
13117TIP3   OH260765   6.800   1.368  16.266  0.0298 -0.4604 -0.1495
13117TIP3    H160766   6.794   1.432  16.337  0.5075 -0.9894  0.3800
13117TIP3    H260767   6.856   1.411  16.201 -1.5349  0.5929 -0.8546
13118TIP3   OH260768   1.807   4.940   2.851 -0.2913 -0.5799  0.2276
13118TIP3    H160769   1.718   4.916   2.828 -0.0619 -0.4927 -0.8092
13118TIP3    H260770   1.814   5.032   2.828  0.3207 -0.8087 -0.5727
13119TIP3   OH260771   2.938   2.392  12.538  0.2847  0.5298  0.4234
13119TIP3    H160772   2.938   2.298  12.517  0.1213  0.7411 -0.5434
13119TIP3    H260773   3.023   2.407  12.579  0.3504 -0.0201  0.5024
13120TIP3   OH260774   6.694   3.875  12.572  0.5000  0.5046  0.5821
13120TIP3    H160775   6.655   3.850  12.656  0.1358 -1.2681 -0.0655
13120TIP3    H260776   6.774   3.921  12.595  0.8374 -0.6838  1.9260
13121TIP3   OH260777   1.057   6.786   4.059  0.3560 -0.0591  0.6351
13121TIP3    H160778   0.973   6.803   4.100 -0.3550  0.7947 -1.0831
13121TIP3    H260779   1.047   6.817   3.969  2.6945  0.5927  0.5407
13122TIP3   OH260780   4.041   6.072   3.337 -0.3658  0.1861 -0.0331
13122TIP3    H160781   4.023   6.165   3.322  0.4317  0.7339  2.1001
13122TIP3    H260782   3.997   6.052   3.419  2.0334 -0.4346  1.2190
13123TIP3   OH260783   3.120   2.167  12.776  0.2039 -0.8462 -0.0817
13123TIP3    H160784   3.155   2.224  12.707 -0.0399 -0.9005 -0.2494
13123TIP3    H260785   3.026   2.164  12.760  0.0286 -0.2143  0.7316
13124TIP3   OH260786   6.425   4.712  15.951  0.3697 -0.1410  0.3448
13124TIP3    H160787   6.387   4.683  15.868 -2.2567 -0.4503  1.5475
13124TIP3    H260788   6.435   4.807  15.941  1.0363 -0.3088 -0.6643
13125TIP3   OH260789   5.892   0.135  17.164 -0.3520  0.2836  0.2698
13125TIP3    H160790   5.922   0.133  17.255  0.8851  0.5267 -0.1123
13125TIP3    H260791   5.843   0.217  17.157 -0.4962  0.2390  0.7249
13126TIP3   OH260792   2.609   1.212   2.266  0.1871  0.2672 -0.4018
13126TIP3    H160793   2.628   1.306   2.270  1.1801  0.1044 -0.8671
13126TIP3    H260794   2.660   1.181   2.191  0.1836 -0.7076 -0.0116
13127TIP3   OH260795   1.553   2.205  12.735  0.4691 -0.1701 -0.0334
13127TIP3    H160796   1.523   2.212  12.826 -1.5089 -2.2206 -0.4288
13127TIP3    H260797   1.475   2.180  12.686  1.8932 -1.0707 -1.9898
13128TIP3   OH260798   0.697   5.081  13.134 -0.0546  0.2213  0.3707
13128TIP3    H160799   0.657   5.039  13.058 -1.7106  2.3530 -0.0393
13128TIP3    H260800   0.623   5.099  13.192  0.4955  2.6087  0.4445
13129TIP3   OH260801   1.907   0.890  16.868  0.9294  0.1103 -0.1575
13129TIP3    H160802   1.834   0.907  16.808 -0.0040 -1.4898  0.4681
13129TIP3    H260803   1.929   0.798  16.853  1.4991  0.0315  1.0803
13130TIP3   OH260804   2.979   1.850  15.074 -0.0349 -0.0591  0.1140
13130TIP3    H160805   3.020   1.931  15.106 -3.7911  1.7217  0.9095
13130TIP3    H260806   2.979   1.859  14.979  1.2783 -0.0991  0.0878
13131TIP3   OH260807   2.111   6.501   5.275 -0.2522 -0.2528  0.3496
13131TIP3    H160808   2.091   6.552   5.196 -0.7131 -0.4988  0.3036
13131TIP3    H260809   2.053   6.425   5.270 -0.1336 -0.3785  0.8186
13132TIP3   OH260810   4.468   1.266   2.420  0.3557  1.3063 -0.4357
13132TIP3    H160811   4.479   1.308   2.505  2.1312 -0.1443  0.1192
13132TIP3    H260812   4.382   1.223   2.426  0.1785  1.7614  0.3749
13133TIP3   OH260813   2.836   1.994   4.774 -0.1841  0.4856 -0.6970
13133TIP3    H160814   2.865   1.904   4.758 -0.8805  0.4409 -1.7773
13133TIP3    H260815   2.865   2.043   4.697 -0.8178  0.9481 -0.6467
13134TIP3   OH260816   6.649   1.179  16.125  0.4600  0.4186 -0.4456
13134TIP3    H160817   6.616   1.106  16.177 -1.3906  0.9984 -0.7205
13134TIP3    H260818   6.695   1.235  16.188 -1.6636  1.0707  0.6290
13135TIP3   OH260819   1.865   3.464   2.227 -0.3213 -0.0600 -0.0981
13135TIP3    H160820   1.956   3.484   2.205  0.1402 -1.8691  0.0511
13135TIP3    H260821   1.866   3.445   2.321 -0.8972  0.0407 -0.0645
13136TIP3   OH260822   0.784   0.966  16.991  0.2266 -0.0083  0.2619
13136TIP3    H160823   0.692   0.946  16.972  0.1757  0.6884 -0.2910
13136TIP3    H260824   0.824   0.882  17.012 -0.4420 -0.3766  0.0865
13137TIP3   OH260825   1.621   1.097  13.464  0.6105 -0.0814  0.2711
13137TIP3    H160826   1.635   1.002  13.464  0.7086 -0.0713 -0.4762
13137TIP3    H260827   1.631   1.123  13.372  1.4383  0.7776  0.5890
13138TIP3   OH260828   1.276   4.086  11.216 -0.0757 -0.3276  0.2304
13138TIP3    H160829   1.186   4.070  11.246 -0.2264 -0.6296 -0.3645
13138TIP3    H260830   1.293   4.015  11.154  0.8611 -0.7381  0.9347
13139TIP3   OH260831   0.856   2.650  13.124 -0.3051 -0.3310  0.1801
13139TIP3    H160832   0.800   2.726  13.136  1.2245  0.4395  3.6364
13139TIP3    H260833   0.918   2.676  13.056 -1.9675  0.0608 -1.2498
13140TIP3   OH260834   6.758   1.156  17.103 -0.1268  0.2851  0.1527
13140TIP3    H160835   6.731   1.237  17.059  1.1067  0.2926 -0.6389
13140TIP3    H260836   6.707   1.154  17.184 -1.7607  0.7677 -0.8125
13141TIP3   OH260837   5.102   4.577   4.569 -0.5335 -0.3065  0.1769
13141TIP3    H160838   5.082   4.496   4.524 -0.2770 -0.2664 -0.0151
13141TIP3    H260839   5.031   4.636   4.545 -0.8820 -0.5669  0.5642
13142TIP3   OH260840   4.459   3.995   0.344 -0.3606 -0.0944  0.1564
13142TIP3    H160841   4.401   4.071   0.354 -0.3058 -0.0905  0.4652
13142TIP3    H260842   4.525   4.007   0.413 -0.1658 -0.2550 -0.0011
13143TIP3   OH260843   5.876   2.022   3.620 -0.0773 -0.3417  0.4667
13143TIP3    H160844   5.844   2.058   3.537  0.5601 -0.9488 -0.0559
13143TIP3    H260845   5.939   1.955   3.594  2.0266  1.1601  1.4197
13144TIP3   OH260846   0.084   1.978  15.733  0.2014  0.1079 -0.3244
13144TIP3    H160847   0.061   1.965  15.825  0.8360  0.7635 -0.0581
13144TIP3    H260848   0.001   1.975  15.687 -0.3884  1.9377  0.5385
13145TIP3   OH260849   4.835   3.754  11.665 -0.4631  0.1395  0.6350
13145TIP3    H160850   4.926   3.755  11.636 -0.6696 -0.8395 -0.0903
13145TIP3    H260851   4.825   3.835  11.716  0.4890  0.8490 -0.2572
13146TIP3   OH260852   0.532   4.729  11.506 -0.3469 -0.4977 -0.1544
13146TIP3    H160853   0.566   4.653  11.458 -2.9323 -2.0611  0.3106
13146TIP3    H260854   0.559   4.715  11.596  0.1064 -0.2534 -0.2455
13147TIP3   OH260855   5.872   4.748   4.678  0.2233 -0.9425  0.3375
13147TIP3    H160856   5.845   4.840   4.679 -1.6584 -1.4606  0.4134
13147TIP3    H260857   5.950   4.746   4.622 -1.2222  0.3244 -1.8718
13148TIP3   OH260858   2.392   5.149   3.882  0.6801 -0.0382  0.0618
13148TIP3    H160859   2.319   5.209   3.898  0.6719 -0.0011 -0.1144
13148TIP3    H260860   2.371   5.109   3.798  1.0227  0.2011 -0.1341
13149TIP3   OH260861   4.748   6.153   1.698 -0.2020 -0.1884  0.0767
13149TIP3    H160862   4.801   6.218   1.653 -3.6135  1.7324 -1.5494
13149TIP3    H260863   4.695   6.113   1.628 -1.0391 -1.8307  1.5767
13150TIP3   OH260864   4.734   6.780  14.633  0.4842 -0.4074  0.2846
13150TIP3    H160865   4.688   6.835  14.570  0.6464 -0.8979 -0.2734
13150TIP3    H260866   4.720   6.690  14.601  1.9493 -0.5609  0.0097
13151TIP3   OH260867   3.072   1.961   0.464  0.0356  0.5789 -0.3576
13151TIP3    H160868   3.094   2.029   0.400 -1.9273  0.1502 -1.5895
13151TIP3    H260869   2.991   1.991   0.504 -2.2768 -1.9932 -2.6572
13152TIP3   OH260870   5.027   2.712   5.405  0.7266  0.3451  0.1841
13152TIP3    H160871   4.991   2.631   5.441 -1.2568  0.4675 -1.3665
13152TIP3    H260872   4.970   2.781   5.439  1.7044  0.9740  0.5765
13153TIP3   OH260873   1.012   3.303  14.689 -0.2007  0.3324 -0.1146
13153TIP3    H160874   0.941   3.306  14.625 -0.4469 -0.8021  0.0952
13153TIP3    H260875   1.068   3.232  14.659  0.9530  1.3189 -0.3637
13154TIP3   OH260876   0.882   4.826  11.081  0.1912  0.0786 -0.3760
13154TIP3    H160877   0.860   4.885  11.010 -1.2991 -0.1238 -0.1122
13154TIP3    H260878   0.800   4.814  11.129  1.0580 -0.1280  1.1255
13155TIP3   OH260879   4.237   0.906  17.072  0.6083 -0.4743 -0.3443
13155TIP3    H160880   4.292   0.830  17.089 -0.7719 -1.8602 -1.6352
13155TIP3    H260881   4.148   0.876  17.091  0.2607  2.0824  2.9587
13156TIP3   OH260882   4.902   0.057  14.860 -0.0075 -0.0388 -0.1659
13156TIP3    H160883   4.840   0.052  14.933 -0.6047 -2.6415 -0.7642
13156TIP3    H260884   4.847   0.049  14.781  0.8892 -0.2715 -0.7845
13157TIP3   OH260885   4.534   3.333  13.371 -0.2835  0.0193  0.0609
13157TIP3    H160886   4.570   3.405  13.423  1.0890  0.2878 -1.1966
13157TIP3    H260887   4.599   3.318  13.303 -0.3856 -2.6290  0.4462
13158TIP3   OH260888   5.381   4.149  14.074 -0.0330  0.3718 -0.0180
13158TIP3    H160889   5.431   4.215  14.122  1.0896 -1.6188  1.6943
13158TIP3    H260890   5.384   4.071  14.129 -0.9810 -1.2660 -2.1277
13159TIP3   OH260891   2.444   5.645   4.907  0.3987 -0.0914 -0.0949
13159TIP3    H160892   2.394   5.725   4.925  1.1700  0.1476  1.1236
13159TIP3    H260893   2.386   5.591   4.854 -1.1909  0.1451  1.3267
13160TIP3   OH260894   6.360   6.520   5.489  0.6970 -0.2879  0.3840
13160TIP3    H160895   6.319   6.524   5.403 -0.6028 -1.0630  0.9267
13160TIP3    H260896   6.436   6.577   5.483  0.5350 -0.2099 -1.2192
13161TIP3   OH260897   1.503   0.136  16.378  0.1589  0.1499 -0.2978
13161TIP3    H160898   1.435   0.176  16.325  0.6308 -0.5621 -1.5051
13161TIP3    H260899   1.584   0.154  16.330  0.5735 -0.7449  0.0426
13162TIP3   OH260900   0.340   2.088  15.776  0.3306 -0.1846  0.6029
13162TIP3    H160901   0.257   2.041  15.770  0.1442  0.1381  0.6422
13162TIP3    H260902   0.335   2.155  15.709  0.3309  0.1881  0.9705
13163TIP3   OH260903   2.354   3.091   3.402  0.3746  0.1363 -0.5276
13163TIP3    H160904   2.426   3.059   3.456  0.9246  1.3751 -0.4909
13163TIP3    H260905   2.287   3.118   3.465 -0.3226 -1.4049 -0.5712
13164TIP3   OH260906   3.457   6.625  14.336  0.3194 -0.4102 -0.7930
13164TIP3    H160907   3.501   6.678  14.269  0.8783  1.9999  1.2930
13164TIP3    H260908   3.516   6.552  14.351  3.0494  1.8950  0.7934
13165TIP3   OH260909   3.980   6.630  14.708  0.4278  0.5349  0.1176
13165TIP3    H160910   4.043   6.702  14.714  0.7029  0.2303  1.0737
13165TIP3    H260911   4.026   6.555  14.744  0.7365 -0.5718 -2.3522
13166TIP3   OH260912   0.299   1.353   2.691 -0.1417 -0.5367 -0.1232
13166TIP3    H160913   0.249   1.359   2.772  1.1205 -0.3437  0.6738
13166TIP3    H260914   0.235   1.369   2.621 -1.1594 -0.2690  0.8491
13167TIP3   OH260915   6.577   0.220   6.245  0.3716 -0.0617  0.3158
13167TIP3    H160916   6.511   0.267   6.195 -0.2781 -0.3000  0.9216
13167TIP3    H260917   6.651   0.280   6.252  1.1095 -0.5812 -2.2215
13168TIP3   OH260918   3.350   2.814   0.750 -0.5496 -0.2433 -0.8729
13168TIP3    H160919   3.321   2.871   0.680  2.6373  0.5128 -1.7051
13168TIP3    H260920   3.293   2.737   0.743 -2.8081  1.3998 -1.7674
13169TIP3   OH260921   3.912   4.631   4.325  0.3981 -0.1254  0.2638
13169TIP3    H160922   3.871   4.705   4.280 -2.4239 -0.8688  1.3847
13169TIP3    H260923   3.963   4.671   4.396  0.6507  0.8197 -0.4374
13170TIP3   OH260924   0.444   5.339  13.239  0.1593  0.5638  0.0549
13170TIP3    H160925   0.443   5.248  13.269  2.3932 -1.0886 -4.1096
13170TIP3    H260926   0.353   5.359  13.219 -0.4081 -0.5674  1.3719
13171TIP3   OH260927   0.377   5.784   2.373 -0.0568  0.4061  0.3486
13171TIP3    H160928   0.346   5.824   2.292  0.2853 -2.0686 -1.0950
13171TIP3    H260929   0.462   5.826   2.389 -0.5995  1.6705  0.0479
13172TIP3   OH260930   1.484   0.768   1.362 -0.2995  0.0487  0.2731
13172TIP3    H160931   1.481   0.805   1.274 -0.4264 -3.3988 -1.3697
13172TIP3    H260932   1.413   0.703   1.362  0.1495 -0.5219  2.6977
13173TIP3   OH260933   1.426   5.034   0.978 -0.2319 -0.0048 -0.5864
13173TIP3    H160934   1.475   4.956   1.006  1.4047  1.6901  1.6374
13173TIP3    H260935   1.409   5.081   1.059 -0.3354  2.4404 -1.9531
13174TIP3   OH260936   3.200   1.053  15.553 -0.6520  0.3186  0.2490
13174TIP3    H160937   3.176   1.127  15.496 -0.6264  0.2789  0.1860
13174TIP3    H260938   3.247   1.094  15.626  1.3848  0.1669 -0.9003
13175TIP3   OH260939   3.912   2.843  12.817 -1.0591  1.0580 -0.0732
13175TIP3    H160940   3.938   2.868  12.906  1.8549  2.9472 -1.3131
13175TIP3    H260941   3.909   2.747  12.819  2.4747  0.8328  1.2898
13176TIP3   OH260942   2.380   5.533   1.086 -0.4242 -0.0124 -0.7861
13176TIP3    H160943   2.336   5.605   1.132 -0.4226 -0.4599 -0.0666
13176TIP3    H260944   2.472   5.559   1.085 -0.0508 -1.0111  1.5043
13177TIP3   OH260945   4.469   3.957   0.067 -1.5178 -0.7815 -0.3114
13177TIP3    H160946   4.468   3.951   0.162 -1.6258 -0.7202 -0.3091
13177TIP3    H260947   4.561   3.945   0.043 -1.7412 -2.8397 -0.3233
13178TIP3   OH260948   2.762   0.808  16.041 -0.1672 -0.2563  0.0505
13178TIP3    H160949   2.816   0.756  16.100  1.5613  0.9869 -0.3483
13178TIP3    H260950   2.672   0.789  16.068  0.4413 -2.1018  1.0059
13179TIP3   OH260951   6.542   6.203   2.061  0.1556  0.1276 -0.0157
13179TIP3    H160952   6.457   6.224   2.023  0.6404  1.8093 -0.2415
13179TIP3    H260953   6.549   6.260   2.138  2.1577  2.0813 -1.4952
13180TIP3   OH260954   1.038   0.944  13.567 -0.4565  0.5485  0.0862
13180TIP3    H160955   0.993   0.959  13.650  3.0788 -0.6594  2.4558
13180TIP3    H260956   1.007   0.859  13.538 -0.6882  0.3283  0.9431
13181TIP3   OH260957   1.658   4.759   2.122  0.5405 -0.3913 -0.1090
13181TIP3    H160958   1.613   4.832   2.081 -0.7706 -0.8423  0.4666
13181TIP3    H260959   1.739   4.796   2.156 -0.0105  0.7530 -0.0016
13182TIP3   OH260960   3.211   0.327  12.619 -0.6093  0.2204 -0.3491
13182TIP3    H160961   3.199   0.421  12.603 -0.0458  0.2001 -0.8896
13182TIP3    H260962   3.271   0.323  12.694  0.5040  0.2951 -1.2123
13183TIP3   OH260963   4.956   5.038  16.882  0.1456  0.2671  0.1511
13183TIP3    H160964   4.911   5.100  16.939  1.5713  0.7195  0.8404
13183TIP3    H260965   5.027   5.088  16.842  2.3649 -1.1629  1.9514
13184TIP3   OH260966   3.132   6.553  15.561 -0.2647  0.1546  0.4021
13184TIP3    H160967   3.149   6.647  15.548 -0.3870 -0.1361 -2.2662
13184TIP3    H260968   3.037   6.546  15.560 -0.2331 -0.1391 -0.5701
13185TIP3   OH260969   5.128   3.355  14.994 -0.9765 -0.0462  0.0043
13185TIP3    H160970   5.117   3.449  14.982  1.2894  0.4592  1.3017
13185TIP3    H260971   5.162   3.323  14.911  0.4313  0.7220  0.2641
13186TIP3   OH260972   0.352   5.719  16.461  0.1543 -0.5184 -0.7234
13186TIP3    H160973   0.306   5.660  16.401 -0.0474 -2.5057  1.2253
13186TIP3    H260974   0.319   5.695  16.548 -0.5451  3.1163  0.1652
13187TIP3   OH260975   4.382   2.270  16.434  0.1782 -0.1448 -0.0654
13187TIP3    H160976   4.333   2.309  16.362  0.5013  0.5681  0.0999
13187TIP3    H260977   4.350   2.179  16.438 -2.5630  0.7768  1.2776
13188TIP3   OH260978   2.156   0.139   4.568  0.1242 -0.1821  0.4165
13188TIP3    H160979   2.091   0.169   4.632 -1.9951 -0.7970 -1.3225
13188TIP3    H260980   2.215   0.082   4.618 -1.3465 -0.5318  1.8445
13189TIP3   OH260981   2.156   5.056   0.164  0.0140  0.9126  0.2763
13189TIP3    H160982   2.218   5.015   0.103  0.1301 -0.5627  1.3506
13189TIP3    H260983   2.212   5.103   0.226 -0.1061  2.4248 -0.6807
13190TIP3   OH260984   3.729   4.688  16.393  0.2140 -0.0225 -0.5055
13190TIP3    H160985   3.795   4.757  16.388  1.1968 -0.9358 -0.7111
13190TIP3    H260986   3.693   4.694  16.481  1.8828 -0.6408  0.2584
13191TIP3   OH260987   4.720   0.008   2.837 -0.5797 -0.2608 -0.7193
13191TIP3    H160988   4.787  -0.061   2.844 -1.0684 -0.7347 -0.6232
13191TIP3    H260989   4.721   0.033   2.744 -0.0796 -0.0677 -0.6644
13192TIP3   OH260990   1.447   5.351   3.002  0.1188 -0.0542 -0.0845
13192TIP3    H160991   1.456   5.446   3.009 -0.0473  0.0867 -1.5087
13192TIP3    H260992   1.479   5.318   3.086  0.0579  1.2607  0.4849
13193TIP3   OH260993   2.853   5.090   0.951 -0.0496  0.4593 -0.1059
13193TIP3    H160994   2.758   5.098   0.945 -0.1209  0.3124  0.6972
13193TIP3    H260995   2.886   5.179   0.940 -0.4883  1.0949  2.8182
13194TIP3   OH260996   5.492   0.907   5.855  0.2930  0.0087 -0.1887
13194TIP3    H160997   5.564   0.879   5.913  2.1027  1.6827 -1.5267
13194TIP3    H260998   5.440   0.827   5.843  0.0308 -0.5470  3.3242
13195TIP3   OH260999   3.335   5.855   2.264 -0.2778 -0.2963  0.4771
13195TIP3    H161000   3.262   5.915   2.254  0.2870  0.1369 -1.4241
13195TIP3    H261001   3.296   5.768   2.260 -0.7409 -0.0682 -0.0686
13196TIP3   OH261002   4.491   4.933   4.975  0.5074  0.1002  0.0814
13196TIP3    H161003   4.560   4.868   4.984 -0.1671 -0.5073  1.1956
13196TIP3    H261004   4.423   4.904   5.037  0.2378  1.9314  0.7134
13197TIP3   OH261005   3.513   6.459  13.886  0.2342  0.1749  0.1625
13197TIP3    H161006   3.595   6.450  13.836  1.0682 -2.5384  1.7800
13197TIP3    H261007   3.539   6.505  13.966 -0.1007  0.4286  0.1256
13198TIP3   OH261008   0.410   6.696   5.263  0.1137  0.0338 -0.1701
13198TIP3    H161009   0.417   6.718   5.356 -2.4602  1.4853 -0.2082
13198TIP3    H261010   0.317   6.711   5.242  0.6882  0.1355 -3.0513
13199TIP3   OH261011   2.493   0.480   2.184  0.0121 -0.3188 -0.3457
13199TIP3    H161012   2.574   0.465   2.232  0.4799 -1.3237 -1.4037
13199TIP3    H261013   2.507   0.439   2.098 -1.6715 -0.6615 -0.5000
13200TIP3   OH261014   4.851   0.919   6.577  0.6097  0.6334  0.2350
13200TIP3    H161015   4.859   1.003   6.622  0.7704  1.5906 -1.4947
13200TIP3    H261016   4.877   0.854   6.643  0.7514  1.9408  1.5229
13201TIP3   OH261017   0.930   2.394  11.779  0.2598 -0.2290  0.5455
13201TIP3    H161018   0.955   2.302  11.772  2.3582  0.3553 -0.2074
13201TIP3    H261019   0.929   2.425  11.688  0.1306  0.6356  0.8358
13202TIP3   OH261020   0.871   3.740   4.009 -0.0272 -0.1920 -0.3120
13202TIP3    H161021   0.909   3.719   4.094  0.6600  3.1149  0.3305
13202TIP3    H261022   0.941   3.720   3.946  0.7329  0.4864  0.2924
13203TIP3   OH261023   2.376   6.740   0.905 -0.1805  0.4417 -0.3302
13203TIP3    H161024   2.437   6.710   0.973 -1.2616  1.7558  1.2882
13203TIP3    H261025   2.401   6.831   0.889  2.6209 -0.8126 -4.6815
13204TIP3   OH261026   4.846   6.460   5.739  0.1314 -0.2492 -0.1573
13204TIP3    H161027   4.940   6.462   5.759  0.3142 -0.7841 -0.9267
13204TIP3    H261028   4.826   6.367   5.728 -0.5961 -0.1773  0.4473
13205TIP3   OH261029   3.552   5.178  16.591  0.1736 -0.1993  0.2318
13205TIP3    H161030   3.517   5.089  16.580  1.8843 -0.8247 -0.6072
13205TIP3    H261031   3.627   5.167  16.650  0.4318  0.6882  0.0835
13206TIP3   OH261032   5.585   2.104   2.344 -0.0496  0.0076 -1.0121
13206TIP3    H161033   5.639   2.041   2.296  0.3032 -2.4969  2.3139
13206TIP3    H261034   5.495   2.076   2.327  0.0717 -0.8482 -0.3268
13207TIP3   OH261035   4.112   4.165   2.772  0.0881 -0.5452 -0.5364
13207TIP3    H161036   4.033   4.112   2.779  1.0602 -2.1300 -1.1272
13207TIP3    H261037   4.081   4.251   2.743 -1.5708 -0.5901  0.9617
13208TIP3   OH261038   4.920   4.553   0.994  0.4649 -0.6772  0.8095
13208TIP3    H161039   4.919   4.479   0.933 -0.3714  0.3936 -0.5485
13208TIP3    H261040   4.928   4.514   1.081  1.5057 -2.2712  0.0391
13209TIP3   OH261041   6.554   0.782   4.252  0.6236 -0.4343 -0.1756
13209TIP3    H161042   6.609   0.704   4.253  0.5767 -0.4768 -0.5377
13209TIP3    H261043   6.507   0.777   4.168 -0.8364 -1.0134  0.6478
13210TIP3   OH261044   1.349   1.434   4.138 -0.2678 -0.5108 -0.3395
13210TIP3    H161045   1.368   1.521   4.104 -0.4748 -0.6775 -0.8867
13210TIP3    H261046   1.432   1.388   4.136 -0.1744 -0.3548 -0.1244
13211TIP3   OH261047   3.497   1.553   5.465  0.0867 -0.6614  0.1209
13211TIP3    H161048   3.538   1.594   5.389 -0.2845 -0.8879 -0.1982
13211TIP3    H261049   3.407   1.586   5.465 -0.4968 -2.1793 -0.6745
13212TIP3   OH261050   5.535   3.027  10.927  0.3256  0.8302  0.1933
13212TIP3    H161051   5.517   2.940  10.964  1.3044  0.3863 -0.3388
13212TIP3    H261052   5.504   3.020  10.836  0.2884  1.0830  0.1874
13213TIP3   OH261053   3.577   4.655  13.868 -0.1130  0.4309  0.1680
13213TIP3    H161054   3.485   4.633  13.882 -0.7054  1.9902 -0.9651
13213TIP3    H261055   3.620   4.637  13.951 -1.0668 -2.0610  0.1852
13214TIP3   OH261056   0.880   6.408   6.583 -0.3109  0.0679  0.4381
13214TIP3    H161057   0.833   6.325   6.581  0.2362 -0.3066  2.0207
13214TIP3    H261058   0.970   6.386   6.560 -0.3421  0.3665  0.0178
13215TIP3   OH261059   3.200   3.664  14.844 -0.0360 -0.1059  0.1955
13215TIP3    H161060   3.136   3.625  14.904 -0.5892 -0.9609 -0.9015
13215TIP3    H261061   3.284   3.630  14.874 -0.0610  1.0846  1.6958
13216TIP3   OH261062   5.067   1.279  11.958  0.5279 -0.2790  0.5092
13216TIP3    H161063   5.072   1.234  12.042  0.0832 -0.3942  0.4810
13216TIP3    H261064   5.003   1.349  11.972 -0.1362 -0.7787  0.0661
13217TIP3   OH261065   3.734   3.174  16.274  0.0019  0.4198  0.0495
13217TIP3    H161066   3.714   3.167  16.368  3.8346 -3.0066  0.8935
13217TIP3    H261067   3.794   3.248  16.268  0.8110 -0.1712  0.5994
13218TIP3   OH261068   6.672   5.703   3.032  0.1712  0.1449  0.4717
13218TIP3    H161069   6.660   5.789   2.992 -1.5727 -0.0387  0.5084
13218TIP3    H261070   6.764   5.682   3.016 -0.1261  0.5975 -2.4271
13219TIP3   OH261071   1.823   3.842   1.083 -0.7523 -0.8168  0.4438
13219TIP3    H161072   1.743   3.807   1.043 -0.1037 -0.4972 -1.2093
13219TIP3    H261073   1.859   3.900   1.017  0.9854 -1.1402  1.0729
13220TIP3   OH261074   5.877   2.914  15.410  0.1333 -0.0838 -0.0845
13220TIP3    H161075   5.814   2.952  15.349 -1.2973 -1.0469  0.7248
13220TIP3    H261076   5.843   2.826  15.428  1.0650 -0.2030  1.2880
13221TIP3   OH261077   0.707   3.294  13.251  0.4762  0.6544 -0.3432
13221TIP3    H161078   0.756   3.221  13.289  0.1612 -0.2315 -1.6013
13221TIP3    H261079   0.668   3.338  13.327 -0.1897 -1.0988  0.3878
13222TIP3   OH261080   6.769   1.260  16.713 -0.4733 -0.0150 -0.3926
13222TIP3    H161081   6.801   1.287  16.799  0.6545 -1.9215 -0.1436
13222TIP3    H261082   6.796   1.168  16.706 -2.6274 -0.6155 -1.8040
13223TIP3   OH261083   1.425   5.070   5.464  0.4114 -0.2697 -0.0127
13223TIP3    H161084   1.344   5.096   5.507 -1.5539 -3.4575 -1.4190
13223TIP3    H261085   1.444   5.140   5.403 -1.8858  0.1384 -0.3433
13224TIP3   OH261086   0.516   0.386  15.738 -0.0776 -0.3357 -0.3009
13224TIP3    H161087   0.504   0.304  15.691 -1.1210 -0.3696 -0.0077
13224TIP3    H261088   0.489   0.453  15.675 -2.1576 -0.4212  0.4227
13225TIP3   OH261089   5.424   3.147   0.557 -0.1215 -0.6408  0.9910
13225TIP3    H161090   5.459   3.095   0.630  2.9193 -1.7280 -1.0186
13225TIP3    H261091   5.356   3.092   0.518 -0.5047 -0.8296  1.9104
13226TIP3   OH261092   3.663   1.406  12.987 -0.8710 -0.2481 -0.5250
13226TIP3    H161093   3.595   1.339  12.974 -1.5192  0.1628  0.5770
13226TIP3    H261094   3.643   1.443  13.074  0.4738  0.2226 -0.4030
13227TIP3   OH261095   5.860   1.310  13.677 -0.3050 -0.5187 -0.3531
13227TIP3    H161096   5.915   1.380  13.641  0.2141 -0.4058  0.6323
13227TIP3    H261097   5.905   1.229  13.653 -0.1431 -0.4574 -0.2593
13228TIP3   OH261098   4.930   6.628   0.088  0.0196  0.3556 -0.1930
13228TIP3    H161099   4.876   6.631   0.167  0.1257 -0.1581 -0.0981
13228TIP3    H261100   4.931   6.536   0.064 -1.0957  0.6639 -1.5488
13229TIP3   OH261101   0.121   5.488   3.210  0.5024  0.7495  0.3864
13229TIP3    H161102   0.133   5.539   3.130  0.6074 -0.5726 -0.4695
13229TIP3    H261103   0.103   5.554   3.278 -0.5001  1.8391 -0.8800
13230TIP3   OH261104   4.690   6.386  15.363  0.2024 -0.5847  0.1053
13230TIP3    H161105   4.768   6.368  15.311  0.7536  0.5400  0.5276
13230TIP3    H261106   4.620   6.398  15.299  1.3625  3.4610 -0.6618
13231TIP3   OH261107   3.148   0.580   0.051  0.2528  0.0654 -0.3308
13231TIP3    H161108   3.200   0.508   0.016  1.9251  0.0373  1.9955
13231TIP3    H261109   3.132   0.637  -0.024  0.6007 -1.6831 -1.8167
13232TIP3   OH261110   2.015   4.514  13.164 -0.2035 -0.3685 -0.5190
13232TIP3    H161111   2.103   4.539  13.136  0.4870 -2.3506 -0.2767
13232TIP3    H261112   2.026   4.489  13.256 -0.8765 -1.2462 -0.6667
13233TIP3   OH261113   4.102   5.249  16.830 -0.3054 -0.6937  0.0455
13233TIP3    H161114   4.191   5.215  16.829 -0.9325 -2.4441 -0.6744
13233TIP3    H261115   4.080   5.257  16.923  0.2126 -1.3706  0.2351
13234TIP3   OH261116   3.611   3.200   0.804 -0.4736 -0.0238 -0.2524
13234TIP3    H161117   3.642   3.264   0.867 -2.0975  1.4368 -0.8615
13234TIP3    H261118   3.552   3.144   0.854 -1.0217  0.5422 -0.2595
13235TIP3   OH261119   4.866   5.834  16.763  0.2397 -0.1163 -0.2955
13235TIP3    H161120   4.866   5.927  16.786 -1.8630  0.1473 -1.1421
13235TIP3    H261121   4.958   5.808  16.767  0.7911  1.8076  0.6615
13236TIP3   OH261122   2.054   1.832   0.684 -0.2720  0.5583 -0.1269
13236TIP3    H161123   2.017   1.921   0.682 -0.5541  0.4406 -0.0909
13236TIP3    H261124   1.979   1.775   0.699  0.0191  0.3703  0.6544
13237TIP3   OH261125   4.434   1.427  14.662  0.4562 -0.5963 -0.4217
13237TIP3    H161126   4.478   1.476  14.732 -0.4227 -0.1275 -0.1868
13237TIP3    H261127   4.392   1.353  14.707 -0.2907 -0.1757 -0.4069
13238TIP3   OH261128   6.430   4.348   4.771  0.5028  0.2464 -0.5097
13238TIP3    H161129   6.344   4.391   4.772  0.8368  1.0115  1.4979
13238TIP3    H261130   6.438   4.312   4.683 -2.0827 -0.2770 -0.6229
13239TIP3   OH261131   5.958   3.342  11.874  0.0243  0.0889  0.3301
13239TIP3    H161132   6.003   3.313  11.796 -1.2380 -1.1452  0.0315
13239TIP3    H261133   5.914   3.423  11.848 -0.4884 -0.3818 -0.2801
13240TIP3   OH261134   2.509   2.374   5.084 -0.3033 -0.1443  0.2657
13240TIP3    H161135   2.500   2.426   5.164 -0.3675 -1.4667  1.1568
13240TIP3    H261136   2.506   2.438   5.013  2.4853  1.4162  1.3859
13241TIP3   OH261137   0.790   4.320  13.258  0.2067  0.2697 -0.4827
13241TIP3    H161138   0.867   4.378  13.256  0.6724 -0.2525  0.9336
13241TIP3    H261139   0.770   4.311  13.352 -0.4560 -1.0720 -0.7382
13242TIP3   OH261140   5.294   5.864   0.115  0.1321 -0.0585  0.8209
13242TIP3    H161141   5.265   5.870   0.206 -0.4495 -1.9556  0.8153
13242TIP3    H261142   5.216   5.885   0.063  0.6064  1.5785  0.7207
13243TIP3   OH261143   3.366   0.074   1.802 -0.7142  0.0193 -0.3932
13243TIP3    H161144   3.380   0.027   1.885  0.4500 -1.2956 -1.2763
13243TIP3    H261145   3.293   0.028   1.761 -1.1242  0.5092 -0.2174
13244TIP3   OH261146   1.929   0.017  11.553  0.5390 -0.2694 -0.2788
13244TIP3    H161147   1.978  -0.051  11.509  0.5994  0.1521 -0.8690
13244TIP3    H261148   1.927   0.090  11.491 -1.4817 -0.5337 -0.6054
13245TIP3   OH261149   2.500   4.442  14.322 -0.3460 -0.1920  0.3519
13245TIP3    H161150   2.487   4.348  14.340 -1.2916 -0.4433 -1.3973
13245TIP3    H261151   2.584   4.446  14.277 -0.9701 -0.4074 -0.8597
13246TIP3   OH261152   6.414   6.744   2.624  0.1185  0.0688  0.3994
13246TIP3    H161153   6.332   6.793   2.622 -0.4018 -0.7871  0.0503
13246TIP3    H261154   6.469   6.792   2.685 -0.2697  1.2332 -0.1302
13247TIP3   OH261155   0.175   4.274  14.012 -0.5441  0.1423 -0.1124
13247TIP3    H161156   0.147   4.306  13.926 -0.4039  0.2872 -0.1048
13247TIP3    H261157   0.227   4.346  14.048  0.2288 -0.2970 -0.3174
13248TIP3   OH261158   5.361   4.767  14.471 -0.1308  0.2450 -0.6180
13248TIP3    H161159   5.429   4.703  14.451  0.7815  1.1873 -0.6113
13248TIP3    H261160   5.281   4.729  14.435  0.3928 -0.8778 -0.6323
13249TIP3   OH261161   6.494   2.131  12.050 -0.0023 -0.5053  0.3303
13249TIP3    H161162   6.500   2.036  12.049 -1.0557 -0.5871  0.7194
13249TIP3    H261163   6.408   2.150  12.089  0.4197  0.6101  0.7678
13250TIP3   OH261164   5.626   0.282   5.101  0.3125 -0.0806 -0.0585
13250TIP3    H161165   5.559   0.287   5.170 -0.8083  1.7926 -1.1782
13250TIP3    H261166   5.662   0.371   5.097  2.6633 -0.9562  0.2436
13251TIP3   OH261167   0.814   6.778   1.126  0.2714  0.0783 -0.4362
13251TIP3    H161168   0.765   6.715   1.180  0.9530 -0.8427 -0.8653
13251TIP3    H261169   0.774   6.862   1.145 -0.8507 -0.5240 -0.0526
13252TIP3   OH261170   5.760   5.868   3.728 -0.4703  0.4791 -0.2297
13252TIP3    H161171   5.810   5.913   3.796 -1.3645  1.4333 -0.1957
13252TIP3    H261172   5.715   5.797   3.775  0.8606 -0.4337 -0.2695
13253TIP3   OH261173   3.387   4.711   1.385  0.1106  0.7971  0.2737
13253TIP3    H161174   3.381   4.626   1.429 -0.5368  1.6735  1.9564
13253TIP3    H261175   3.359   4.694   1.295  1.4745 -1.0587  0.1345
13254TIP3   OH261176   4.549   3.538   3.127 -0.8527  0.6121 -0.0577
13254TIP3    H161177   4.501   3.573   3.202 -1.5719 -0.1092 -0.1746
13254TIP3    H261178   4.634   3.583   3.130 -0.4899 -0.1112  1.7686
13255TIP3   OH261179   4.834   2.992   1.731  0.2777  0.0531  0.0457
13255TIP3    H161180   4.822   2.989   1.636 -1.8044 -1.1253  0.2835
13255TIP3    H261181   4.914   3.043   1.744 -0.4797  1.9976 -2.2444
13256TIP3   OH261182   1.136   0.018  13.911  0.2053 -0.2474  0.4895
13256TIP3    H161183   1.159   0.080  13.842  0.2259 -2.1496 -1.3063
13256TIP3    H261184   1.187   0.047  13.987  1.2152  1.1422 -0.6652
13257TIP3   OH261185   2.087   4.975   4.296  0.2263 -0.0122 -0.4566
13257TIP3    H161186   2.070   4.953   4.387 -1.4393  0.5016 -0.6161
13257TIP3    H261187   2.142   4.903   4.264 -0.0926 -0.7683  0.6397
13258TIP3   OH261188   3.972   6.007   2.387 -0.3476  0.0253  0.2330
13258TIP3    H161189   3.992   5.991   2.479  0.2212 -1.5279 -0.1275
13258TIP3    H261190   3.907   6.077   2.388  1.6330  2.0003  1.6798
13259TIP3   OH261191   5.425   3.082  14.324 -0.5356 -0.6475 -0.1457
13259TIP3    H161192   5.475   3.109  14.247 -0.6705  0.7167  0.2182
13259TIP3    H261193   5.484   3.098  14.398 -1.0718 -0.1672  0.1850
13260TIP3   OH261194   0.477   5.505  16.681  0.3004  0.0362  0.3109
13260TIP3    H161195   0.415   5.441  16.647 -0.4429  0.4154  0.9158
13260TIP3    H261196   0.422   5.578  16.711  1.1174  0.9089 -0.2515
13261TIP3   OH261197   4.461   1.768  13.974  0.0783 -0.0888 -0.2200
13261TIP3    H161198   4.507   1.756  14.057 -1.3878 -0.1256  0.6107
13261TIP3    H261199   4.376   1.804  13.998 -0.0868  0.6317 -1.7754
13262TIP3   OH261200   2.230   5.193  16.442 -0.4337 -0.6726  0.1722
13262TIP3    H161201   2.323   5.209  16.429  0.2410 -1.7934  2.8883
13262TIP3    H261202   2.212   5.112  16.394  0.8908 -2.3418  2.3140
13263TIP3   OH261203   4.727   4.057  12.684  0.5645 -0.0246 -0.1457
13263TIP3    H161204   4.769   4.141  12.704 -0.8939  0.3739  1.5367
13263TIP3    H261205   4.791   3.991  12.711  1.4332  0.5467 -0.7827
13264TIP3   OH261206   4.463   6.136   5.128 -0.3936 -0.2416  0.1482
13264TIP3    H161207   4.414   6.109   5.050  1.2446 -1.8960 -0.3690
13264TIP3    H261208   4.528   6.198   5.095 -1.1140  0.7710  0.5875
13265TIP3   OH261209   0.432   1.343  11.357  0.4600 -0.3214 -0.2455
13265TIP3    H161210   0.451   1.254  11.326 -0.3182 -0.6835  0.2857
13265TIP3    H261211   0.432   1.397  11.277  3.5363 -0.2737 -0.3314
13266TIP3   OH261212   3.948   4.594  12.108 -0.0480 -0.0637  0.4166
13266TIP3    H161213   4.041   4.586  12.128  0.5809  1.4751 -1.4530
13266TIP3    H261214   3.940   4.682  12.069 -2.0615 -0.5946 -0.5169
13267TIP3   OH261215   0.652   2.400  15.409 -0.0321  0.3756 -0.3858
13267TIP3    H161216   0.562   2.416  15.379 -0.2364  0.2120  0.1219
13267TIP3    H261217   0.695   2.485  15.402 -0.0659  0.3280 -1.1681
13268TIP3   OH261218   4.457   2.202   3.820 -0.0469 -0.0443 -0.1117
13268TIP3    H161219   4.372   2.206   3.774 -0.5881  1.6511  0.9518
13268TIP3    H261220   4.516   2.254   3.765 -0.2872  0.6473  0.2717
13269TIP3   OH261221   0.122   4.250  14.881  0.4110  0.2269 -0.0570
13269TIP3    H161222   0.116   4.327  14.937 -1.2839  0.3108 -0.2855
13269TIP3    H261223   0.073   4.274  14.802  0.4341 -0.8338 -0.4130
13270TIP3   OH261224   2.940   3.525  14.970  0.2631 -0.5916  0.0067
13270TIP3    H161225   2.917   3.448  14.919 -2.1532 -1.3978  2.1212
13270TIP3    H261226   2.872   3.590  14.949  0.2019 -0.3493  0.8916
13271TIP3   OH261227   5.375   4.713   4.206  0.1621 -0.0456 -0.1441
13271TIP3    H161228   5.337   4.768   4.275  1.5459  1.4240 -0.4873
13271TIP3    H261229   5.353   4.759   4.125 -0.3285 -1.0668 -0.6052
13272TIP3   OH261230   3.312   1.488   4.804  0.5204  0.3139  0.1165
13272TIP3    H161231   3.321   1.500   4.899  0.7689 -0.2583  0.1749
13272TIP3    H261232   3.382   1.426   4.782  1.5973  1.7744 -0.7404
13273TIP3   OH261233   5.109   0.058  15.653 -0.2806  0.0250 -0.7043
13273TIP3    H161234   5.159   0.104  15.720 -0.4723  0.1387 -0.6418
13273TIP3    H261235   5.116   0.114  15.575  1.6377 -1.0549 -1.3844
13274TIP3   OH261236   3.624   6.599  12.667  0.1100  0.2371 -0.1085
13274TIP3    H161237   3.530   6.605  12.651  0.4566  0.8144 -2.2322
13274TIP3    H261238   3.645   6.679  12.716 -0.2041  1.2124 -1.4961
13275TIP3   OH261239   4.158   3.826  12.829 -0.3998  0.2516  1.2914
13275TIP3    H161240   4.189   3.899  12.882 -0.6801  2.4003 -1.3118
13275TIP3    H261241   4.065   3.842  12.818 -0.0858  0.7603 -1.0563
13276TIP3   OH261242   2.806   1.601  15.673  0.3217  0.3951 -0.1670
13276TIP3    H161243   2.717   1.637  15.665  0.4190  1.3691  2.2612
13276TIP3    H261244   2.857   1.674  15.709  1.8263 -0.5386 -0.3647
13277TIP3   OH261245   1.662   1.252  14.064  0.5268  0.1217  0.3471
13277TIP3    H161246   1.579   1.205  14.052 -0.7379  2.5287 -1.1134
13277TIP3    H261247   1.650   1.301  14.145  0.9756 -0.3209  0.6915
13278TIP3   OH261248   4.793   3.313  13.238 -0.4102  0.0258  0.0485
13278TIP3    H161249   4.841   3.328  13.320 -2.5180  0.9498  1.1851
13278TIP3    H261250   4.860   3.286  13.176  1.4430  0.4294  1.7707
13279TIP3   OH261251   0.731   5.806   4.129  0.2676  0.1333  0.1632
13279TIP3    H161252   0.734   5.725   4.181  0.4450 -0.9549 -1.4524
13279TIP3    H261253   0.800   5.795   4.064  0.9399  2.0497  0.4988
13280TIP3   OH261254   2.088   1.064  15.794 -0.1991 -0.3811 -0.5847
13280TIP3    H161255   2.118   1.069  15.885  1.2187 -1.4356 -0.9525
13280TIP3    H261256   2.133   1.137  15.751  0.6877 -1.0509 -0.8223
13281TIP3   OH261257   1.946   5.330  11.896 -0.7683 -0.1546  0.0295
13281TIP3    H161258   1.960   5.409  11.843 -2.6081  0.3841  0.2617
13281TIP3    H261259   2.028   5.281  11.888  0.1062  1.3469 -0.8432
13282TIP3   OH261260   2.769   0.509  16.410 -0.3359  0.5170  0.5678
13282TIP3    H161261   2.780   0.595  16.452 -1.9491  1.3201 -0.5311
13282TIP3    H261262   2.730   0.454  16.478 -0.6719  1.0954  0.8549
13283TIP3   OH261263   6.040   0.580   0.752 -0.2132  0.6211 -0.4475
13283TIP3    H161264   5.952   0.566   0.787 -0.1406 -0.2944 -0.5974
13283TIP3    H261265   6.079   0.645   0.810 -0.0671 -0.9152  1.2686
13284TIP3   OH261266   6.498   4.961  15.911 -0.2774 -0.1631  0.3458
13284TIP3    H161267   6.451   4.993  15.834 -2.8941 -1.4959  1.2942
13284TIP3    H261268   6.462   5.012  15.984  0.6563 -0.3737  0.9707
13285TIP3   OH261269   2.859   5.066  12.948  0.1530  0.7513  0.5534
13285TIP3    H161270   2.783   5.108  12.907  0.0312  0.3073  0.3079
13285TIP3    H261271   2.909   5.138  12.986 -0.6536  1.0131  1.1700
13286TIP3   OH261272   3.704   0.426   3.726 -0.4382  0.4304  0.2905
13286TIP3    H161273   3.760   0.401   3.652 -1.2033  0.3966 -0.2851
13286TIP3    H261274   3.639   0.485   3.688  0.2963  1.9512  1.2968
13287TIP3   OH261275   3.719   2.701   4.108  0.1509  0.0133  0.1198
13287TIP3    H161276   3.796   2.757   4.112  0.6781 -0.5527 -1.5228
13287TIP3    H261277   3.748   2.619   4.147 -0.1888  0.3803  1.1804
13288TIP3   OH261278   5.044   0.308  11.629  0.0786  0.6960 -0.0076
13288TIP3    H161279   4.970   0.351  11.673  0.5884  0.3204  1.2622
13288TIP3    H261280   5.120   0.360  11.654  0.4694  0.0756  0.1149
13289TIP3   OH261281   1.320   0.889   0.322 -0.1748  0.0323  0.1733
13289TIP3    H161282   1.323   0.976   0.362 -0.1308 -0.5323  1.4274
13289TIP3    H261283   1.268   0.836   0.382  0.7471 -1.1021  0.0056
13290TIP3   OH261284   2.951   0.025  15.135 -0.6776 -0.3497 -0.6476
13290TIP3    H161285   2.985  -0.063  15.152  1.1484  0.4946  0.2871
13290TIP3    H261286   2.955   0.070  15.219  1.3133  1.5570 -1.6660
13291TIP3   OH261287   4.818   0.831   5.412 -0.7082  0.0302  0.0803
13291TIP3    H161288   4.890   0.880   5.371 -0.8255 -1.0829 -1.5657
13291TIP3    H261289   4.862   0.760   5.460 -0.6655 -0.2933 -0.4273
13292TIP3   OH261290   6.372   4.468   3.950  0.7343  0.0994 -0.2270
13292TIP3    H161291   6.366   4.463   3.855 -0.1667  1.1146 -0.2429
13292TIP3    H261292   6.395   4.559   3.968 -1.1225  0.4585  0.5818
13293TIP3   OH261293   4.324   3.317  13.079  0.1248  0.4812 -0.1298
13293TIP3    H161294   4.419   3.320  13.072  0.1011  0.8660 -0.3040
13293TIP3    H261295   4.296   3.408  13.080 -0.2942  0.3680 -0.8414
13294TIP3   OH261296   5.150   4.665  16.301 -0.3505  0.4150  0.0304
13294TIP3    H161297   5.167   4.702  16.388  2.9979  0.4218 -0.4996
13294TIP3    H261298   5.229   4.614  16.281 -1.9512 -1.3696 -2.1414
13295TIP3   OH261299   4.151   1.203  15.428 -0.4183  0.4589 -0.0753
13295TIP3    H161300   4.240   1.182  15.401 -0.2953  1.3719 -0.3990
13295TIP3    H261301   4.099   1.126  15.401  0.0317  0.5120 -1.1484
13296TIP3   OH261302   3.671   2.855  14.325  0.0139 -0.8204 -0.3428
13296TIP3    H161303   3.743   2.812  14.371 -0.0383 -0.8876 -0.3232
13296TIP3    H261304   3.593   2.830  14.375  0.0048 -0.5493 -0.2191
13297TIP3   OH261305   1.412   6.594  11.785  0.2334  0.5893  0.6979
13297TIP3    H161306   1.478   6.560  11.845  0.6601  0.7245  0.3090
13297TIP3    H261307   1.333   6.544  11.806  1.1143 -1.4395 -0.6062
13298TIP3   OH261308   3.273   3.228  17.160 -0.3614 -0.4670  0.0641
13298TIP3    H161309   3.259   3.134  17.151 -0.7237 -0.5843  1.5269
13298TIP3    H261310   3.247   3.247  17.250  1.0238  0.7807  0.2438
13299TIP3   OH261311   4.891   4.134  13.213  0.6605 -0.2251 -0.1252
13299TIP3    H161312   4.914   4.125  13.121  2.5439  0.2948  0.2418
13299TIP3    H261313   4.929   4.057  13.255  0.7300  0.0683  0.3600
13300TIP3   OH261314   2.723   5.056  14.838  0.5936  0.2722 -0.9856
13300TIP3    H161315   2.665   5.009  14.777 -1.4369 -0.4727  1.3674
13300TIP3    H261316   2.797   4.996  14.850  0.2306 -0.2963 -1.4599
13301TIP3   OH261317   2.938   5.778   0.912 -0.4798 -0.6410 -0.3718
13301TIP3    H161318   2.977   5.863   0.890  2.9240 -2.3244 -1.6760
13301TIP3    H261319   2.856   5.776   0.863  0.9285  0.6704 -3.0162
13302TIP3   OH261320   3.113   4.973   4.735  0.5751  0.0565 -0.1375
13302TIP3    H161321   3.109   4.943   4.644  0.5633  3.4151 -1.3888
13302TIP3    H261322   3.206   4.983   4.753  0.5467  0.5786 -0.2544
13303TIP3   OH261323   0.544   0.973   1.634 -0.3478  0.1789  0.3768
13303TIP3    H161324   0.468   0.939   1.586  1.7281 -1.5606 -1.9831
13303TIP3    H261325   0.518   1.061   1.661 -2.5457  0.4016 -2.0312
13304TIP3   OH261326   2.032   2.731  13.723  0.0663 -0.5969 -0.3637
13304TIP3    H161327   2.055   2.649  13.768 -0.0209  0.0440  0.8845
13304TIP3    H261328   2.057   2.800  13.785 -3.5684  0.2422  0.4020
13305TIP3   OH261329   0.231   5.816   3.097  0.5708  0.0452 -0.1991
13305TIP3    H161330   0.168   5.888   3.106  0.0433 -0.3828 -0.4064
13305TIP3    H261331   0.191   5.757   3.033  1.6370  0.2399 -1.0642
13306TIP3   OH261332   3.127   1.820   1.696 -0.1309 -0.3313 -0.1847
13306TIP3    H161333   3.073   1.853   1.767  0.4970 -0.8236  0.5361
13306TIP3    H261334   3.065   1.794   1.628 -0.8612 -1.7180  0.9743
13307TIP3   OH261335   3.907   1.670   0.970 -0.1601 -0.1140 -0.2322
13307TIP3    H161336   3.909   1.766   0.973  0.0085 -0.1326  0.4581
13307TIP3    H261337   3.973   1.643   1.033 -0.6740 -0.6868  0.0711
13308TIP3   OH261338   4.012   1.646   4.397  0.6730 -0.3182  0.3494
13308TIP3    H161339   4.081   1.594   4.357  1.6564  1.2877 -0.1315
13308TIP3    H261340   4.022   1.630   4.491  1.0994 -0.8254  0.2213
13309TIP3   OH261341   4.213   0.834   3.312 -0.4245  0.0440 -0.0063
13309TIP3    H161342   4.238   0.887   3.237 -1.7580  1.8688  0.7805
13309TIP3    H261343   4.120   0.851   3.324 -0.3049 -0.3803  1.9119
13310TIP3   OH261344   4.071   2.157   1.614 -0.6653 -0.9782 -0.1018
13310TIP3    H161345   4.046   2.228   1.555 -0.1209 -1.3711 -0.8151
13310TIP3    H261346   4.017   2.170   1.692 -2.2747 -1.1616 -1.1588
13311TIP3   OH261347   6.142   6.294  16.697 -0.2198  0.0569 -0.3360
13311TIP3    H161348   6.231   6.260  16.698 -0.2768 -0.0922 -0.2711
13311TIP3    H261349   6.086   6.216  16.701 -0.3528  0.1788  1.8782
13312TIP3   OH261350   2.665   5.596  14.477  0.0213 -0.5066 -0.3132
13312TIP3    H161351   2.614   5.565  14.551 -0.9871 -1.4356 -1.3573
13312TIP3    H261352   2.671   5.691  14.490 -1.4943 -0.4431  0.1456
13313TIP3   OH261353   0.532   2.398   3.376 -0.3165  0.2167  0.2485
13313TIP3    H161354   0.600   2.465   3.379 -0.9000  0.8026  0.4564
13313TIP3    H261355   0.561   2.338   3.307  0.6000  0.2499  0.5899
13314TIP3   OH261356   4.067   1.038   1.359  0.0304 -0.3487 -0.3875
13314TIP3    H161357   4.010   1.095   1.411  0.3210  0.1471 -0.6046
13314TIP3    H261358   4.029   1.040   1.271  0.9718  0.8398 -0.7941
13315TIP3   OH261359   4.422   3.706   2.396 -0.1996  0.3519  0.0007
13315TIP3    H161360   4.508   3.687   2.358  0.4442  0.9274  1.0980
13315TIP3    H261361   4.414   3.801   2.392 -1.6690  0.2181 -1.8492
13316TIP3   OH261362   0.789   4.270   5.504  0.0724  0.0118 -0.0308
13316TIP3    H161363   0.736   4.233   5.574  0.2722  0.1369  0.1849
13316TIP3    H261364   0.876   4.282   5.542  0.1275  0.2788 -0.2355
13317TIP3   OH261365   0.450   0.077  15.177  0.1348  0.0700 -0.1963
13317TIP3    H161366   0.383   0.145  15.167  0.5109  0.3340 -1.0196
13317TIP3    H261367   0.403   0.001  15.209 -0.3242  0.6707  0.5972
13318TIP3   OH261368   1.613   5.115   4.436 -0.2379  0.0481  0.3594
13318TIP3    H161369   1.650   5.109   4.523  3.6509 -0.4656 -1.1309
13318TIP3    H261370   1.567   5.032   4.423 -2.0206  0.6611  2.2731
13319TIP3   OH261371   5.614   0.872   1.249  0.3199  0.2570  0.0281
13319TIP3    H161372   5.588   0.795   1.198  2.1070 -0.0404 -0.4756
13319TIP3    H261373   5.550   0.874   1.321 -2.1058  0.5528 -2.0005
13320TIP3   OH261374   3.884   4.338   3.043  0.2505 -0.2635 -0.1839
13320TIP3    H161375   3.920   4.402   2.982  1.8396  0.4209  1.3620
13320TIP3    H261376   3.824   4.388   3.098  1.7356  0.0595  1.2339
13321TIP3   OH261377   2.912   3.298   0.695 -0.2101 -0.5878  0.3595
13321TIP3    H161378   2.860   3.231   0.740 -0.2701 -0.9218 -0.1960
13321TIP3    H261379   3.002   3.278   0.718 -0.0981 -1.7936 -0.9930
13322TIP3   OH261380   1.377   4.748  11.591 -0.6485  0.4666 -0.4278
13322TIP3    H161381   1.317   4.691  11.543  0.4369 -1.2329  0.1469
13322TIP3    H261382   1.363   4.725  11.683 -0.9469  1.9059 -0.1004
13323TIP3   OH261383   3.772   3.828  15.416  0.0170 -0.0463  0.7104
13323TIP3    H161384   3.825   3.843  15.495  0.7488 -0.4519  0.2998
13323TIP3    H261385   3.735   3.741  15.428  2.4363 -1.3564 -0.6638
13324TIP3   OH261386   1.346   1.429   6.394  0.5316 -0.1264 -0.6908
13324TIP3    H161387   1.330   1.441   6.488 -1.2677 -1.9730 -0.6985
13324TIP3    H261388   1.325   1.337   6.377 -1.3705  0.6761 -3.2930
13325TIP3   OH261389   1.184   2.177  13.992  0.5271 -0.2731 -0.4930
13325TIP3    H161390   1.124   2.125  13.937 -2.3756  0.9602  1.3129
13325TIP3    H261391   1.204   2.254  13.939 -1.1106  0.2447 -0.3846
13326TIP3   OH261392   4.799   2.186  10.336  0.1434  0.4773 -0.1702
13326TIP3    H161393   4.794   2.109  10.393  0.3648  1.0539  0.6461
13326TIP3    H261394   4.884   2.225  10.357  1.2596 -0.5249 -2.5094
13327TIP3   OH261395   1.549   5.383  13.761 -0.1390 -0.5292  0.4614
13327TIP3    H161396   1.464   5.407  13.723 -0.0026 -1.7435 -0.6973
13327TIP3    H261397   1.526   5.334  13.840 -0.4751  0.3888  0.9424
13328TIP3   OH261398   1.462   6.743   4.733  0.1041 -0.1305  0.0300
13328TIP3    H161399   1.409   6.822   4.728 -0.9135 -0.8186 -0.6073
13328TIP3    H261400   1.535   6.766   4.790  0.9681  1.8928 -1.7435
13329TIP3   OH261401   2.087   5.909   5.650 -0.5519 -0.3570  0.0362
13329TIP3    H161402   2.014   5.869   5.603 -1.7417  0.1881  1.3453
13329TIP3    H261403   2.161   5.900   5.591 -1.4233 -1.8990 -0.8949
13330TIP3   OH261404   1.316   1.184   2.596  0.1570 -0.4909 -0.5878
13330TIP3    H161405   1.337   1.125   2.524  0.5749 -1.5251  0.3538
13330TIP3    H261406   1.286   1.126   2.666 -0.6749  0.5324 -0.0730
13331TIP3   OH261407   6.487   5.247  11.104  0.1346  0.2639 -0.1264
13331TIP3    H161408   6.540   5.167  11.103 -1.2602 -0.7008  0.5723
13331TIP3    H261409   6.518   5.297  11.028  1.3402 -0.7128 -0.3149
13332TIP3   OH261410   6.291   4.777   0.643  0.5838  0.9629 -0.2060
13332TIP3    H161411   6.335   4.719   0.581  3.8218  2.4662  0.4690
13332TIP3    H261412   6.278   4.858   0.595  1.0332  1.3958  0.3830
13333TIP3   OH261413   2.557   0.633   0.455 -0.3600 -0.4385 -0.2375
13333TIP3    H161414   2.521   0.548   0.477  0.3823 -0.5838  0.4621
13333TIP3    H261415   2.632   0.614   0.399 -1.3359 -0.1400 -1.6960
13334TIP3   OH261416   1.753   4.207  16.642  0.4976 -0.0020 -0.1207
13334TIP3    H161417   1.774   4.286  16.592  0.2866 -0.5662 -1.1302
13334TIP3    H261418   1.684   4.164  16.591 -3.3416  1.8028  3.0176
13335TIP3   OH261419   2.639   6.545  14.232  0.9103 -0.1213  0.2589
13335TIP3    H161420   2.607   6.631  14.204 -0.3240 -0.6818 -0.1255
13335TIP3    H261421   2.695   6.563  14.307 -0.0579  0.9542  0.7487
13336TIP3   OH261422   4.107   6.573   1.925 -0.0136  0.2120  0.3409
13336TIP3    H161423   4.095   6.655   1.973  1.4443  0.0393  1.0708
13336TIP3    H261424   4.137   6.511   1.991 -1.2401 -0.9791 -0.1723
13337TIP3   OH261425   3.017   1.445  10.440  0.2969  0.1990 -0.2514
13337TIP3    H161426   2.987   1.398  10.517 -2.0860  0.4013 -0.9930
13337TIP3    H261427   3.027   1.536  10.470 -3.2532  0.8629 -0.6776
13338TIP3   OH261428   0.368   1.543  12.567  0.2743  0.0428  0.6175
13338TIP3    H161429   0.425   1.603  12.615 -0.1924 -0.0241  1.2672
13338TIP3    H261430   0.282   1.584  12.569  0.5264  0.7984 -1.5116
13339TIP3   OH261431   0.076   0.133   2.392 -0.4690 -0.1920 -0.2453
13339TIP3    H161432  -0.016   0.154   2.408 -0.3868  0.7536 -0.9313
13339TIP3    H261433   0.124   0.209   2.425 -0.0645  0.1717 -1.6139
13340TIP3   OH261434   3.429   2.455  11.780 -0.5419  0.4305  0.0230
13340TIP3    H161435   3.417   2.470  11.873 -1.4832  4.2796 -0.5386
13340TIP3    H261436   3.517   2.489  11.761 -0.5893  0.2294 -0.5746
13341TIP3   OH261437   3.978   1.270   0.927 -0.2397  0.1115 -0.4550
13341TIP3    H161438   4.041   1.201   0.909  0.2027  0.5918 -0.7937
13341TIP3    H261439   4.029   1.351   0.922 -0.8905  0.5119 -0.7712
13342TIP3   OH261440   3.990   1.950   0.556 -0.1756  0.2538  0.5488
13342TIP3    H161441   4.023   2.030   0.596 -0.4589  0.0828  1.1281
13342TIP3    H261442   3.926   1.915   0.619 -2.7278  1.4175 -1.2257
13343TIP3   OH261443   2.499   5.339  15.239  0.2059 -0.2314  0.3768
13343TIP3    H161444   2.432   5.379  15.183 -1.1607 -0.3193  1.8833
13343TIP3    H261445   2.523   5.259  15.193 -1.2448 -0.5521  0.1218
13344TIP3   OH261446   6.178   0.448   0.351 -0.6815  1.0010 -0.3577
13344TIP3    H161447   6.241   0.409   0.411  0.5889  0.0104 -2.2553
13344TIP3    H261448   6.108   0.480   0.408 -0.1135 -0.9184  1.5556
13345TIP3   OH261449   6.092   5.706   4.242  0.2008  0.0479 -0.2147
13345TIP3    H161450   6.149   5.770   4.285 -0.0212  0.5096 -0.5982
13345TIP3    H261451   6.026   5.759   4.197  0.1485 -0.4430 -0.7283
13346TIP3   OH261452   2.387   1.273   5.482  0.7526  0.0163 -0.5477
13346TIP3    H161453   2.368   1.223   5.562  1.4497  1.9581  0.9039
13346TIP3    H261454   2.320   1.244   5.420 -0.3337 -0.9626  0.9948
13347TIP3   OH261455   0.071   1.823   0.801  0.0582 -0.3359 -0.1613
13347TIP3    H161456   0.087   1.917   0.804  2.0844 -0.6475  1.5034
13347TIP3    H261457   0.041   1.800   0.889 -0.8005 -1.2176 -0.6526
13348TIP3   OH261458   4.579   2.716  14.920  0.5314 -0.2402  0.4975
13348TIP3    H161459   4.641   2.725  14.847  0.3375  1.4505  0.5040
13348TIP3    H261460   4.522   2.792  14.912 -0.4216 -0.8184  1.5623
13349TIP3   OH261461   3.719   5.315  14.547 -0.2318 -0.0937  0.6371
13349TIP3    H161462   3.630   5.341  14.570  0.2783  0.4168  2.1594
13349TIP3    H261463   3.742   5.369  14.471 -0.8485  0.5034  0.8680
13350TIP3   OH261464   6.431   2.036   5.389  0.3854  0.0185  0.0251
13350TIP3    H161465   6.344   1.998   5.373  0.7561 -0.3036 -1.2863
13350TIP3    H261466   6.477   1.969   5.440 -0.0023  0.0225  0.3816
13351TIP3   OH261467   1.852   2.928  13.894  0.9006 -0.6410  0.1967
13351TIP3    H161468   1.779   2.877  13.928  1.1510 -1.2813 -0.2051
13351TIP3    H261469   1.832   2.939  13.801  0.0309  1.4097  0.5731
13352TIP3   OH261470   5.307   3.449  11.211  0.2586  0.0518  0.1299
13352TIP3    H161471   5.218   3.466  11.182  0.2909  0.3675  0.2097
13352TIP3    H261472   5.362   3.476  11.137  0.3216  0.5177  0.3420
13353TIP3   OH261473   4.075   0.648  14.291  0.2141  0.1745 -0.1570
13353TIP3    H161474   3.997   0.595  14.276  1.2320 -0.7589 -2.7761
13353TIP3    H261475   4.148   0.587  14.275  1.4723  2.3651 -4.0422
13354TIP3   OH261476   2.963   5.558   3.787  0.0497  0.2054 -0.2858
13354TIP3    H161477   3.050   5.591   3.807 -0.1128  0.3914  0.1349
13354TIP3    H261478   2.946   5.585   3.697  1.2131 -1.5260 -1.0717
13355TIP3   OH261479   4.052   0.177  12.748 -0.5662  0.4810  0.1308
13355TIP3    H161480   4.121   0.145  12.690 -0.0034  2.3597 -0.3201
13355TIP3    H261481   3.993   0.103  12.759  0.1666 -0.4021 -1.5543
13356TIP3   OH261482   6.701   0.435   6.300 -0.4429 -0.1053 -0.3412
13356TIP3    H161483   6.795   0.430   6.315  0.0744  1.8073 -2.4032
13356TIP3    H261484   6.667   0.487   6.374 -0.0432 -1.4620  0.8227
13357TIP3   OH261485   3.985   2.892  15.664 -0.5089 -0.4080 -0.2103
13357TIP3    H161486   3.979   2.890  15.568 -2.3607  0.0066 -0.1525
13357TIP3    H261487   3.924   2.961  15.690 -0.9250 -1.2994  1.3075
13358TIP3   OH261488   5.243   0.470  11.790  0.0558  0.6667 -0.1946
13358TIP3    H161489   5.206   0.518  11.865  0.2925  0.7269 -0.1146
13358TIP3    H261490   5.332   0.448  11.818  0.5911  1.7797 -0.9408
13359TIP3   OH261491   2.335   6.737   4.578 -0.0933  0.2964 -0.1375
13359TIP3    H161492   2.381   6.658   4.551 -1.2203 -0.4967  0.2159
13359TIP3    H261493   2.403   6.791   4.619  1.1786  0.5526 -2.4045
13360TIP3   OH261494   3.356   0.276  13.674  0.2554 -0.4820 -0.1967
13360TIP3    H161495   3.419   0.344  13.652 -0.5424  1.1892  2.2872
13360TIP3    H261496   3.399   0.225  13.742 -0.6851  0.1273  0.8864
13361TIP3   OH261497   2.451   3.137  16.183 -0.2933  0.0556 -0.4400
13361TIP3    H161498   2.411   3.179  16.260  1.4119  0.0205  0.5152
13361TIP3    H261499   2.378   3.123  16.123 -1.7900 -0.3768  1.3714
13362TIP3   OH261500   1.934   4.037   3.674  0.8312  0.1885 -0.0108
13362TIP3    H161501   1.989   3.968   3.638  1.8729  1.1953 -0.4055
13362TIP3    H261502   1.860   3.990   3.714  2.3733 -1.2664  1.3074
13363TIP3   OH261503   4.593   2.825  11.682 -0.1209 -0.4486 -0.2240
13363TIP3    H161504   4.584   2.917  11.654 -0.2459 -0.6720 -0.9316
13363TIP3    H261505   4.617   2.831  11.775 -2.1094  0.2888  0.2985
13364TIP3   OH261506   3.934   3.231  14.153  0.4902  0.4847 -0.3515
13364TIP3    H161507   4.001   3.232  14.221  0.7493 -1.1103 -0.5481
13364TIP3    H261508   3.865   3.289  14.187  1.3777  1.1012  0.4444
13365TIP3   OH261509   5.770   0.250   4.874 -0.1451  0.1217  0.6137
13365TIP3    H161510   5.764   0.155   4.868 -0.9913  0.1411  0.9532
13365TIP3    H261511   5.708   0.274   4.943 -0.6069  0.9816 -0.0672
13366TIP3   OH261512   1.161   1.136   0.850  0.0128  0.2911  0.0558
13366TIP3    H161513   1.129   1.088   0.926 -1.4170  2.2477  0.7840
13366TIP3    H261514   1.257   1.132   0.857 -0.0435 -2.3238  0.0786
13367TIP3   OH261515   3.775   5.777   5.571 -0.4350 -0.2515 -0.1553
13367TIP3    H161516   3.840   5.721   5.529 -0.2024  0.3950 -0.6640
13367TIP3    H261517   3.763   5.739   5.658  1.4184  0.2507  0.3554
13368TIP3   OH261518   6.368   4.700  14.197  1.0263 -0.5106  0.0795
13368TIP3    H161519   6.295   4.761  14.197  1.6202  0.2443 -1.4747
13368TIP3    H261520   6.421   4.726  14.273  0.6314  0.1072  0.1513
13369TIP3   OH261521   2.256   3.951   2.491  0.1384 -1.0414 -0.2962
13369TIP3    H161522   2.273   3.880   2.552 -0.6232 -3.4444 -2.6668
13369TIP3    H261523   2.343   3.978   2.461  0.5638  0.6537  2.2196
13370TIP3   OH261524   3.611   1.740  13.027  0.0476 -0.0116  0.9802
13370TIP3    H161525   3.516   1.737  13.013  0.4217  0.2250 -2.5349
13370TIP3    H261526   3.632   1.657  13.069 -1.4762 -1.3737 -0.7611
13371TIP3   OH261527   3.293   0.884   4.249  0.1233  0.1916 -0.0707
13371TIP3    H161528   3.293   0.864   4.156 -0.5337 -2.6197  0.4472
13371TIP3    H261529   3.204   0.915   4.267 -0.0474 -0.2170 -0.2060
13372TIP3   OH261530   6.148   2.629   5.114  0.1768 -0.4766 -0.6251
13372TIP3    H161531   6.160   2.577   5.035  1.5207  0.5717 -1.1551
13372TIP3    H261532   6.082   2.695   5.090  1.8588  0.9671 -1.5185
13373TIP3   OH261533   2.082   5.848   3.478  0.3875 -0.0694  0.1450
13373TIP3    H161534   1.989   5.826   3.475 -0.3272  2.6994 -0.9700
13373TIP3    H261535   2.084   5.939   3.508  2.3717  1.3506 -3.7153
13374TIP3   OH261536   2.498   0.745  16.069  0.1147 -0.2553 -0.1220
13374TIP3    H161537   2.471   0.794  15.992 -2.4467 -0.9384  0.2632
13374TIP3    H261538   2.536   0.664  16.034 -0.5422 -0.3294 -0.6740
13375TIP3   OH261539   1.221   6.004  13.224  0.0278 -0.0556  0.0582
13375TIP3    H161540   1.270   6.085  13.235  0.8929 -0.2822 -1.7229
13375TIP3    H261541   1.135   6.022  13.263  0.0494  1.8781 -0.6824
13376TIP3   OH261542   4.245   4.978   6.547  0.5137  0.1280 -0.3838
13376TIP3    H161543   4.248   4.905   6.485 -0.3032 -0.0159 -0.2621
13376TIP3    H261544   4.253   5.056   6.492 -0.9838  0.0363 -0.7825
13377TIP3   OH261545   5.411   0.879  13.863  0.2596  0.0505  0.2215
13377TIP3    H161546   5.414   0.784  13.877 -0.1092  0.1139  0.7512
13377TIP3    H261547   5.387   0.889  13.771 -2.4375 -0.3778  0.8124
13378TIP3   OH261548   6.806   3.053   4.988 -0.0065 -0.9286  0.8415
13378TIP3    H161549   6.747   3.105   4.933  0.0648 -2.0441 -0.3492
13378TIP3    H261550   6.780   3.073   5.078 -1.0733 -0.1194  0.3666
13379TIP3   OH261551   2.894   2.401   0.040 -0.2296  0.2854  0.2699
13379TIP3    H161552   2.896   2.307   0.058 -0.8266  0.5525  1.8990
13379TIP3    H261553   2.953   2.412  -0.035 -1.4489 -1.5785 -1.0563
13380TIP3   OH261554   5.775   5.860   3.109 -0.2306 -0.1227 -0.8069
13380TIP3    H161555   5.850   5.917   3.094  0.1814 -0.8659 -1.7198
13380TIP3    H261556   5.728   5.900   3.182 -1.0161  2.4664 -2.5590
13381TIP3   OH261557   3.529   5.471   0.773 -0.0168  0.2518  0.0149
13381TIP3    H161558   3.493   5.547   0.819  1.8135  0.3342  1.3880
13381TIP3    H261559   3.454   5.412   0.764 -0.9672  1.2654  0.9408
13382TIP3   OH261560   1.602   5.104  13.449 -0.4066  0.4252 -0.5730
13382TIP3    H161561   1.626   5.066  13.364  0.3197  0.6231 -0.4591
13382TIP3    H261562   1.568   5.191  13.428  1.8593  1.3772 -0.4954
13383TIP3   OH261563   0.446   2.783   1.912 -0.4143 -0.0244 -0.4467
13383TIP3    H161564   0.506   2.789   1.838 -0.1130  0.0201 -0.1966
13383TIP3    H261565   0.428   2.874   1.936  0.5620 -0.0492  0.4098
13384TIP3   OH261566   6.052   3.604  12.099 -0.4612  0.4254  0.1502
13384TIP3    H161567   6.130   3.628  12.148  0.5095 -1.4242 -0.3813
13384TIP3    H261568   6.081   3.600  12.007 -1.4360  0.7372 -0.1866
13385TIP3   OH261569   2.568   4.500   0.931  0.0198 -0.4809 -0.0736
13385TIP3    H161570   2.516   4.560   0.877  1.0274  0.8716  0.3946
13385TIP3    H261571   2.659   4.523   0.912  0.4887 -2.5365 -0.5983
13386TIP3   OH261572   1.994   2.590   3.204 -0.1032 -0.1486 -0.6917
13386TIP3    H161573   2.074   2.550   3.173  0.9160  0.9830  0.3401
13386TIP3    H261574   1.982   2.667   3.148 -0.1908 -0.0510 -0.5414
13387TIP3   OH261575   3.732   2.571   3.789 -0.8629  0.1981  0.3321
13387TIP3    H161576   3.741   2.645   3.728  1.7821 -0.7334 -0.5954
13387TIP3    H261577   3.770   2.603   3.871  0.6174 -0.1771 -0.1746
13388TIP3   OH261578   0.748   3.506  11.886  0.0189  0.1587  0.2267
13388TIP3    H161579   0.741   3.595  11.851  0.5624  0.2933  0.4505
13388TIP3    H261580   0.722   3.450  11.813  2.3566  0.3661 -0.8524
13389TIP3   OH261581   5.048   1.286   5.154  0.3200 -0.0426 -0.0616
13389TIP3    H161582   5.092   1.371   5.163  0.4295  0.1720 -2.0706
13389TIP3    H261583   4.959   1.301   5.184  0.4624  0.6633  0.0230
13390TIP3   OH261584   4.086   4.041  11.948 -0.3526  0.0104  0.4873
13390TIP3    H161585   3.998   4.063  11.980 -0.5390  1.5202 -0.9572
13390TIP3    H261586   4.142   4.049  12.026 -1.1875  0.9767  1.0188
13391TIP3   OH261587   6.795   3.866  14.088 -0.7526 -0.6322  0.8765
13391TIP3    H161588   6.744   3.832  14.014  0.7034 -1.3945  0.1662
13391TIP3    H261589   6.807   3.959  14.068  1.5848 -1.2570 -1.1590
13392TIP3   OH261590   4.708   0.469   1.248 -0.0002 -0.1849 -0.4154
13392TIP3    H161591   4.702   0.564   1.256  0.7538 -0.0332 -1.4172
13392TIP3    H261592   4.796   0.449   1.281 -0.9442 -0.8250  1.9210
13393TIP3   OH261593   2.657   5.749   1.092  0.5205 -0.4540  0.1001
13393TIP3    H161594   2.635   5.747   0.999  1.7537 -0.2579 -0.2051
13393TIP3    H261595   2.633   5.837   1.120 -1.3973 -1.0037  0.3953
13394TIP3   OH261596   5.495   0.546  15.748  0.6038  0.5008 -0.1528
13394TIP3    H161597   5.546   0.615  15.792  0.9812  1.4696 -2.0240
13394TIP3    H261598   5.411   0.546  15.794  1.8601 -0.4495  2.3553
13395TIP3   OH261599   5.641   5.476  10.684  0.2262  0.3607  0.7553
13395TIP3    H161600   5.696   5.410  10.725 -0.9967 -0.2672  1.4340
13395TIP3    H261601   5.552   5.443  10.694 -0.2045  0.5479 -1.7508
13396TIP3   OH261602   2.728   6.485  10.645  0.3933 -0.3616  0.2364
13396TIP3    H161603   2.795   6.492  10.713  0.2228  0.4679  0.3373
13396TIP3    H261604   2.660   6.431  10.684 -0.4433  1.4128  1.3760
13397TIP3   OH261605   2.443   3.658  13.572 -0.1881  0.4825  0.2813
13397TIP3    H161606   2.480   3.718  13.637 -0.8624  1.5327 -0.2737
13397TIP3    H261607   2.414   3.715  13.501 -0.5735 -0.5389 -0.4028
13398TIP3   OH261608   3.783   0.117   1.467  0.4093  1.0296  0.0217
13398TIP3    H161609   3.816   0.202   1.498  0.6840  0.7377  0.5329
13398TIP3    H261610   3.739   0.138   1.385 -0.4624  1.8470  0.6681
13399TIP3   OH261611   4.613   6.397  11.820 -0.0041 -0.6067 -0.1606
13399TIP3    H161612   4.621   6.387  11.915  1.8111  1.5062  0.0025
13399TIP3    H261613   4.691   6.446  11.795 -0.9550 -0.2139 -2.6205
13400TIP3   OH261614   1.153   2.470  14.680 -0.2838  0.4095 -0.5923
13400TIP3    H161615   1.097   2.506  14.750 -1.6679 -0.3381 -1.2717
13400TIP3    H261616   1.229   2.527  14.680 -1.3745  1.9571 -0.1163
13401TIP3   OH261617   0.169   2.002  16.083  0.2093 -0.2226 -0.1788
13401TIP3    H161618   0.217   1.934  16.130  0.8504  0.8491  0.7636
13401TIP3    H261619   0.126   2.053  16.151 -0.1812  0.3774 -0.8633
13402TIP3   OH261620   1.106   6.297  13.186 -0.3092  0.3329 -0.0479
13402TIP3    H161621   1.180   6.296  13.126  0.1454 -0.9254  0.4852
13402TIP3    H261622   1.045   6.360  13.148  0.7812  0.9702 -0.8010
13403TIP3   OH261623   1.100   2.597  17.139 -0.2476 -0.2873 -0.2712
13403TIP3    H161624   1.134   2.669  17.087 -0.6534  0.1156  0.0079
13403TIP3    H261625   1.060   2.640  17.215 -0.3442 -0.8162 -0.0190
13404TIP3   OH261626   2.968   1.899   0.877 -0.1785 -0.1069 -0.2298
13404TIP3    H161627   2.955   1.980   0.926  1.9429  1.0181 -1.3838
13404TIP3    H261628   2.888   1.889   0.824 -0.8946  0.6459  0.6951
13405TIP3   OH261629   4.684   0.258  14.778 -0.2398 -0.0515  0.3264
13405TIP3    H161630   4.692   0.283  14.870  0.7134  0.7626  0.0371
13405TIP3    H261631   4.751   0.309  14.733  0.0848 -1.2955 -0.6593
13406TIP3   OH261632   0.192   6.110   5.807 -0.5735  0.3172 -0.0109
13406TIP3    H161633   0.226   6.054   5.877  1.4444 -1.2196 -2.0790
13406TIP3    H261634   0.230   6.197   5.825 -1.1822  0.2868  1.5102
13407TIP3   OH261635   5.454   5.353  11.642  0.2547  0.1849  0.3685
13407TIP3    H161636   5.454   5.299  11.721 -0.6187 -1.0969 -0.4625
13407TIP3    H261637   5.478   5.440  11.672 -0.2524 -0.2298  2.0629
13408TIP3   OH261638   4.607   2.138  11.328  0.2047  0.3842 -0.2017
13408TIP3    H161639   4.636   2.223  11.360  0.0209 -0.2548  1.7668
13408TIP3    H261640   4.512   2.139  11.336  0.2136 -0.0683  0.0259
13409TIP3   OH261641   0.160   2.514  16.773 -0.0216  0.2339 -0.1010
13409TIP3    H161642   0.215   2.522  16.695 -0.5645 -0.2432 -0.5398
13409TIP3    H261643   0.099   2.588  16.766  0.6792  0.8826  0.4929
13410TIP3   OH261644   2.663   2.472  12.515 -0.1236 -0.0696 -0.8979
13410TIP3    H161645   2.612   2.397  12.545 -1.6232  1.6044  0.9730
13410TIP3    H261646   2.752   2.437  12.503 -0.2422 -1.7108  2.0924
13411TIP3   OH261647   0.330   5.903   2.124 -0.1511 -0.1407 -0.3567
13411TIP3    H161648   0.386   5.978   2.104 -1.2392  0.4332 -1.3532
13411TIP3    H261649   0.243   5.929   2.093 -0.5804 -1.7483 -0.5701
13412TIP3   OH261650   6.594   0.377   1.502  0.1980  0.7340  0.3093
13412TIP3    H161651   6.618   0.294   1.460  1.2994  0.2669  1.7557
13412TIP3    H261652   6.541   0.351   1.577 -1.6978  1.5466 -0.6900
13413TIP3   OH261653   1.443   5.853  12.039  0.3004  0.1255  0.2301
13413TIP3    H161654   1.388   5.831  11.963 -1.5337 -0.8681  1.7788
13413TIP3    H261655   1.528   5.812  12.020 -0.3642 -0.7655 -0.9215
13414TIP3   OH261656   4.248   0.834  14.438  0.1651 -0.2419  0.6676
13414TIP3    H161657   4.199   0.764  14.397 -0.1142 -0.9101  2.0854
13414TIP3    H261658   4.204   0.849  14.522  1.6746 -0.0827  1.4774
13415TIP3   OH261659   0.655   6.648  13.122 -0.1316 -0.5363 -0.5989
13415TIP3    H161660   0.615   6.670  13.206  0.3671  0.4333 -0.6086
13415TIP3    H261661   0.620   6.714  13.061  2.3674  1.1393 -0.3697
13416TIP3   OH261662   2.717   0.457   3.549 -0.3837  0.8770  0.1594
13416TIP3    H161663   2.792   0.501   3.510 -0.4403  1.6668  0.9141
13416TIP3    H261664   2.652   0.453   3.478  0.6603 -0.6119 -0.7635
13417TIP3   OH261665   4.820   4.992  14.914 -0.5263  0.2550 -0.2560
13417TIP3    H161666   4.734   4.956  14.933  0.2519 -1.1062  0.8754
13417TIP3    H261667   4.828   5.068  14.972 -0.2468 -0.7565  1.0783
13418TIP3   OH261668   5.377   4.295   4.883 -0.0635  0.4853  0.3509
13418TIP3    H161669   5.352   4.218   4.934  0.2951  1.4634  2.0975
13418TIP3    H261670   5.433   4.262   4.814 -0.7522 -0.9303  0.4371
13419TIP3   OH261671   1.150   5.809   6.190  0.0869  0.1407 -0.1087
13419TIP3    H161672   1.104   5.748   6.133  0.0021 -1.8406  1.9424
13419TIP3    H261673   1.101   5.891   6.181 -1.0112 -0.6109 -1.4730
13420TIP3   OH261674   5.155   0.454  12.649 -0.2113  0.1953 -0.1579
13420TIP3    H161675   5.084   0.457  12.584 -0.8577  0.5511  0.5508
13420TIP3    H261676   5.136   0.378  12.703 -0.0986  0.3474  0.0970
13421TIP3   OH261677   0.137   0.435   4.573 -0.3825 -0.3490 -0.2100
13421TIP3    H161678   0.126   0.344   4.602 -1.2649  0.2463  1.5085
13421TIP3    H261679   0.209   0.432   4.510  1.3261 -1.9114  1.6391
13422TIP3   OH261680   4.231   1.863  12.530  0.3030 -0.3229 -0.4726
13422TIP3    H161681   4.283   1.942  12.519 -0.9025  0.5034 -0.3457
13422TIP3    H261682   4.293   1.791  12.515  1.5881  0.6223  0.1515
13423TIP3   OH261683   2.908   4.218  11.844 -0.4492  0.7602  0.1436
13423TIP3    H161684   2.814   4.203  11.835 -0.2413  0.2382 -1.2971
13423TIP3    H261685   2.933   4.263  11.764  0.7308 -0.1996 -0.0600
13424TIP3   OH261686   6.627   4.499  14.881 -0.2704 -0.2408 -0.2817
13424TIP3    H161687   6.577   4.531  14.957  0.0141 -0.6254  0.0778
13424TIP3    H261688   6.573   4.520  14.806 -1.3018 -1.2532  0.1539
13425TIP3   OH261689   5.453   6.470  12.481  0.1086  0.2336 -0.0167
13425TIP3    H161690   5.415   6.382  12.480  0.5735  0.0043 -1.7518
13425TIP3    H261691   5.477   6.486  12.390  0.7168  1.8738  0.3992
13426TIP3   OH261692   6.632   0.916   6.510  0.4350  0.8032 -0.0730
13426TIP3    H161693   6.610   1.009   6.498  1.1721  0.6973 -3.1108
13426TIP3    H261694   6.627   0.879   6.422  0.1200 -2.0936  1.0640
13427TIP3   OH261695   4.999   2.380   0.982 -0.1408 -0.0319 -0.0708
13427TIP3    H161696   5.002   2.388   0.887  0.1251 -0.3634 -0.0929
13427TIP3    H261697   5.074   2.324   1.004 -0.6563 -0.6107  0.2610
13428TIP3   OH261698   1.638   1.090  13.194 -0.1039 -0.1024  0.5124
13428TIP3    H161699   1.675   1.158  13.138  0.9799  0.3554  1.7354
13428TIP3    H261700   1.566   1.053  13.142  0.1220  1.0706 -0.7005
13429TIP3   OH261701   3.524   1.227   0.748 -0.1476 -0.5786 -0.3397
13429TIP3    H161702   3.435   1.238   0.781 -1.0232 -3.7247 -1.3011
13429TIP3    H261703   3.576   1.288   0.799 -2.9179  2.0001 -0.3045
13430TIP3   OH261704   4.984   3.442  15.634 -0.2002 -0.3545  0.0023
13430TIP3    H161705   4.905   3.468  15.681  0.0216 -0.4077  0.4103
13430TIP3    H261706   5.056   3.464  15.694 -0.0329 -2.6417  0.7055
13431TIP3   OH261707   1.749   3.656   6.136 -0.1951  0.3797 -0.1061
13431TIP3    H161708   1.658   3.661   6.108  0.1949  0.6804 -1.3613
13431TIP3    H261709   1.793   3.727   6.089  0.9597 -0.6315 -0.6073
13432TIP3   OH261710   4.382   1.624  16.614 -0.0620 -0.2156  0.2728
13432TIP3    H161711   4.355   1.556  16.553 -1.1452 -0.2683  0.7852
13432TIP3    H261712   4.311   1.628  16.678  0.0739  1.2634  0.3560
13433TIP3   OH261713   4.993   2.444   3.616 -0.0705 -0.3271  0.3114
13433TIP3    H161714   5.033   2.381   3.677 -0.7186 -0.1685  0.9097
13433TIP3    H261715   4.925   2.487   3.668 -0.5909 -0.1461 -0.5127
13434TIP3   OH261716   5.697   0.741  10.950  0.0813 -0.3615  0.2434
13434TIP3    H161717   5.634   0.698  11.008  2.5911 -2.1749  1.8365
13434TIP3    H261718   5.733   0.671  10.896  0.8623  0.5903 -0.5216
13435TIP3   OH261719   2.796   1.994  15.999  0.2877  0.3708  0.5058
13435TIP3    H161720   2.835   2.005  16.086 -1.5049  1.4753  1.2106
13435TIP3    H261721   2.702   2.001  16.013 -0.0738  0.1785 -1.4867
13436TIP3   OH261722   0.969   2.560   1.520  0.1563  0.0782  0.2194
13436TIP3    H161723   1.047   2.614   1.532 -0.7068  1.0588  1.6436
13436TIP3    H261724   0.948   2.570   1.427  2.3152 -1.1049 -0.4777
13437TIP3   OH261725   1.909   4.077  14.972 -0.8188 -0.0445 -0.1424
13437TIP3    H161726   1.844   4.146  14.961  1.4169  1.8810 -3.0683
13437TIP3    H261727   1.947   4.093  15.059  0.0424  2.9910 -0.9352
13438TIP3   OH261728   0.794   2.660   4.134 -0.9169  0.2664  0.5560
13438TIP3    H161729   0.719   2.680   4.079 -2.2293 -0.2180  2.0728
13438TIP3    H261730   0.804   2.736   4.191  0.2095  0.6220 -0.0853
13439TIP3   OH261731   2.912   1.984   6.622 -0.2779 -0.6857 -0.4980
13439TIP3    H161732   2.918   1.907   6.678  0.1069  1.0436  1.9940
13439TIP3    H261733   3.003   2.013   6.611 -0.5474  0.6167  0.4448
13440TIP3   OH261734   6.579   5.532  14.301 -0.3590  0.2169 -0.3188
13440TIP3    H161735   6.507   5.583  14.338 -0.7645  0.2982 -1.2011
13440TIP3    H261736   6.658   5.575  14.333 -0.6921  0.4087  0.2709
13441TIP3   OH261737   0.320   6.417  15.380  0.2932  0.3047 -0.1295
13441TIP3    H161738   0.253   6.380  15.438  0.5771 -1.4114 -0.8251
13441TIP3    H261739   0.386   6.348  15.374 -0.1194  0.0414 -3.1099
13442TIP3   OH261740   4.966   4.384   3.922  0.1456  0.7219 -0.4181
13442TIP3    H161741   5.021   4.463   3.925 -1.0665  1.5942 -0.1519
13442TIP3    H261742   4.910   4.391   3.999  0.5614 -0.8373  0.0544
13443TIP3   OH261743   1.665   2.772  11.950  0.3447  0.0695 -0.0456
13443TIP3    H161744   1.618   2.723  11.882 -0.1876  0.3585  0.1117
13443TIP3    H261745   1.666   2.862  11.918  1.3582 -0.0396 -0.3533
13444TIP3   OH261746   4.226   3.527   4.155  0.1610 -0.1528 -0.2567
13444TIP3    H161747   4.273   3.553   4.076  1.7037 -2.7196 -0.2892
13444TIP3    H261748   4.168   3.456   4.127 -0.6802  0.1749  0.5971
13445TIP3   OH261749   1.272   2.120   1.220 -0.2759 -0.2437  0.2604
13445TIP3    H161750   1.246   2.190   1.280 -4.0578 -0.6770 -0.6017
13445TIP3    H261751   1.269   2.161   1.133  0.7367 -0.7044 -0.0058
13446TIP3   OH261752   0.935   4.943  13.649  0.3075  0.3272 -0.2116
13446TIP3    H161753   0.979   4.858  13.652 -0.2587 -0.0130 -1.0521
13446TIP3    H261754   0.947   4.980  13.737  1.7071 -0.0227 -0.2301
13447TIP3   OH261755   0.644   0.619  16.355  0.5159  0.2962  0.0257
13447TIP3    H161756   0.697   0.631  16.434 -0.1579 -1.2589  0.7705
13447TIP3    H261757   0.699   0.651  16.284  1.6154  0.6556  1.0003
13448TIP3   OH261758   2.148   2.402  14.163  0.2566  0.1047  0.1350
13448TIP3    H161759   2.186   2.469  14.220 -0.2275  0.2808  0.2504
13448TIP3    H261760   2.171   2.319  14.205 -0.2320  0.2367  0.6756
13449TIP3   OH261761   1.843   4.161  16.274 -0.3637  0.0024 -0.0845
13449TIP3    H161762   1.830   4.255  16.284 -0.2361  0.0508 -0.3482
13449TIP3    H261763   1.910   4.154  16.205  0.2048 -0.2607  0.4854
13450TIP3   OH261764   1.429   6.298  15.415  0.2082  0.2307 -0.0402
13450TIP3    H161765   1.486   6.262  15.483  0.5473  0.7288 -0.0541
13450TIP3    H261766   1.481   6.291  15.335 -0.1871 -0.3491 -0.2528
13451TIP3   OH261767   0.447   0.065   4.951 -0.2593  0.1788  0.3337
13451TIP3    H161768   0.415  -0.025   4.950 -0.6109  0.2997 -0.3845
13451TIP3    H261769   0.462   0.085   5.043  0.2766 -0.7684  0.4653
13452TIP3   OH261770   5.750   2.885  14.749  0.3489  0.4825 -0.4706
13452TIP3    H161771   5.706   2.962  14.785  0.0895  1.4386 -2.6909
13452TIP3    H261772   5.681   2.836  14.704  1.1313  0.8764 -2.1608
13453TIP3   OH261773   4.515   3.031  10.992 -0.5946 -0.2910  0.4468
13453TIP3    H161774   4.503   3.091  10.918 -2.1826 -1.0137  0.0723
13453TIP3    H261775   4.575   2.964  10.959  0.9888  0.8899  0.7865
13454TIP3   OH261776   0.532   2.530  13.996 -0.1532 -0.0190 -0.3482
13454TIP3    H161777   0.498   2.464  14.057 -0.5209 -0.0934 -0.6336
13454TIP3    H261778   0.467   2.601  13.998 -0.2518 -0.0958 -0.7821
13455TIP3   OH261779   0.224   5.948  11.630  0.0145 -0.4380  0.2745
13455TIP3    H161780   0.210   6.011  11.559 -0.7350  1.3394  1.9061
13455TIP3    H261781   0.151   5.887  11.623 -1.2070  0.9349  0.7134
13456TIP3   OH261782   4.014   3.564   4.332 -0.8381  0.0315 -0.1566
13456TIP3    H161783   3.985   3.490   4.386  2.0313 -0.9565  0.2189
13456TIP3    H261784   4.093   3.531   4.287  0.4713  2.8079 -0.1112
13457TIP3   OH261785   1.023   5.743   4.676  0.1946  0.8930  0.1734
13457TIP3    H161786   1.060   5.830   4.691 -1.9149  2.3538 -2.1454
13457TIP3    H261787   1.038   5.727   4.583 -0.2397 -0.8594  0.3726
13458TIP3   OH261788   1.658   3.344   4.199 -0.3446 -0.0429  0.7504
13458TIP3    H161789   1.608   3.278   4.152  0.6760  0.6758 -1.4611
13458TIP3    H261790   1.660   3.312   4.290 -1.6018 -1.9583  0.1693
13459TIP3   OH261791   4.453   4.770  15.007 -0.3841  0.0292  0.5680
13459TIP3    H161792   4.514   4.772  14.933 -0.5655  0.6770  0.4220
13459TIP3    H261793   4.503   4.805  15.081 -0.2819 -0.3684  0.6851
13460TIP3   OH261794   6.611   2.005  13.540 -0.2130  0.1979 -0.7383
13460TIP3    H161795   6.577   2.032  13.625  0.7870  0.3364 -0.3764
13460TIP3    H261796   6.632   1.912  13.551  3.2400  0.9594  0.3240
13461TIP3   OH261797   0.019   2.494  12.253 -0.4303 -0.0279  0.1523
13461TIP3    H161798   0.037   2.566  12.314 -0.2997 -0.3171  0.4569
13461TIP3    H261799  -0.019   2.425  12.307  0.6576 -0.6969  0.1154
13462TIP3   OH261800   5.711   2.073   1.060  0.1108  0.0470 -0.0567
13462TIP3    H161801   5.683   2.011   0.993 -2.3642 -1.3607  2.1065
13462TIP3    H261802   5.771   2.023   1.116 -1.1340 -0.1642  1.1360
13463TIP3   OH261803   4.691   0.251   2.961  0.0395 -0.5716  0.2921
13463TIP3    H161804   4.690   0.156   2.950  2.3072 -0.6166 -0.0530
13463TIP3    H261805   4.674   0.264   3.055 -1.4152 -1.2065  0.1514
13464TIP3   OH261806   0.083   3.177   3.998 -0.3608 -0.1473 -0.0295
13464TIP3    H161807  -0.003   3.153   3.963  0.4489 -2.9457 -0.3471
13464TIP3    H261808   0.143   3.116   3.957  1.5618  0.6668  1.4327
13465TIP3   OH261809   1.588   6.320   1.008 -0.7996 -0.0831  0.3928
13465TIP3    H161810   1.508   6.371   1.022 -1.1320 -0.2461 -0.7573
13465TIP3    H261811   1.614   6.341   0.918  0.0500 -0.5908  0.5065
13466TIP3   OH261812   3.776   1.974   5.196 -0.0684  0.2687 -0.0617
13466TIP3    H161813   3.819   2.016   5.121  0.8011  1.1171  0.8857
13466TIP3    H261814   3.780   2.039   5.266 -1.9913 -0.0232  0.3878
13467TIP3   OH261815   0.088   6.600  15.585 -0.1482  0.5950  0.5132
13467TIP3    H161816   0.016   6.621  15.645 -1.3323  3.5428 -1.6370
13467TIP3    H261817   0.044   6.566  15.507  0.9909  0.3350 -0.0286
13468TIP3   OH261818   3.073   2.298  10.915  0.3454 -0.4446  0.5271
13468TIP3    H161819   3.004   2.280  10.850 -0.8446  1.0422  1.3282
13468TIP3    H261820   3.145   2.239  10.890 -0.4703 -0.6655 -1.4998
13469TIP3   OH261821   2.140   2.809   3.910 -0.0968 -0.0041  0.6068
13469TIP3    H161822   2.148   2.759   3.991  1.2430 -1.4505 -0.3497
13469TIP3    H261823   2.146   2.743   3.841  3.3441  1.5027 -0.7846
13470TIP3   OH261824   0.717   2.723   5.747 -0.6989  0.0585 -0.1894
13470TIP3    H161825   0.729   2.629   5.735 -2.0543 -0.2852  0.9466
13470TIP3    H261826   0.805   2.760   5.737 -0.2071 -1.2694 -0.9958
13471TIP3   OH261827   4.650   5.695  16.718  0.3446 -0.2816  0.5189
13471TIP3    H161828   4.724   5.754  16.726  0.1648  0.1334 -0.6332
13471TIP3    H261829   4.688   5.610  16.696  0.4896 -0.0804 -0.0223
13472TIP3   OH261830   5.508   3.515  15.042 -0.0013  0.3584  0.0562
13472TIP3    H161831   5.557   3.598  15.043 -0.0716  0.4156  1.5778
13472TIP3    H261832   5.424   3.537  15.083 -0.5937 -0.1529 -0.8650
13473TIP3   OH261833   5.665   6.094  13.803 -0.1237  0.0461  0.3169
13473TIP3    H161834   5.737   6.037  13.775 -0.7812 -0.3056 -0.6814
13473TIP3    H261835   5.692   6.125  13.890  0.4626 -1.4190  0.6900
13474TIP3   OH261836   2.986   0.466  11.100 -0.2738  0.1656  0.2688
13474TIP3    H161837   2.934   0.541  11.071  1.5690  1.3390 -0.1903
13474TIP3    H261838   3.066   0.505  11.135  0.4521 -1.5757  0.6346
13475TIP3   OH261839   4.940   6.420  16.063 -0.4360 -0.1780  0.2104
13475TIP3    H161840   4.919   6.377  15.980 -1.3284 -0.7819  0.7316
13475TIP3    H261841   4.940   6.514  16.043 -0.4696 -0.3289 -0.5057
13476TIP3   OH261842   6.356   4.249  11.951  0.3207  0.1048 -0.1533
13476TIP3    H161843   6.446   4.236  11.979  0.1790 -0.9424 -0.1340
13476TIP3    H261844   6.316   4.162  11.957 -0.9895  0.7359  0.8822
13477TIP3   OH261845   5.913   4.904   1.855 -0.0652  0.2464 -0.3220
13477TIP3    H161846   5.933   4.893   1.762  0.4557 -1.3735 -0.0431
13477TIP3    H261847   5.976   4.970   1.884 -0.4774  1.0459 -1.1861
13478TIP3   OH261848   4.677   0.589  13.818  0.3009  0.3967 -0.3413
13478TIP3    H161849   4.747   0.602  13.754 -0.1603 -0.3756 -1.0158
13478TIP3    H261850   4.619   0.525  13.777  0.5770 -0.9758  1.3133
13479TIP3   OH261851   2.781   2.152   2.404 -0.2328 -0.1078 -0.1376
13479TIP3    H161852   2.781   2.247   2.411 -0.9444 -0.1510  0.5946
13479TIP3    H261853   2.699   2.125   2.445 -1.1327 -0.9090 -2.2833
13480TIP3   OH261854   5.158   4.562  13.801  0.1527 -0.1823  0.0985
13480TIP3    H161855   5.231   4.521  13.847  0.4072  0.0923 -0.0560
13480TIP3    H261856   5.140   4.642  13.851  0.2530 -0.0218 -0.1182
13481TIP3   OH261857   0.414   4.547   5.394 -0.3205  1.0321  0.1060
13481TIP3    H161858   0.405   4.516   5.484  1.8087 -2.3641 -0.6943
13481TIP3    H261859   0.490   4.605   5.396  0.8596 -0.4795  0.2327
13482TIP3   OH261860   6.794   2.525  14.168  0.3545 -0.5820 -0.1193
13482TIP3    H161861   6.872   2.495  14.122  0.0407 -0.9672 -0.3975
13482TIP3    H261862   6.745   2.575  14.103  0.5094 -0.0810  0.1394
13483TIP3   OH261863   0.678   1.681   3.517  0.1815 -0.1283  0.1257
13483TIP3    H161864   0.687   1.750   3.451  0.6668  1.8868  2.1837
13483TIP3    H261865   0.677   1.599   3.466  1.8909  1.2165 -2.2568
13484TIP3   OH261866   0.451   6.179   0.476  0.6327 -0.8781 -0.1375
13484TIP3    H161867   0.460   6.101   0.531  0.4801  1.1388  3.0314
13484TIP3    H261868   0.536   6.221   0.480  0.8180 -0.9896 -2.1124
13485TIP3   OH261869   3.865   3.887  11.419  0.3116  0.3822  0.0205
13485TIP3    H161870   3.945   3.843  11.389  1.4773  3.1034 -1.2437
13485TIP3    H261871   3.877   3.897  11.513  1.0445 -0.0113 -0.0207
13486TIP3   OH261872   5.670   1.802  15.018  0.2526 -0.5181  0.5035
13486TIP3    H161873   5.705   1.848  15.095 -0.6376  1.0912 -0.0286
13486TIP3    H261874   5.576   1.798  15.033  0.1699 -0.9683 -0.1113
13487TIP3   OH261875   6.798   2.774  15.414  0.7391 -0.0229  0.0556
13487TIP3    H161876   6.724   2.757  15.356  1.8756 -0.5289 -1.3002
13487TIP3    H261877   6.810   2.869  15.410  0.6741 -0.0321 -0.3569
13488TIP3   OH261878   6.746   2.397   4.657  0.1411 -0.0492 -0.0797
13488TIP3    H161879   6.730   2.470   4.597  0.4461 -0.0999 -0.2273
13488TIP3    H261880   6.788   2.437   4.733  0.7219 -0.1271 -0.3506
13489TIP3   OH261881   0.298   3.804   3.302 -0.2772  0.9238  0.0538
13489TIP3    H161882   0.372   3.744   3.301  0.5167  1.8802 -0.1630
13489TIP3    H261883   0.300   3.847   3.216 -1.2847  0.7395 -0.0843
13490TIP3   OH261884   0.109   1.604  12.148  0.1393  0.2202 -0.2778
13490TIP3    H161885   0.026   1.561  12.170 -0.6914  1.0420 -1.5903
13490TIP3    H261886   0.177   1.547  12.183 -0.9839 -0.2993  1.1576
13491TIP3   OH261887   2.443   2.284   3.117 -0.0627  0.2172  0.3717
13491TIP3    H161888   2.477   2.282   3.027  0.5566  1.1466  0.5677
13491TIP3    H261889   2.520   2.302   3.170 -0.4829 -0.0288  1.0706
13492TIP3   OH261890   4.403   1.420  15.021 -0.1842 -0.6970  0.3893
13492TIP3    H161891   4.483   1.380  14.986 -0.2124  0.3856 -0.9997
13492TIP3    H261892   4.394   1.501  14.972 -1.9971 -0.6630  0.7210
13493TIP3   OH261893   4.898   2.739  11.223 -0.1466  0.2371  0.4399
13493TIP3    H161894   4.843   2.726  11.301 -1.8663 -0.8059 -0.8640
13493TIP3    H261895   4.860   2.681  11.157  0.7699  1.6460 -1.4226
13494TIP3   OH261896   0.459   2.208  16.273 -0.3342 -0.2540  0.2238
13494TIP3    H161897   0.457   2.235  16.181 -0.1890  0.1856  0.3473
13494TIP3    H261898   0.540   2.247  16.307 -0.1869 -0.7450  0.4390
13495TIP3   OH261899   2.800   0.693  11.083  0.6452  1.1012 -0.2430
13495TIP3    H161900   2.731   0.756  11.101 -0.4825  0.1085 -0.9310
13495TIP3    H261901   2.755   0.618  11.044  2.1796  0.6619 -1.2900
13496TIP3   OH261902   6.224   1.784  13.751  0.4905 -0.3267 -0.7227
13496TIP3    H161903   6.144   1.751  13.792 -0.2801 -0.3856 -2.1906
13496TIP3    H261904   6.292   1.722  13.777  0.4058  0.5198  1.7282
13497TIP3   OH261905   2.269   3.259  12.826  0.1307 -0.0804 -0.5073
13497TIP3    H161906   2.232   3.177  12.793  0.9421 -0.5256 -0.3478
13497TIP3    H261907   2.213   3.327  12.789 -1.5410 -0.7511  0.6146
13498TIP3   OH261908   5.541   3.845  14.449 -0.6431  0.4433  0.7850
13498TIP3    H161909   5.559   3.784  14.520  1.3583  0.7868  0.6385
13498TIP3    H261910   5.543   3.791  14.370  0.1895  0.5365  0.7372
13499TIP3   OH261911   0.744   6.488  10.460  0.1688  0.6587  0.7578
13499TIP3    H161912   0.650   6.489  10.476  0.1396  1.1110  0.5711
13499TIP3    H261913   0.783   6.492  10.548  0.0120  1.2206  0.8048
13500TIP3   OH261914   2.605   3.158   3.579 -0.3342  0.0839  0.0988
13500TIP3    H161915   2.669   3.214   3.535 -2.1708  1.6401 -0.7763
13500TIP3    H261916   2.657   3.099   3.633  1.7877  2.1294  0.4682
13501TIP3   OH261917   0.428   5.253  11.325  0.0694  0.0439  0.1893
13501TIP3    H161918   0.402   5.291  11.241  0.8495  0.4562  0.1255
13501TIP3    H261919   0.472   5.171  11.301 -1.1996 -0.6905  0.3017
13502TIP3   OH261920   2.674   5.934   2.259 -0.1966  0.2434 -0.5675
13502TIP3    H161921   2.731   5.991   2.310  1.8845 -1.2803 -1.0551
13502TIP3    H261922   2.610   5.900   2.322  1.9488 -1.1425  0.9934
13503TIP3   OH261923   4.505   3.765   4.061 -0.4990 -0.0863  0.0984
13503TIP3    H161924   4.475   3.691   4.008 -0.1656  0.6401 -1.1205
13503TIP3    H261925   4.437   3.832   4.050  0.4032  0.7054 -0.8092
13504TIP3   OH261926   0.921   1.236   3.662 -0.8536 -0.4181  0.2153
13504TIP3    H161927   0.881   1.321   3.684  0.3293  0.6314 -1.4096
13504TIP3    H261928   0.847   1.180   3.641 -1.6152  0.8315 -0.6233
13505TIP3   OH261929   1.634   1.580   2.940 -0.2846  0.6530 -0.1937
13505TIP3    H161930   1.609   1.489   2.921  3.1598 -0.0788 -2.1366
13505TIP3    H261931   1.635   1.584   3.036  0.1311 -1.6360 -0.0347
13506TIP3   OH261932   3.645   5.381   3.735 -0.0627 -0.1482 -0.3429
13506TIP3    H161933   3.631   5.289   3.757  0.6738 -0.5025 -1.3214
13506TIP3    H261934   3.614   5.390   3.645  0.4380  0.4114 -0.4662
13507TIP3   OH261935   4.753   6.075   5.672  0.4028  0.5665 -0.5552
13507TIP3    H161936   4.786   6.023   5.599 -0.8733 -0.2350 -0.5887
13507TIP3    H261937   4.658   6.074   5.662  0.3125  3.1618 -0.6990
13508TIP3   OH261938   3.073   1.491  12.295  0.3413  0.1468  0.3686
13508TIP3    H161939   3.157   1.479  12.251  0.5436 -1.3705  1.1005
13508TIP3    H261940   3.093   1.480  12.388 -0.3645  1.6168  0.7138
13509TIP3   OH261941   4.052   5.496   3.410  0.1069  0.4047 -0.0736
13509TIP3    H161942   4.039   5.587   3.436 -1.4567  0.2774 -0.3157
13509TIP3    H261943   3.994   5.484   3.335  0.6337 -0.6782 -0.3310
13510TIP3   OH261944   6.388   1.002  16.688  0.4357 -0.2506  0.2441
13510TIP3    H161945   6.391   1.079  16.745 -0.7186  0.7301 -0.9480
13510TIP3    H261946   6.349   0.934  16.743  2.6863 -0.4513  1.7409
13511TIP3   OH261947   1.915   2.485  15.758  0.7057  0.1969  0.4646
13511TIP3    H161948   1.863   2.557  15.722 -0.6150 -0.7521  0.3852
13511TIP3    H261949   2.003   2.498  15.722  0.1201  0.9020 -0.7806
13512TIP3   OH261950   2.089   5.439   3.503 -0.4089 -0.3539 -0.1926
13512TIP3    H161951   2.063   5.394   3.584 -1.8318 -0.4990 -0.6937
13512TIP3    H261952   2.146   5.509   3.532  0.1523 -1.1947  0.8111
13513TIP3   OH261953   5.633   4.916  13.833 -0.0156  0.4930 -0.7026
13513TIP3    H161954   5.672   4.999  13.808  2.8249  0.2998  2.3634
13513TIP3    H261955   5.587   4.935  13.915 -0.7708 -0.6286 -0.8490
13514TIP3   OH261956   4.736   4.335  11.470  0.5537 -0.4843 -0.8411
13514TIP3    H161957   4.758   4.416  11.425  1.0809  0.1824  0.5533
13514TIP3    H261958   4.678   4.363  11.542 -0.2980 -1.5065 -1.1072
13515TIP3   OH261959   0.287   0.443   1.221  0.2131  0.2089 -0.0060
13515TIP3    H161960   0.351   0.461   1.152 -2.0421  2.0950 -1.7712
13515TIP3    H261961   0.211   0.409   1.175 -1.0302  0.6227  1.6467
13516TIP3   OH261962   6.214   4.782   2.747  0.5156 -0.0556 -0.3838
13516TIP3    H161963   6.199   4.713   2.812  0.0595  0.4827  0.0909
13516TIP3    H261964   6.128   4.796   2.707 -0.4430  3.0081  2.3196
13517TIP3   OH261965   6.172   1.482  16.715  0.0463 -0.1755 -0.4574
13517TIP3    H161966   6.255   1.438  16.696 -0.3326  0.1635 -3.3018
13517TIP3    H261967   6.118   1.415  16.757  1.0900 -0.9748 -0.3585
13518TIP3   OH261968   5.437   3.841  10.592  0.2376 -0.1936  0.3322
13518TIP3    H161969   5.508   3.899  10.619 -0.5192  1.4219 -0.9961
13518TIP3    H261970   5.364   3.862  10.651  0.2933 -0.6165  0.5628
13519TIP3   OH261971   1.037   2.443  16.411 -0.3200  0.0066  0.1157
13519TIP3    H161972   1.011   2.487  16.331  1.5635  0.3509 -0.3438
13519TIP3    H261973   1.103   2.380  16.384  1.8816  1.5282  1.5984
13520TIP3   OH261974   2.128   1.674   5.059  0.2636  0.2862 -0.5665
13520TIP3    H161975   2.081   1.757   5.050 -0.7483 -0.4066 -2.1395
13520TIP3    H261976   2.172   1.680   5.143 -0.4628  2.0800 -0.2761
13521TIP3   OH261977   1.645   5.118   2.351  0.1063 -0.6915 -0.5728
13521TIP3    H161978   1.694   5.138   2.430 -0.6437  1.7962 -0.6397
13521TIP3    H261979   1.666   5.026   2.332  0.0139 -1.5096  2.6721
13522TIP3   OH261980   5.084   2.118  14.732 -0.1403  0.8382  0.1116
13522TIP3    H161981   5.098   2.183  14.801  2.4803 -0.3319  0.7835
13522TIP3    H261982   4.990   2.101  14.734 -0.0695 -0.0238  4.2356
13523TIP3   OH261983   2.505   6.065   4.508 -0.1652  0.2555  0.1052
13523TIP3    H161984   2.496   6.008   4.432  1.4783  0.0154  0.0606
13523TIP3    H261985   2.528   6.006   4.580 -0.3960  0.6369  0.4987
13524TIP3   OH261986   5.284   2.739  15.851  0.0132  0.6847 -0.1347
13524TIP3    H161987   5.347   2.678  15.812 -1.9235 -0.8808 -0.9832
13524TIP3    H261988   5.333   2.821  15.859  1.9172 -0.2326 -1.4701
13525TIP3   OH261989   3.825   3.256  11.504  0.3228  0.3651 -0.2602
13525TIP3    H161990   3.742   3.246  11.458 -0.1459 -0.1361  0.6771
13525TIP3    H261991   3.801   3.272  11.595  1.2515  0.6906 -0.0581
13526TIP3   OH261992   4.817   0.693   0.858  0.0430 -0.2770 -0.0307
13526TIP3    H161993   4.868   0.718   0.781 -0.0534 -0.1699 -0.0589
13526TIP3    H261994   4.728   0.719   0.838 -0.1680 -1.1742 -0.3074
13527TIP3   OH261995   0.164   0.904   0.484  0.3364 -0.2259  0.0504
13527TIP3    H161996   0.082   0.951   0.475 -0.0500 -0.7296  0.8235
13527TIP3    H261997   0.142   0.813   0.465  1.7277  0.1918 -4.9264
13528TIP3   OH261998   2.624   3.731  12.147  0.2918  0.0446  0.6929
13528TIP3    H161999   2.557   3.726  12.215 -1.9973 -2.7944 -1.5254
13528TIP3    H262000   2.585   3.787  12.079 -0.9437 -3.1756 -1.4851
13529TIP3   OH262001   2.333   2.032   3.022 -0.1938 -0.3381  1.1302
13529TIP3    H162002   2.318   1.983   3.104  1.0064 -0.6327  1.1986
13529TIP3    H262003   2.359   2.119   3.051  0.0835 -0.3986  1.0718
13530TIP3   OH262004   2.909   5.337  15.243  0.2895  0.1398 -0.0716
13530TIP3    H162005   2.960   5.282  15.183  1.0045 -0.2083  0.8281
13530TIP3    H262006   2.847   5.383  15.187  1.6959  0.7023 -1.2245
13531TIP3   OH262007   3.997   4.916  14.681  0.5181 -0.0244 -0.2682
13531TIP3    H162008   3.968   4.925  14.590 -0.3577  0.7221  0.0767
13531TIP3    H262009   4.050   4.836  14.681  0.4698 -0.0750 -1.4163
13532TIP3   OH262010   1.617   5.956  11.580 -0.1927  0.0239  0.0129
13532TIP3    H162011   1.586   6.020  11.644  0.3102  1.3509 -1.0241
13532TIP3    H262012   1.551   5.956  11.512  0.3938  0.3482 -0.5678
13533TIP3   OH262013   1.868   5.439  10.984  0.1829  0.1640  0.1111
13533TIP3    H162014   1.802   5.480  11.039  0.5622 -0.7110  1.2457
13533TIP3    H262015   1.881   5.352  11.022  1.3441 -0.0080 -0.6230
13534TIP3   OH262016   2.824   6.727  13.928  0.0162  0.7169  0.4215
13534TIP3    H162017   2.910   6.749  13.893  1.0269  0.4235  2.5090
13534TIP3    H262018   2.802   6.800  13.986 -1.1033  0.7327  0.0010
13535TIP3   OH262019   5.701   2.989  15.211  0.3164 -0.4840 -0.2885
13535TIP3    H162020   5.634   3.057  15.215 -0.2915 -0.7967 -3.0569
13535TIP3    H262021   5.653   2.907  15.206  0.9789 -0.9049 -0.0069
13536TIP3   OH262022   6.494   2.391   0.963  0.6676 -0.2770 -0.0987
13536TIP3    H162023   6.566   2.415   0.904  1.9561 -0.2245  1.3985
13536TIP3    H262024   6.449   2.474   0.980 -0.2315 -0.4278 -1.6091
13537TIP3   OH262025   3.327   4.664  16.937 -0.0684 -0.2431  0.0826
13537TIP3    H162026   3.273   4.636  17.011  0.7249  0.9314  1.1428
13537TIP3    H262027   3.344   4.757  16.953 -0.6862  0.3031 -2.1104
13538TIP3   OH262028   1.013   1.911   4.430  0.0683  0.4953  0.1263
13538TIP3    H162029   1.086   1.897   4.490  0.7685  1.9707 -0.3158
13538TIP3    H262030   0.997   1.826   4.389  1.3034  0.0766  0.5012
13539TIP3   OH262031   0.102   5.936  10.445  0.2856 -0.4162 -0.0091
13539TIP3    H162032   0.103   5.843  10.423 -2.6586 -0.7919  0.9506
13539TIP3    H262033   0.014   5.965  10.419  0.4346  1.6194  1.5202
13540TIP3   OH262034   5.121   3.719   4.731 -0.1490 -0.0846  0.1580
13540TIP3    H162035   5.037   3.702   4.773  0.2286  1.8531  1.8863
13540TIP3    H262036   5.128   3.654   4.662 -1.7829 -2.1325  1.8086
13541TIP3   OH262037   0.996   2.874   5.167  0.3271 -0.2201 -0.5796
13541TIP3    H162038   0.934   2.907   5.101  1.2854 -2.5579 -2.7931
13541TIP3    H262039   0.942   2.823   5.227 -0.3612  0.7591 -0.3330
13542TIP3   OH262040   2.785   6.611   2.285 -0.4574  0.3474 -0.0412
13542TIP3    H162041   2.843   6.537   2.303  1.2901  1.9809  1.4767
13542TIP3    H262042   2.732   6.619   2.364  0.2020  1.4185  0.3062
13543TIP3   OH262043   5.992   5.195  13.227 -0.0656 -0.2636 -0.2024
13543TIP3    H162044   6.076   5.163  13.260  0.1213 -0.7579 -1.1175
13543TIP3    H262045   6.014   5.268  13.169 -0.4916  1.5715  1.8346
13544TIP3   OH262046   3.236   4.912   0.440  0.2141  0.3028 -0.3603
13544TIP3    H162047   3.164   4.887   0.498  1.3370  0.5055  1.1690
13544TIP3    H262048   3.314   4.873   0.479  1.1528  1.2955 -1.1736
13545TIP3   OH262049   6.138   3.125  13.259  0.2882 -0.3332 -0.4607
13545TIP3    H162050   6.070   3.109  13.324  0.6529  0.5319  0.1387
13545TIP3    H262051   6.159   3.218  13.267  3.5504 -1.0603  1.3603
13546TIP3   OH262052   5.839   2.553  11.633  0.3233 -0.0897 -0.4560
13546TIP3    H162053   5.903   2.586  11.697 -0.3102 -1.2434  0.8207
13546TIP3    H262054   5.798   2.633  11.598 -0.0656  0.5773  1.3862
13547TIP3   OH262055   3.851   4.092   4.203 -0.0417 -0.7300  0.3636
13547TIP3    H162056   3.804   4.112   4.123  0.0812 -0.5592  0.3319
13547TIP3    H262057   3.794   4.123   4.273 -0.1871 -0.9583  0.3454
13548TIP3   OH262058   3.435   6.414  13.158 -0.5643 -0.7806 -0.1076
13548TIP3    H162059   3.483   6.390  13.079  0.4891 -0.7046  0.4861
13548TIP3    H262060   3.481   6.368  13.229  0.9117  2.0653  0.9512
13549TIP3   OH262061   1.129   3.726   2.622  0.1753 -0.0007  0.0964
13549TIP3    H162062   1.057   3.771   2.666 -0.8780 -0.1806 -1.3779
13549TIP3    H262063   1.150   3.780   2.547  0.4634 -0.7866 -0.4045
13550TIP3   OH262064   1.604   6.685  14.560  0.1962  0.9168  0.7038
13550TIP3    H162065   1.648   6.659  14.479  0.2923  0.8919  0.7640
13550TIP3    H262066   1.653   6.761  14.590  0.6490  0.4460  1.1610
13551TIP3   OH262067   0.401   5.697  12.782  0.1302 -0.5872  0.2407
13551TIP3    H162068   0.415   5.664  12.870 -1.0634  0.9176  1.0394
13551TIP3    H262069   0.356   5.781  12.794  1.3378  0.4309 -1.7397
13552TIP3   OH262070   2.204   3.183  13.789  0.1723 -0.2362  0.3862
13552TIP3    H162071   2.126   3.139  13.756  0.6693 -0.1128 -1.0067
13552TIP3    H262072   2.248   3.216  13.711  1.1911  0.4248  1.2123
13553TIP3   OH262073   2.484   3.092  13.851  0.4291 -0.0082  0.3053
13553TIP3    H162074   2.442   3.009  13.873  3.1642 -0.9925  2.3313
13553TIP3    H262075   2.460   3.108  13.760 -1.4620 -2.1705  0.3363
13554TIP3   OH262076   3.015   6.511   0.361  0.2013 -0.1585 -0.2413
13554TIP3    H162077   3.042   6.521   0.452  0.5313  0.1530 -0.3684
13554TIP3    H262078   2.939   6.453   0.364 -1.2203  1.6277  0.4668
13555TIP3   OH262079   3.398   0.892  10.550  0.9820  0.3024 -0.3302
13555TIP3    H162080   3.472   0.856  10.501  1.2992 -2.5493  1.9612
13555TIP3    H262081   3.336   0.920  10.483  2.3246 -1.2487 -2.3474
13556TIP3   OH262082   6.155   6.399   1.274  0.7542 -0.1617 -0.1081
13556TIP3    H162083   6.076   6.383   1.223  0.8577 -0.0241 -0.3132
13556TIP3    H262084   6.148   6.339   1.348  0.3222  0.0532  0.0288
13557TIP3   OH262085   4.599   1.895  15.701  0.5567 -0.3318 -0.2257
13557TIP3    H162086   4.653   1.889  15.780 -1.5778 -0.3579  1.3280
13557TIP3    H262087   4.598   1.988  15.679 -1.4665  0.2325  1.8419
13558TIP3   OH262088   5.695   2.934   4.429  0.3210  0.0216 -0.4127
13558TIP3    H162089   5.705   2.905   4.520 -0.7527 -0.3436 -0.3953
13558TIP3    H262090   5.716   2.856   4.377 -0.0117 -0.0583 -0.4357
13559TIP3   OH262091   2.827   0.568   1.885  0.2120  0.0567 -0.1855
13559TIP3    H162092   2.812   0.618   1.965  0.3385 -1.9228  1.1533
13559TIP3    H262093   2.901   0.511   1.906 -0.5026 -1.3488 -1.2886
13560TIP3   OH262094   3.304   5.761   1.867 -0.2027  0.6272  0.1033
13560TIP3    H162095   3.243   5.829   1.838 -1.2832 -0.4950 -0.3547
13560TIP3    H262096   3.257   5.714   1.937  0.1720 -0.1904 -0.1753
13561TIP3   OH262097   1.354   3.262  15.857  0.1134  0.2726  0.1271
13561TIP3    H162098   1.440   3.281  15.895  0.2896  2.4744 -1.2030
13561TIP3    H262099   1.343   3.327  15.787 -1.5324 -1.5985 -1.4994
13562TIP3   OH262100   5.805   5.796  10.556  0.2238 -0.2830  0.0009
13562TIP3    H162101   5.803   5.719  10.500  1.1686  0.8405 -1.6406
13562TIP3    H262102   5.887   5.840  10.536 -0.5043  1.4340  0.5071
13563TIP3   OH262103   2.928   0.366   0.660  0.3848  0.2681  0.6178
13563TIP3    H162104   2.876   0.335   0.585 -0.5208  0.4568  1.1626
13563TIP3    H262105   2.942   0.459   0.643 -1.6899  0.8309  1.7280
13564TIP3   OH262106   1.559   0.517   6.256 -0.1076  0.2599  0.4795
13564TIP3    H162107   1.566   0.507   6.351  1.1796  1.2571  0.5127
13564TIP3    H262108   1.643   0.488   6.222  0.1979  1.8115 -0.1709
13565TIP3   OH262109   1.519   5.407  12.889 -0.1813  0.3703 -0.0639
13565TIP3    H162110   1.516   5.466  12.813 -1.0985 -1.0085 -1.1393
13565TIP3    H262111   1.611   5.382  12.896  0.0991  1.3773 -0.0195
13566TIP3   OH262112   5.258   6.334  11.946 -0.5504 -0.5615 -0.4236
13566TIP3    H162113   5.326   6.270  11.922  0.7742  0.7239 -0.2400
13566TIP3    H262114   5.240   6.381  11.864 -1.5660 -1.1885 -0.5726
13567TIP3   OH262115   3.423   0.889  11.508  0.3513 -0.4178 -0.2295
13567TIP3    H162116   3.411   0.874  11.415  0.4606 -0.3314 -0.2573
13567TIP3    H262117   3.485   0.962  11.513  0.1943 -0.2925 -0.0911
13568TIP3   OH262118   6.704   4.431   4.828  0.0865  0.2402  0.2785
13568TIP3    H162119   6.627   4.383   4.797  1.0556 -1.2632  0.1285
13568TIP3    H262120   6.668   4.496   4.888 -1.6988  2.3244 -2.7918
13569TIP3   OH262121   4.459   2.971  12.302 -0.2501 -0.0367 -0.4939
13569TIP3    H162122   4.517   3.034  12.345  0.4183 -0.3813 -0.8699
13569TIP3    H262123   4.417   2.924  12.373 -0.1133  0.2581 -0.2150
13570TIP3   OH262124   0.017   4.198  12.270 -0.0652 -0.1109  0.3980
13570TIP3    H162125   0.023   4.219  12.363  0.5455  0.9547  0.1359
13570TIP3    H262126   0.105   4.214  12.236  0.1438 -2.0359 -0.0794
13571TIP3   OH262127   2.936   4.854  14.849  0.0101  0.1152 -0.3176
13571TIP3    H162128   2.912   4.851  14.941  1.5923  1.7936  0.2039
13571TIP3    H262129   3.031   4.843  14.847  0.1595  1.2396 -1.6111
13572TIP3   OH262130   6.604   0.465  12.596  0.1920  0.5218 -0.0104
13572TIP3    H162131   6.538   0.484  12.530  0.1765  2.3833  0.4796
13572TIP3    H262132   6.669   0.534  12.586  1.6032 -0.7477  0.1282
13573TIP3   OH262133   2.470   6.043  15.018 -0.2806  0.7167 -0.3944
13573TIP3    H162134   2.484   5.998  14.935 -1.5078 -0.8983  0.2128
13573TIP3    H262135   2.558   6.065  15.048  0.6236 -2.6964 -0.0358
13574TIP3   OH262136   2.043   2.303  17.230 -0.2322 -0.0576  0.9368
13574TIP3    H162137   1.992   2.374  17.192 -0.7372 -0.1835  1.3591
13574TIP3    H262138   2.052   2.239  17.158 -0.1815  0.2171  0.6966
13575TIP3   OH262139   5.426   3.472   0.292  0.5426 -0.1477 -0.4929
13575TIP3    H162140   5.402   3.463   0.384 -0.7919  1.7851 -0.5979
13575TIP3    H262141   5.521   3.483   0.293  0.8123 -2.1545  0.4397
13576TIP3   OH262142   2.420   4.387  15.205  0.0359 -0.9458  0.4833
13576TIP3    H162143   2.365   4.318  15.243 -0.0778 -0.7405  0.6948
13576TIP3    H262144   2.497   4.390  15.262 -0.7706  0.3310  1.5636
13577TIP3   OH262145   2.310   1.846   4.755 -0.5514 -0.0751  0.1582
13577TIP3    H162146   2.215   1.849   4.768 -0.4669 -2.4350  2.2510
13577TIP3    H262147   2.321   1.801   4.671 -1.2544  0.5460 -0.2822
13578TIP3   OH262148   2.147   0.535  12.641  0.0968  0.5908  0.0423
13578TIP3    H162149   2.094   0.477  12.696  0.0484 -0.1350 -0.7604
13578TIP3    H262150   2.093   0.549  12.563  0.3590  1.2534 -0.0223
13579TIP3   OH262151   5.655   6.527   4.261  0.2317  0.4590  0.6010
13579TIP3    H162152   5.639   6.437   4.233 -0.6593  1.2860 -1.8128
13579TIP3    H262153   5.739   6.550   4.222 -0.5308  1.3005 -0.6224
13580TIP3   OH262154   1.820   2.103   4.525  0.0404 -0.0383 -0.2138
13580TIP3    H162155   1.760   2.049   4.576  1.4361  0.2466  1.8694
13580TIP3    H262156   1.906   2.087   4.564  0.8807  1.7616 -1.1829
13581TIP3   OH262157   0.293   3.174   1.146  0.0702  0.3978 -0.4899
13581TIP3    H162158   0.382   3.209   1.150 -0.1946  1.0425 -0.0360
13581TIP3    H262159   0.250   3.228   1.079 -0.0106  0.1640 -0.6251
13582TIP3   OH262160   3.854   6.343   0.624 -0.0731  0.6143  0.8512
13582TIP3    H162161   3.772   6.307   0.656 -0.2684 -0.2596 -0.5433
13582TIP3    H262162   3.920   6.314   0.687 -0.5104 -0.6086  0.7656
13583TIP3   OH262163   1.241   6.028   3.497 -0.0478  0.3415 -0.0539
13583TIP3    H162164   1.317   5.973   3.515  0.9204  1.3093 -1.0673
13583TIP3    H262165   1.270   6.089   3.429 -1.6761  0.8463 -0.3531
13584TIP3   OH262166   4.992   3.272  12.137 -0.0111  0.1683 -0.2070
13584TIP3    H162167   4.947   3.300  12.057 -2.8729 -2.0693  0.4625
13584TIP3    H262168   5.074   3.233  12.107 -0.8944 -0.3710 -2.0430
13585TIP3   OH262169   5.678   5.404   1.882  0.3934  0.0202 -0.4118
13585TIP3    H162170   5.753   5.422   1.939 -0.1204  0.4903  0.1350
13585TIP3    H262171   5.646   5.318   1.911 -0.3032  0.5723  0.5257
13586TIP3   OH262172   4.533   4.600   4.837  0.8739  0.4984  0.5660
13586TIP3    H162173   4.581   4.575   4.916  0.6359  0.3491  0.6674
13586TIP3    H262174   4.588   4.665   4.794  1.5502 -0.2570  0.2554
13587TIP3   OH262175   4.255   0.988   6.126 -0.1451  0.3944 -0.0123
13587TIP3    H162176   4.311   0.914   6.147 -0.9570 -0.3446 -0.3695
13587TIP3    H262177   4.166   0.955   6.137 -0.5179  1.5023  0.4190
13588TIP3   OH262178   2.291   3.477  13.709  0.2455 -0.5089 -0.0243
13588TIP3    H162179   2.366   3.530  13.681  0.0946  0.9539  2.0744
13588TIP3    H262180   2.325   3.425  13.781 -0.1050 -1.9424 -0.8588
13589TIP3   OH262181   4.213   6.340   3.257  0.3178 -0.0623 -0.1904
13589TIP3    H162182   4.190   6.380   3.173 -0.9066 -1.3745 -0.5224
13589TIP3    H262183   4.293   6.385   3.284  0.3104  0.9166 -1.6876
13590TIP3   OH262184   1.440   5.480  14.360 -0.2054 -0.5021  0.1290
13590TIP3    H162185   1.394   5.397  14.349  2.2671 -1.5958 -4.1266
13590TIP3    H262186   1.524   5.456  14.399  0.5227 -0.0719 -1.1168
13591TIP3   OH262187   0.365   4.162   1.033  0.0167  0.0087  0.1017
13591TIP3    H162188   0.455   4.181   1.061 -0.4579 -1.3197  2.8623
13591TIP3    H262189   0.370   4.075   0.994 -0.1264 -0.3703  0.8929
13592TIP3   OH262190   5.652   5.183  16.896 -0.2410  0.0568 -0.1043
13592TIP3    H162191   5.695   5.126  16.832 -0.6050 -1.1658  0.7021
13592TIP3    H262192   5.720   5.201  16.961 -0.5747 -0.8252  0.5009
13593TIP3   OH262193   2.388   6.611   1.589  0.6737 -0.4082  0.4658
13593TIP3    H162194   2.299   6.589   1.562  0.9614 -0.1049 -0.7565
13593TIP3    H262195   2.388   6.597   1.684 -0.7525 -0.1218  0.5221
13594TIP3   OH262196   4.080   5.849  12.645  0.2510 -0.6571  0.2899
13594TIP3    H162197   4.025   5.852  12.567  0.0276 -1.3426  0.4156
13594TIP3    H262198   4.069   5.935  12.685  0.9760 -0.0119 -0.8337
13595TIP3   OH262199   6.470   0.589   3.292 -0.0340  0.6481  0.5128
13595TIP3    H162200   6.401   0.526   3.314  0.2147  0.0577 -0.3315
13595TIP3    H262201   6.456   0.662   3.352 -1.5813  0.6765  0.1649
13596TIP3   OH262202   6.715   3.726  11.324  0.5565  0.2627 -0.6726
13596TIP3    H162203   6.725   3.687  11.237  0.7475  0.2363 -0.6386
13596TIP3    H262204   6.804   3.738  11.356  0.4795 -0.5682 -0.1048
13597TIP3   OH262205   2.059   5.326   1.290  0.6847  0.0105  0.2332
13597TIP3    H162206   2.074   5.421   1.289 -1.6413  0.5180  2.5598
13597TIP3    H262207   2.121   5.292   1.353 -0.4805  0.5114  1.7168
13598TIP3   OH262208   1.254   1.672   3.680 -0.0271 -0.3501 -0.3178
13598TIP3    H162209   1.283   1.760   3.705 -2.2312  0.4631 -0.3356
13598TIP3    H262210   1.178   1.688   3.624 -0.0083 -2.2732 -0.9279
13599TIP3   OH262211   3.131   0.996  15.866 -0.1426 -0.4835 -0.0899
13599TIP3    H162212   3.084   0.984  15.783 -1.3075  0.3619  0.4092
13599TIP3    H262213   3.125   1.090  15.882  0.8435 -0.5183  0.5247
13600TIP3   OH262214   1.111   1.129   3.474  0.6545 -0.1788  0.6446
13600TIP3    H162215   1.194   1.174   3.490 -0.6214  3.3015 -1.5142
13600TIP3    H262216   1.051   1.165   3.539 -0.5441  1.9287 -1.4997
13601TIP3   OH262217   5.427   2.745   0.335 -0.7044 -0.0650 -0.1313
13601TIP3    H162218   5.522   2.743   0.323 -0.6740  0.1941  0.0657
13601TIP3    H262219   5.397   2.658   0.305 -0.3604 -0.3042  0.2153
13602TIP3   OH262220   6.648   4.890   2.664  0.4560  0.1164  0.1021
13602TIP3    H162221   6.600   4.943   2.727  0.6250  1.6570 -0.9906
13602TIP3    H262222   6.694   4.825   2.717 -1.8740 -0.6886  1.2753
13603TIP3   OH262223   2.462   2.085   6.001  0.1166 -0.1019  0.0711
13603TIP3    H162224   2.443   2.021   6.070 -0.2025  0.9754  1.0062
13603TIP3    H262225   2.410   2.162   6.025  0.3967  0.4669 -1.1042
13604TIP3   OH262226   5.521   0.324  12.202  0.3489  0.1315 -0.0769
13604TIP3    H162227   5.433   0.355  12.223  0.3296 -0.5238  0.8525
13604TIP3    H262228   5.578   0.399  12.220  0.2047 -0.0608  1.2630
13605TIP3   OH262229   3.616   0.229  15.759  0.4464  0.5614  0.4262
13605TIP3    H162230   3.704   0.267  15.759 -0.0361  2.0086 -2.5437
13605TIP3    H262231   3.588   0.235  15.667 -2.0599 -1.5482  0.9373
13606TIP3   OH262232   5.543   6.027   4.672 -0.1078  0.9097 -0.4390
13606TIP3    H162233   5.536   5.943   4.717  0.4110 -0.7054 -3.1667
13606TIP3    H262234   5.498   6.014   4.589  1.5444  2.7496 -1.7179
13607TIP3   OH262235   6.316   6.602   1.797 -0.0475 -0.4361  0.7212
13607TIP3    H162236   6.321   6.665   1.725 -1.4976  0.1589  1.1192
13607TIP3    H262237   6.253   6.640   1.858 -0.8364 -2.2066  1.0476
13608TIP3   OH262238   4.418   5.281   5.942 -0.6591 -0.0760 -0.4371
13608TIP3    H162239   4.436   5.190   5.918  2.4696  0.5542 -0.9765
13608TIP3    H262240   4.372   5.275   6.026 -0.4538 -2.1670 -0.4261
13609TIP3   OH262241   3.071   5.160   0.695 -0.6816 -0.6419  1.1417
13609TIP3    H162242   2.996   5.206   0.734 -1.5221 -0.1481 -0.9039
13609TIP3    H262243   3.063   5.178   0.601  1.0839 -1.9628  0.6977
13610TIP3   OH262244   4.574   4.337   1.528  0.1133  0.1672 -0.1949
13610TIP3    H162245   4.501   4.374   1.579  0.4527 -1.4432  1.5601
13610TIP3    H262246   4.535   4.269   1.475  0.1372  0.2184 -0.2790
13611TIP3   OH262247   0.175   4.845  16.039  0.3950  0.2129  0.1514
13611TIP3    H162248   0.251   4.786  16.040 -1.0164 -1.7049  0.0307
13611TIP3    H262249   0.150   4.853  16.131 -1.5283 -2.3740 -0.0378
13612TIP3   OH262250   4.323   0.297   4.650  0.6676  0.7034  0.4781
13612TIP3    H162251   4.331   0.201   4.653  1.0252  0.7064 -0.2043
13612TIP3    H262252   4.412   0.328   4.640  0.4950  1.0792  0.0582
13613TIP3   OH262253   2.220   0.554   0.853  0.2207  0.0808 -0.0861
13613TIP3    H162254   2.296   0.611   0.864  0.5145 -0.0909 -1.1394
13613TIP3    H262255   2.190   0.536   0.942  1.7351 -0.2712  0.3794
13614TIP3   OH262256   0.085   4.610   5.446  0.1160 -0.0456 -0.0322
13614TIP3    H162257   0.134   4.679   5.401  0.4773  0.8455  1.6470
13614TIP3    H262258   0.141   4.532   5.439  1.8903  0.9768  1.9427
13615TIP3   OH262259   2.500   0.063   5.020 -0.3503  0.0385  0.2107
13615TIP3    H162260   2.588   0.079   5.054 -0.1813  0.4390 -0.3976
13615TIP3    H262261   2.456   0.014   5.089  0.4075 -0.3258  0.4449
13616TIP3   OH262262   3.192   3.342  12.331  0.2403 -0.1584  0.4542
13616TIP3    H162263   3.220   3.251  12.325 -1.3292 -0.7110  1.1780
13616TIP3    H262264   3.099   3.340  12.308  0.0088  1.1551  1.2057
13617TIP3   OH262265   3.618   4.918   2.299  0.0175 -0.2528  0.3599
13617TIP3    H162266   3.708   4.909   2.331  0.4880 -0.4972 -0.9873
13617TIP3    H262267   3.622   4.892   2.207 -1.0998  1.3531 -0.1918
13618TIP3   OH262268   4.537   5.244   4.404  0.2265 -0.0522  0.8121
13618TIP3    H162269   4.577   5.291   4.331  1.2278 -1.4340  0.4140
13618TIP3    H262270   4.500   5.312   4.460 -1.7026  1.0060 -1.5935
13619TIP3   OH262271   4.045   1.586   5.965  0.0370  0.1698 -0.3155
13619TIP3    H162272   3.990   1.648   6.012 -0.5906 -1.6222  1.4594
13619TIP3    H262273   4.013   1.588   5.875 -1.7344  0.4737  0.2888
13620TIP3   OH262274   5.752   2.305   2.183 -0.4948 -0.2696 -0.4258
13620TIP3    H162275   5.732   2.367   2.113 -0.0578 -1.7868 -1.9605
13620TIP3    H262276   5.668   2.263   2.202 -0.8895  1.0523  0.9460
13621TIP3   OH262277   4.943   0.750   0.604 -0.3095  0.4019  0.9267
13621TIP3    H162278   4.963   0.725   0.514 -1.0077 -0.9235  1.1233
13621TIP3    H262279   4.997   0.828   0.619 -0.4125  0.8297 -0.7223
13622TIP3   OH262280   3.012   5.160   2.584  0.1843  0.1391 -0.2836
13622TIP3    H162281   2.944   5.213   2.626 -0.6406  0.3914 -1.8605
13622TIP3    H262282   3.024   5.086   2.643  0.0207  1.1167  1.0366
13623TIP3   OH262283   6.554   0.606  11.830  0.3109  0.1192  0.1452
13623TIP3    H162284   6.486   0.539  11.836  1.0162 -0.8644 -1.8674
13623TIP3    H262285   6.603   0.598  11.912 -0.5573 -0.7437  0.6014
13624TIP3   OH262286   3.294   3.523  11.273  0.3819 -0.3898  0.5684
13624TIP3    H162287   3.201   3.521  11.296 -0.0982 -0.7675 -1.2943
13624TIP3    H262288   3.331   3.590  11.330 -1.4644  1.3282 -0.1607
13625TIP3   OH262289   6.122   1.336   2.008 -0.6354  0.4610  0.3774
13625TIP3    H162290   6.155   1.409   2.061  2.7653  0.1204 -1.0375
13625TIP3    H262291   6.143   1.259   2.060  3.4268  0.0676 -1.5185
13626TIP3   OH262292   0.753   1.377  12.418  0.2595  0.0529 -0.4257
13626TIP3    H162293   0.704   1.459  12.421  0.8966  0.5230 -1.9338
13626TIP3    H262294   0.734   1.340  12.332  0.5448 -1.0346 -0.0414
13627TIP3   OH262295   3.320   5.859   4.167 -0.5121 -0.2676 -0.1775
13627TIP3    H162296   3.344   5.768   4.182 -1.7354 -0.5559  0.1567
13627TIP3    H262297   3.310   5.896   4.255 -2.4595 -0.5116 -0.2468
13628TIP3   OH262298   1.804   6.289  12.435 -1.1351 -0.0386  0.5972
13628TIP3    H162299   1.763   6.362  12.480 -0.6354  0.6883 -0.1003
13628TIP3    H262300   1.866   6.330  12.375 -1.2583 -1.0075 -0.2119
13629TIP3   OH262301   6.076   5.062   5.306 -0.4577  0.1271 -0.4095
13629TIP3    H162302   6.005   5.100   5.255 -0.2316  0.2895 -0.6042
13629TIP3    H262303   6.154   5.074   5.252 -0.0854  0.9713  0.2877
13630TIP3   OH262304   4.686   2.937   3.609  0.3646  0.1148  0.1721
13630TIP3    H162305   4.609   2.938   3.666 -0.8009 -0.5302 -1.3581
13630TIP3    H262306   4.733   3.018   3.633 -0.6074  0.3750  1.3284
13631TIP3   OH262307   3.348   4.922   5.177 -0.0186  0.6554  0.0591
13631TIP3    H162308   3.383   4.889   5.260 -0.7207 -1.4316 -0.4322
13631TIP3    H262309   3.259   4.950   5.197 -0.0863  0.4272  0.0804
13632TIP3   OH262310   1.059   2.742  13.716 -0.3100 -0.0664 -0.2064
13632TIP3    H162311   1.085   2.678  13.650 -0.4908 -0.8592  0.4665
13632TIP3    H262312   0.963   2.747  13.708 -0.1945  1.1373 -1.1476
13633TIP3   OH262313   0.720   2.864   2.990 -0.0391 -0.4228 -0.2812
13633TIP3    H162314   0.673   2.893   2.911  2.5456  2.4112 -0.9831
13633TIP3    H262315   0.756   2.778   2.966 -0.8608 -0.4571 -1.4824
13634TIP3   OH262316   5.231   2.142  16.532 -0.4054  0.0658  0.4834
13634TIP3    H162317   5.194   2.227  16.555  0.1122  0.6442 -0.7462
13634TIP3    H262318   5.302   2.162  16.471 -1.0133 -1.3167 -0.7375
13635TIP3   OH262319   0.629   6.378   6.405  0.1227  0.2694  0.0871
13635TIP3    H162320   0.680   6.325   6.467  1.3061  0.1018 -0.9851
13635TIP3    H262321   0.635   6.467   6.439 -1.4550 -0.1452  1.6268
13636TIP3   OH262322   0.900   1.038  14.828 -0.1389  0.3511 -0.1241
13636TIP3    H162323   0.904   1.107  14.761 -2.5471  0.4235 -0.2501
13636TIP3    H262324   0.936   0.960  14.785  1.0826  1.0855 -0.5007
13637TIP3   OH262325   2.221   1.868  15.353  0.4189  0.1799  0.5891
13637TIP3    H162326   2.213   1.772  15.355 -0.0567  0.1963 -0.2203
13637TIP3    H262327   2.203   1.895  15.443 -1.8660 -0.3325  0.3513
13638TIP3   OH262328   4.782   3.490   4.831  0.1097  0.2258 -0.3656
13638TIP3    H162329   4.808   3.489   4.739  2.5484 -1.0683  0.2363
13638TIP3    H262330   4.824   3.568   4.867  0.8476 -0.3296  0.0184
13639TIP3   OH262331   3.337   5.342  12.314 -0.6964  0.1212 -0.5261
13639TIP3    H162332   3.377   5.358  12.228 -1.3586 -1.3106 -1.1458
13639TIP3    H262333   3.255   5.392  12.312  0.9215  3.0286  0.7316
13640TIP3   OH262334   2.583   0.239   3.973  0.3704  0.3456 -0.2100
13640TIP3    H162335   2.543   0.238   3.886 -0.0944 -0.0281  0.0039
13640TIP3    H262336   2.626   0.325   3.978 -0.9044  1.0101 -0.2185
13641TIP3   OH262337   3.664   0.284  11.619 -0.7753  0.0856 -0.1089
13641TIP3    H162338   3.610   0.205  11.620  0.8884 -1.1078 -0.8708
13641TIP3    H262339   3.677   0.303  11.526 -0.2116  0.5731  0.0648
13642TIP3   OH262340   1.079   5.293   5.144  0.8930 -0.2348  0.4749
13642TIP3    H162341   1.056   5.296   5.237 -0.4122  1.4713  0.1398
13642TIP3    H262342   1.171   5.318   5.141  0.7033  0.5807  1.2424
13643TIP3   OH262343   1.380   3.073  15.264  0.5723 -0.0937  0.6968
13643TIP3    H162344   1.361   3.065  15.357  1.4901 -0.9654  0.8241
13643TIP3    H262345   1.338   3.154  15.238 -0.5314 -0.3348  1.6535
13644TIP3   OH262346   0.891   6.066   5.204  0.8564 -0.1311 -0.0671
13644TIP3    H162347   0.806   6.091   5.239  0.3975 -0.5056 -0.8622
13644TIP3    H262348   0.928   6.007   5.269  0.2767 -0.3672  0.0513
13645TIP3   OH262349   6.462   2.347   3.120  0.2713  0.3516 -0.6666
13645TIP3    H162350   6.544   2.389   3.093  0.1076  0.3934 -1.1095
13645TIP3    H262351   6.437   2.294   3.045  1.7732 -2.5589  0.7507
13646TIP3   OH262352   5.474   3.610  13.780  0.1294  0.2415 -0.0132
13646TIP3    H162353   5.555   3.620  13.830  0.2600  2.6240 -0.5423
13646TIP3    H262354   5.419   3.682  13.810 -1.1275 -0.3265 -0.8723
13647TIP3   OH262355   4.767   0.520  15.691  0.3908  0.3978 -0.8246
13647TIP3    H162356   4.773   0.444  15.633 -2.7941 -0.8726  0.2721
13647TIP3    H262357   4.822   0.498  15.766 -0.0144 -0.6073 -0.8022
13648TIP3   OH262358   3.568   3.044   3.288  0.3334  0.5738 -0.1104
13648TIP3    H162359   3.630   3.004   3.227  2.1629 -0.2925  2.1591
13648TIP3    H262360   3.592   3.136   3.288  2.6490  0.0630  1.7047
13649TIP3   OH262361   4.566   2.537   2.532  0.0652 -0.1353  0.2125
13649TIP3    H162362   4.647   2.489   2.512  0.6357  1.0652 -0.4994
13649TIP3    H262363   4.595   2.610   2.586 -0.7463 -0.3901  1.0080
13650TIP3   OH262364   0.673   2.910  14.888  0.3274 -0.5652 -0.0424
13650TIP3    H162365   0.702   2.956  14.809  1.3404 -2.8896 -1.1064
13650TIP3    H262366   0.746   2.918  14.949 -0.5912  1.5400  0.9091
13651TIP3   OH262367   2.308   4.842   4.988  0.2630 -0.3798 -0.2010
13651TIP3    H162368   2.221   4.817   5.021 -0.6988 -0.2060 -2.4190
13651TIP3    H262369   2.356   4.870   5.066 -2.2180  1.0819  0.9263
13652TIP3   OH262370   0.583   4.831  13.211 -0.5248  0.9336  0.1415
13652TIP3    H162371   0.654   4.888  13.180  1.4826 -0.6113  1.6695
13652TIP3    H262372   0.599   4.748  13.167 -1.2482  0.4956  0.7068
13653TIP3   OH262373   3.068   1.277   0.872  0.5008 -0.2987  0.2817
13653TIP3    H162374   3.059   1.185   0.897  1.6292 -0.0375  1.7753
13653TIP3    H262375   2.998   1.322   0.920 -0.7842 -0.4832 -1.3304
13654TIP3   OH262376   1.918   0.696   5.449  0.1732 -0.4505  0.0238
13654TIP3    H162377   1.901   0.631   5.381  0.9543  0.0090 -0.6241
13654TIP3    H262378   1.995   0.744   5.418  1.6539 -1.3464  1.9878
13655TIP3   OH262379   6.038   0.576   5.167 -0.2848 -0.1882 -0.0299
13655TIP3    H162380   6.093   0.500   5.150 -0.2354  0.2872 -2.4803
13655TIP3    H262381   5.971   0.573   5.098 -1.4640  0.9300  1.0129
13656TIP3   OH262382   0.567   4.236  13.595 -0.8777 -0.4265  0.3609
13656TIP3    H162383   0.514   4.168  13.553 -1.6757  0.9960 -1.0319
13656TIP3    H262384   0.553   4.314  13.542  0.5130  0.6914  1.5441
13657TIP3   OH262385   0.274   5.270   4.046 -0.3394 -0.0506  0.8056
13657TIP3    H162386   0.186   5.244   4.017  0.3037 -2.1074  0.4685
13657TIP3    H262387   0.291   5.352   4.000 -0.3341 -1.9194 -3.0138
13658TIP3   OH262388   2.972   4.895  10.810  0.0436 -0.0210 -0.0649
13658TIP3    H162389   2.957   4.926  10.899 -2.2296 -0.7476 -0.1497
13658TIP3    H262390   3.056   4.850  10.815 -0.6888 -1.3227  2.0917
13659TIP3   OH262391   4.249   5.161   0.303 -0.1923 -0.6871 -0.0392
13659TIP3    H162392   4.336   5.131   0.327  0.0983  0.3690  0.2895
13659TIP3    H262393   4.250   5.255   0.321 -1.0831 -0.4798 -0.9417
13660TIP3   OH262394   5.263   4.222  16.994  0.0616  0.6548  0.2284
13660TIP3    H162395   5.184   4.269  16.966  0.1024  0.8286  0.3987
13660TIP3    H262396   5.311   4.205  16.913 -2.0286 -3.0169 -0.4726
13661TIP3   OH262397   5.533   1.039  14.540  0.5626  0.4262 -0.1548
13661TIP3    H162398   5.576   0.953  14.531 -2.7608 -1.4898  0.6183
13661TIP3    H262399   5.486   1.050  14.457  0.5013  1.2416 -0.0125
13662TIP3   OH262400   2.435   4.054   4.953 -0.1724 -0.1442 -0.7296
13662TIP3    H162401   2.347   4.085   4.933 -0.6495 -0.9433  0.0739
13662TIP3    H262402   2.487   4.081   4.877 -0.9300  1.0117 -0.8730
13663TIP3   OH262403   4.251   3.611   6.792 -0.1701  0.0924  0.0512
13663TIP3    H162404   4.272   3.658   6.873  0.8380 -0.7681  0.3060
13663TIP3    H262405   4.335   3.600   6.748 -0.6575  0.2202 -0.9445
13664TIP3   OH262406   6.213   4.789  16.270  0.5218  0.4649 -0.0415
13664TIP3    H162407   6.265   4.709  16.265  0.2591  0.1909  1.2606
13664TIP3    H262408   6.124   4.758  16.286  0.5760  1.0294  1.4852
13665TIP3   OH262409   3.002   5.063  11.693 -0.2302  0.0635  0.0482
13665TIP3    H162410   3.076   5.008  11.719 -0.5486  0.3142  1.5960
13665TIP3    H262411   2.969   5.024  11.613 -1.5383 -3.0829  1.9601
13666TIP3   OH262412   1.813   2.283  12.757  0.4076 -0.3396 -0.1701
13666TIP3    H162413   1.727   2.264  12.722 -0.1454  1.9204 -0.1727
13666TIP3    H262414   1.843   2.360  12.709  1.4645  0.2489  1.3295
13667TIP3   OH262415   4.032   1.776   4.804 -0.3887  0.0177 -0.2146
13667TIP3    H162416   3.957   1.771   4.746  0.7508  0.3096 -1.7647
13667TIP3    H262417   4.003   1.831   4.877 -1.1759  1.5261 -1.6005
13668TIP3   OH262418   2.846   4.768  13.701 -0.2098 -0.3067  0.8029
13668TIP3    H162419   2.876   4.780  13.611 -0.9019 -1.9855  0.3259
13668TIP3    H262420   2.806   4.852  13.723 -0.7083 -0.1016 -0.7261
13669TIP3   OH262421   0.629   2.259  11.439 -0.7551  0.3396  0.2805
13669TIP3    H162422   0.673   2.333  11.397 -0.7312  0.2975  0.2312
13669TIP3    H262423   0.620   2.285  11.530 -2.1726  1.0731 -0.0398
13670TIP3   OH262424   1.429   3.528   2.554 -0.1225  0.0147  0.0511
13670TIP3    H162425   1.355   3.585   2.532  0.8133  1.5762  0.7473
13670TIP3    H262426   1.404   3.486   2.636 -0.4960  0.0314 -0.0524
13671TIP3   OH262427   1.991   0.923   3.871  0.3791  0.5235  0.1909
13671TIP3    H162428   2.083   0.898   3.882 -0.1181 -1.2046  0.7922
13671TIP3    H262429   1.966   0.885   3.787  0.0273  0.3799  0.3600
13672TIP3   OH262430   2.306   6.143  13.965  0.1054 -0.0384 -0.0785
13672TIP3    H162431   2.399   6.152  13.985 -0.1212  0.6954  0.7585
13672TIP3    H262432   2.284   6.053  13.989  1.0332 -0.9264 -2.2994
13673TIP3   OH262433   3.816   5.822  16.703  0.3780  0.5337 -0.3496
13673TIP3    H162434   3.869   5.744  16.683 -0.0809  0.4590 -1.3246
13673TIP3    H262435   3.877   5.882  16.745  0.5581 -0.6537  1.1705
13674TIP3   OH262436   4.330   5.536   2.985 -0.3298  0.1997 -0.0497
13674TIP3    H162437   4.343   5.483   3.064 -1.3041  0.6964  0.4565
13674TIP3    H262438   4.255   5.592   3.005 -0.8015  0.1092 -1.4457
13675TIP3   OH262439   3.046   6.799  13.804 -0.0884 -0.2835 -0.1078
13675TIP3    H162440   3.137   6.821  13.826 -0.4033  0.5972  0.3699
13675TIP3    H262441   3.049   6.776  13.711  0.6293 -0.2696 -0.0973
13676TIP3   OH262442   1.130   2.310  16.685  0.1814 -0.4947  0.4960
13676TIP3    H162443   1.092   2.256  16.754 -0.1993 -1.9781 -0.8218
13676TIP3    H262444   1.167   2.247  16.623 -0.8366  0.7204 -1.4270
13677TIP3   OH262445   2.253   2.748  11.918 -0.2560 -0.0287  0.1728
13677TIP3    H162446   2.198   2.823  11.940 -0.7662 -0.5287  0.6237
13677TIP3    H262447   2.213   2.712  11.838 -0.6935 -0.4939  0.5970
13678TIP3   OH262448   0.253   1.203  13.570  0.0260  0.0696  0.0904
13678TIP3    H162449   0.203   1.166  13.642  0.6365 -2.3600 -0.6337
13678TIP3    H262450   0.187   1.226  13.505 -0.3239 -1.1641 -0.0185
13679TIP3   OH262451   6.373   3.251  16.441  1.2550 -0.2235 -0.6100
13679TIP3    H162452   6.416   3.279  16.360  0.7671 -1.6538 -1.3954
13679TIP3    H262453   6.444   3.249  16.506  2.1250 -1.2017 -1.5511
13680TIP3   OH262454   5.375   0.437  14.322 -0.5271  0.0129 -0.7315
13680TIP3    H162455   5.318   0.471  14.253 -1.2578  0.7467  0.1969
13680TIP3    H262456   5.316   0.395  14.384 -0.1735  1.3755  0.5921
13681TIP3   OH262457   4.486   2.225  14.073 -0.4305 -0.2687  0.8671
13681TIP3    H162458   4.562   2.202  14.020 -1.1218 -0.6704  0.0352
13681TIP3    H262459   4.522   2.243  14.160  0.6038 -0.5282  0.5018
13682TIP3   OH262460   1.234   3.157  12.072  0.2646  0.0975 -0.6868
13682TIP3    H162461   1.145   3.193  12.074 -0.2361 -1.1154 -0.1047
13682TIP3    H262462   1.222   3.064  12.090  1.6571 -0.0935 -0.6787
13683TIP3   OH262463   5.935   0.102   0.399 -0.1614 -0.2127  0.4237
13683TIP3    H162464   5.893   0.047   0.466  1.5905  1.0283  2.6716
13683TIP3    H262465   5.905   0.191   0.419  0.0195  0.1392 -0.7979
13684TIP3   OH262466   4.455   5.735   4.578  0.3277  0.5250 -0.1574
13684TIP3    H162467   4.429   5.805   4.517  1.2216  0.8390 -0.1855
13684TIP3    H262468   4.413   5.657   4.543 -0.4653  0.9879 -0.2833
13685TIP3   OH262469   6.586   5.047  14.164  0.7213 -0.7196  0.0935
13685TIP3    H162470   6.534   5.067  14.241  0.7458 -2.4044  0.5946
13685TIP3    H262471   6.666   5.098  14.175  0.5962 -0.7152  1.0469
13686TIP3   OH262472   6.571   5.099   2.488 -0.1154  0.5102 -0.1412
13686TIP3    H162473   6.580   5.175   2.545  2.1102  0.2152 -0.0098
13686TIP3    H262474   6.583   5.024   2.546 -0.6962  0.0934 -0.5439
13687TIP3   OH262475   3.172   5.829   1.482 -0.0534 -0.2999 -0.3277
13687TIP3    H162476   3.245   5.838   1.544  0.7813 -2.6718 -0.8474
13687TIP3    H262477   3.105   5.782   1.531 -0.8183  0.8580 -0.2147
13688TIP3   OH262478   3.555   6.058   5.639  0.4330 -0.1538 -0.3578
13688TIP3    H162479   3.495   5.996   5.680 -2.5380  1.3963 -1.9844
13688TIP3    H262480   3.606   6.094   5.711 -1.7942 -0.3627  1.4407
13689TIP3   OH262481   5.923   5.189   2.588  0.2828  0.2380  0.2196
13689TIP3    H162482   5.919   5.123   2.519 -1.1884  1.4238 -0.8937
13689TIP3    H262483   6.016   5.195   2.610  0.6220 -1.0958 -0.7347
13690TIP3   OH262484   4.119   3.527  16.166 -0.6798 -0.0611  0.1868
13690TIP3    H162485   4.177   3.504  16.093  0.8476  2.8619  0.3183
13690TIP3    H262486   4.169   3.504  16.244 -0.6961  0.2109  0.2809
13691TIP3   OH262487   5.327   5.510  16.551 -0.2297 -0.1386 -0.0561
13691TIP3    H162488   5.314   5.601  16.522 -0.6615 -0.1772  0.0136
13691TIP3    H262489   5.372   5.518  16.635 -0.4863  0.0156  0.0667
13692TIP3   OH262490   0.239   6.673  13.563  0.6628 -0.1503 -0.9633
13692TIP3    H162491   0.285   6.681  13.647  0.8529 -0.6459 -1.0116
13692TIP3    H262492   0.302   6.628  13.506  0.3626 -0.2375 -1.2306
13693TIP3   OH262493   4.702   6.452  14.566  0.0872 -0.5565 -0.1599
13693TIP3    H162494   4.737   6.464  14.478 -0.9663 -1.4579 -0.7296
13693TIP3    H262495   4.610   6.431  14.552 -0.1230 -0.5815  1.1652
13694TIP3   OH262496   2.903   2.406  15.183 -0.9197  0.3270  0.4907
13694TIP3    H162497   2.872   2.474  15.243 -2.1865  0.3004 -0.1220
13694TIP3    H262498   2.987   2.379  15.220 -1.3849  0.7465  1.9137
13695TIP3   OH262499   6.100   1.763  14.694 -0.3905 -0.6161 -0.2190
13695TIP3    H162500   6.038   1.691  14.675 -0.0683 -0.8058 -0.5714
13695TIP3    H262501   6.185   1.729  14.666  0.3011 -1.2639  2.4363
13696TIP3   OH262502   5.312   5.682  15.058  0.0715 -0.2052 -0.0047
13696TIP3    H162503   5.318   5.601  15.007 -3.0059  0.9873 -2.6469
13696TIP3    H262504   5.273   5.655  15.141 -0.7580 -1.5132 -0.7745
13697TIP3   OH262505   1.495   4.367  13.063 -0.2681  0.0539  0.4752
13697TIP3    H162506   1.526   4.396  13.149  1.6254 -0.5128  0.0192
13697TIP3    H262507   1.574   4.360  13.010 -1.4626  0.8966 -1.4973
13698TIP3   OH262508   2.649   5.132   3.271 -0.1251 -0.5084 -0.3279
13698TIP3    H162509   2.678   5.072   3.339 -0.2072 -1.7594 -1.3442
13698TIP3    H262510   2.554   5.137   3.282 -0.1021 -0.4580 -0.1553
13699TIP3   OH262511   4.925   0.143   4.238  0.6563 -0.4757 -0.3119
13699TIP3    H162512   4.952   0.073   4.298  2.4381 -0.5725 -1.1519
13699TIP3    H262513   4.882   0.098   4.165 -1.4603 -0.3623  0.7913
13700TIP3   OH262514   6.430   0.181   3.149 -0.1243 -0.6073 -0.3427
13700TIP3    H162515   6.423   0.224   3.235  0.8745 -1.1033  0.0080
13700TIP3    H262516   6.518   0.144   3.149 -0.3333 -1.1201 -1.3550
13701TIP3   OH262517   2.863   1.997  11.967 -0.5605 -0.2787  0.0372
13701TIP3    H162518   2.820   2.027  12.047  0.0512  1.9772 -0.4293
13701TIP3    H262519   2.813   2.036  11.896  1.1342  0.8820 -0.5555
13702TIP3   OH262520   4.316   4.451  13.732  0.1848 -1.1351 -0.5990
13702TIP3    H162521   4.412   4.454  13.738  0.2596 -2.1480 -1.1505
13702TIP3    H262522   4.286   4.460  13.822  0.8465 -2.0088 -0.2788
13703TIP3   OH262523   0.134   2.714   1.811 -0.1330  0.1648 -0.5124
13703TIP3    H162524   0.039   2.720   1.819 -0.2970 -0.1537 -1.9175
13703TIP3    H262525   0.167   2.729   1.899 -1.5101 -0.1780  0.0820
13704TIP3   OH262526   4.483   2.647  16.938  0.1011 -0.7995  0.2986
13704TIP3    H162527   4.569   2.688  16.940 -0.3367  0.0996  1.5565
13704TIP3    H262528   4.468   2.616  17.027 -1.1737 -0.2972  0.2891
13705TIP3   OH262529   1.633   1.948   4.659  0.2391  0.3415 -0.2562
13705TIP3    H162530   1.556   1.940   4.715  1.1564  1.3371  1.2209
13705TIP3    H262531   1.684   1.869   4.678 -0.6778 -0.6635 -1.7439
13706TIP3   OH262532   1.714   2.191  14.956  0.4180 -0.0594  0.1629
13706TIP3    H162533   1.805   2.166  14.972  0.5616  1.3598  1.8967
13706TIP3    H262534   1.719   2.280  14.921 -0.3047  0.1049  0.4688
13707TIP3   OH262535   3.047   0.272  15.010  0.2001  0.2977 -0.4025
13707TIP3    H162536   3.003   0.197  15.049 -0.5501 -0.9375 -3.3873
13707TIP3    H262537   3.123   0.235  14.965  0.7251  1.5528 -0.5986
13708TIP3   OH262538   5.809   4.553   0.236  0.3958 -0.0094 -0.3875
13708TIP3    H162539   5.757   4.629   0.210 -0.3765 -0.3353  0.1616
13708TIP3    H262540   5.748   4.499   0.287  0.6038 -1.5402 -1.6730
13709TIP3   OH262541   3.867   4.052  13.058  0.0548  0.2146 -0.0295
13709TIP3    H162542   3.930   4.121  13.038  2.4195 -1.0805  2.4247
13709TIP3    H262543   3.811   4.090  13.126  0.1538  0.3400 -0.0185
13710TIP3   OH262544   0.198   1.326  16.934  0.6732  0.1118  0.3227
13710TIP3    H162545   0.263   1.396  16.932  0.4511  0.4014  1.7654
13710TIP3    H262546   0.140   1.350  17.006  0.7548 -1.6957  1.0479
13711TIP3   OH262547   1.292   5.324  10.949  0.2467 -0.3495 -0.2558
13711TIP3    H162548   1.248   5.381  10.886 -0.6916  0.9780  1.5285
13711TIP3    H262549   1.311   5.380  11.024  2.4172 -1.5883  0.2168
13712TIP3   OH262550   5.740   6.052   2.763  0.0841 -0.0265  0.3155
13712TIP3    H162551   5.743   6.019   2.852 -0.4378 -1.8224 -0.2777
13712TIP3    H262552   5.805   6.122   2.760  1.5968 -1.2976  1.5766
13713TIP3   OH262553   2.443   0.826  13.895 -0.6282 -0.0565  0.4975
13713TIP3    H162554   2.351   0.822  13.870 -1.6756 -0.9148  3.8847
13713TIP3    H262555   2.443   0.867  13.982  2.4885  2.1822 -0.3809
13714TIP3   OH262556   2.631   4.779  12.739 -0.1322 -0.7631 -0.2944
13714TIP3    H162557   2.629   4.821  12.825  0.8433 -0.0512 -0.5977
13714TIP3    H262558   2.721   4.790  12.710 -1.0942  1.9002 -2.7933
13715TIP3   OH262559   1.574   1.866   2.129 -0.3959  0.0585 -0.5462
13715TIP3    H162560   1.591   1.772   2.130  2.7776  0.4940  1.1183
13715TIP3    H262561   1.561   1.889   2.221  0.5960  1.4233 -0.7073
13716TIP3   OH262562   3.524   0.498  13.090 -0.9123 -0.3805 -0.0528
13716TIP3    H162563   3.593   0.512  13.155 -0.3293 -1.8641 -0.3065
13716TIP3    H262564   3.544   0.559  13.019 -0.7435  0.2634  0.5408
13717TIP3   OH262565   3.960   6.405   5.221 -0.2046 -0.0626 -0.2382
13717TIP3    H162566   3.944   6.319   5.258  0.0386 -0.4777 -1.0729
13717TIP3    H262567   3.892   6.461   5.258  0.2675 -0.3645  1.1327
13718TIP3   OH262568   5.747   2.723   0.773 -0.4407  0.2787  0.1022
13718TIP3    H162569   5.683   2.656   0.797 -1.0596 -0.4133 -3.0500
13718TIP3    H262570   5.696   2.788   0.724  1.0154  0.4287 -1.2626
13719TIP3   OH262571   4.487   6.767   2.309  0.1823 -0.2180 -0.0550
13719TIP3    H162572   4.395   6.753   2.287 -0.1766  0.4188  0.9714
13719TIP3    H262573   4.534   6.754   2.226 -0.9512  0.6565 -0.8693
13720TIP3   OH262574   5.833   0.349   0.325  0.5533  0.0284 -0.0518
13720TIP3    H162575   5.859   0.422   0.380  1.6990  0.4585 -1.1086
13720TIP3    H262576   5.769   0.385   0.264  0.5621 -0.0271 -0.0948
13721TIP3   OH262577   4.796   5.760   3.092 -0.7122  0.3108  0.0913
13721TIP3    H162578   4.757   5.674   3.084 -1.1948  0.5104  0.2612
13721TIP3    H262579   4.891   5.744   3.092 -0.8028 -0.2289  0.2803
13722TIP3   OH262580   1.441   4.266   6.424  0.1095 -0.3418  0.3817
13722TIP3    H162581   1.373   4.232   6.483 -0.2427  0.6899  0.5951
13722TIP3    H262582   1.522   4.259   6.474  0.0416 -0.8560  0.4231
13723TIP3   OH262583   4.176   5.999   2.631 -0.2915  0.3190  0.1908
13723TIP3    H162584   4.204   6.082   2.592  0.1255 -0.1394 -0.5262
13723TIP3    H262585   4.170   6.017   2.725  0.9380  0.8627  0.1916
13724TIP3   OH262586   4.531   4.320   2.432  0.6238  0.0793 -0.4086
13724TIP3    H162587   4.613   4.343   2.475  0.5939 -1.3438  0.4871
13724TIP3    H262588   4.554   4.247   2.375 -0.2370 -1.2712  0.8988
13725TIP3   OH262589   5.020   0.628  14.792 -0.4377 -0.8899 -0.0120
13725TIP3    H162590   4.948   0.629  14.855 -0.2253  0.3776  0.2361
13725TIP3    H262591   5.092   0.586  14.839 -0.7498 -1.3687  0.0420
13726TIP3   OH262592   5.101   0.665  13.540 -0.0213  0.5334 -0.0312
13726TIP3    H162593   5.149   0.617  13.473  1.2183  0.7370  0.6976
13726TIP3    H262594   5.144   0.750  13.544 -0.3948  0.6938  0.6994
13727TIP3   OH262595   0.417   3.384   5.159  0.3533 -0.0781  0.0859
13727TIP3    H162596   0.385   3.460   5.209  0.3630 -0.5864  0.8823
13727TIP3    H262597   0.405   3.310   5.218  4.8751 -0.1065  1.3300
13728TIP3   OH262598   5.213   4.702   5.811 -0.1470 -0.9128  0.0072
13728TIP3    H162599   5.248   4.785   5.843 -0.4495 -1.2318  1.2069
13728TIP3    H262600   5.290   4.654   5.779 -0.0395  0.0415 -1.2714
13729TIP3   OH262601   6.780   6.203   0.928  0.0284 -0.2752 -0.0485
13729TIP3    H162602   6.725   6.279   0.947  0.6576  0.0768  0.4307
13729TIP3    H262603   6.744   6.167   0.847 -1.1786 -0.3268  0.4884
13730TIP3   OH262604   5.631   0.279   4.032  0.3891 -0.7301 -0.4871
13730TIP3    H162605   5.703   0.229   4.071  0.2533 -0.1649  0.5298
13730TIP3    H262606   5.561   0.215   4.018  0.6949 -1.0736 -0.4687
13731TIP3   OH262607   5.307   4.021   5.760  0.2158 -0.1020  0.8138
13731TIP3    H162608   5.352   4.031   5.843 -0.3436 -1.2211  1.2815
13731TIP3    H262609   5.244   4.093   5.758  1.2156  0.7922  0.6718
13732TIP3   OH262610   4.637   4.474   5.071  0.2930 -0.2726  0.2806
13732TIP3    H162611   4.697   4.416   5.025 -0.4202  0.1469 -1.2353
13732TIP3    H262612   4.694   4.531   5.123  1.1380 -0.5655 -0.3049
13733TIP3   OH262613   1.516   6.120  11.761  0.1133 -0.2597  0.0065
13733TIP3    H162614   1.493   6.073  11.842 -0.1953 -1.0530 -0.5208
13733TIP3    H262615   1.557   6.201  11.791 -1.1650  0.0732  0.9823
13734TIP3   OH262616   3.729   0.020  12.341  0.1792  0.3484  0.0832
13734TIP3    H162617   3.778   0.064  12.272 -1.1612  3.2738  0.8588
13734TIP3    H262618   3.637   0.043  12.324 -0.2580  0.5680  2.3819
13735TIP3   OH262619   0.485   6.568  16.670  0.2859  0.4108  0.0759
13735TIP3    H162620   0.429   6.499  16.635 -1.1103  2.0003 -1.0435
13735TIP3    H262621   0.423   6.632  16.706  1.4717  1.5311  0.1890
13736TIP3   OH262622   4.255   0.563   3.413  0.4629 -0.1061  0.7416
13736TIP3    H162623   4.196   0.565   3.489  0.2142  0.4357  0.5340
13736TIP3    H262624   4.261   0.654   3.384  1.2436 -0.1838  0.6337
13737TIP3   OH262625   3.114   6.130  11.725  0.3388 -0.8906 -0.3993
13737TIP3    H162626   3.055   6.110  11.798 -1.2345 -3.5556 -2.2382
13737TIP3    H262627   3.202   6.112  11.760 -0.1099  0.4777  1.5776
13738TIP3   OH262628   4.688   6.559   5.981  0.1344 -0.3161  0.1217
13738TIP3    H162629   4.627   6.505   5.930  0.0419 -0.3335  0.2501
13738TIP3    H262630   4.766   6.567   5.925  0.3451 -1.0015  0.3055
13739TIP3   OH262631   2.972   1.085  17.243  0.0700  0.0021  0.2892
13739TIP3    H162632   2.953   1.118  17.155 -1.8470 -0.8201  0.3511
13739TIP3    H262633   2.934   1.150  17.302 -1.7587 -1.1284  0.4313
13740TIP3   OH262634   0.054   3.549  12.701  0.1270  0.1900 -0.0030
13740TIP3    H162635   0.094   3.463  12.693 -1.7670 -0.9153  1.5880
13740TIP3    H262636  -0.041   3.532  12.699 -0.3486  1.9210  2.5320
13741TIP3   OH262637   4.684   1.109  11.623  0.6549 -0.4752  0.0621
13741TIP3    H162638   4.614   1.047  11.644 -0.5998  1.0078  0.4163
13741TIP3    H262639   4.653   1.193  11.656  2.0648  0.4774 -0.9099
13742TIP3   OH262640   0.157   6.227   1.579  0.2221  0.1294 -0.0111
13742TIP3    H162641   0.103   6.304   1.593 -2.0461 -1.3017 -0.3557
13742TIP3    H262642   0.140   6.201   1.489  0.1410 -1.3331  0.3991
13743TIP3   OH262643   4.009   4.787  10.895 -0.3888 -0.6055  0.0285
13743TIP3    H162644   3.993   4.827  10.810  0.5351 -0.1212  0.0587
13743TIP3    H262645   3.965   4.845  10.958  0.8686  0.3765  0.0643
13744TIP3   OH262646   4.995   0.559  14.342  0.2471 -0.4741  0.3784
13744TIP3    H162647   4.947   0.492  14.294  0.8078 -0.2279 -0.5519
13744TIP3    H262648   4.928   0.621  14.372 -0.1239 -0.7124  0.0425
13745TIP3   OH262649   0.727   5.318   2.935  0.0994 -0.6255  0.5113
13745TIP3    H162650   0.821   5.323   2.954  0.0031  0.2085  0.8055
13745TIP3    H262651   0.721   5.255   2.863  0.7758 -1.4503  1.1545
13746TIP3   OH262652   0.124   5.137   1.448 -0.6972 -0.1066  0.1170
13746TIP3    H162653   0.184   5.068   1.476  0.1965  1.1062  1.3685
13746TIP3    H262654   0.087   5.171   1.529 -2.4399 -0.2339 -0.5860
13747TIP3   OH262655   5.254   2.479  12.068 -0.5375 -0.4971 -0.4076
13747TIP3    H162656   5.190   2.548  12.054 -1.0857 -0.5701  1.5186
13747TIP3    H262657   5.337   2.516  12.037 -1.0292  0.5934 -0.4394
13748TIP3   OH262658   4.204   5.296   2.711 -0.2301  0.2470 -0.5733
13748TIP3    H162659   4.138   5.259   2.768  0.6337 -1.2778 -0.5244
13748TIP3    H262660   4.156   5.360   2.658 -1.5688 -0.2380  0.0070
13749TIP3   OH262661   3.763   5.021   3.141 -0.4985 -0.0015 -0.0122
13749TIP3    H162662   3.807   5.001   3.058  0.2959 -0.2102  0.4465
13749TIP3    H262663   3.738   4.935   3.176  0.1331  0.0101  0.4753
13750TIP3   OH262664   2.308   3.289   2.154  0.0700 -0.0529  1.1299
13750TIP3    H162665   2.359   3.234   2.213  1.0075  0.1140  0.4971
13750TIP3    H262666   2.284   3.366   2.206  0.9700  0.1385  1.2673
13751TIP3   OH262667   1.093   4.185  11.588 -0.1975 -0.3225  0.1129
13751TIP3    H162668   1.037   4.238  11.531 -1.0936  0.6288  1.7853
13751TIP3    H262669   1.174   4.235  11.595 -0.9229  0.7191  1.4305
13752TIP3   OH262670   4.937   6.451   3.610  0.1144  0.1262  0.7042
13752TIP3    H162671   4.865   6.390   3.599 -0.7375  1.0584  0.9930
13752TIP3    H262672   4.969   6.467   3.521  1.0766 -1.5537  0.7065
13753TIP3   OH262673   4.121   5.020  11.191  0.2633  0.6162 -0.4034
13753TIP3    H162674   4.201   4.983  11.154  0.0621 -0.8361  0.5199
13753TIP3    H262675   4.050   4.972  11.148 -0.0681  1.0710 -0.3719
13754TIP3   OH262676   1.374   3.622  16.383 -0.1471 -0.4685  0.0505
13754TIP3    H162677   1.431   3.625  16.460  0.4060  1.3091 -0.3636
13754TIP3    H262678   1.306   3.687  16.400 -0.2112 -0.2942 -0.7961
13755TIP3   OH262679   2.415   0.783  15.803 -0.4139  0.1097  0.0671
13755TIP3    H162680   2.334   0.745  15.768 -0.7013  1.0931 -0.3788
13755TIP3    H262681   2.483   0.720  15.778 -1.2636 -1.8576  2.3414
13756TIP3   OH262682   4.098   4.581  14.936  0.0719 -0.2224  0.1074
13756TIP3    H162683   4.135   4.620  14.856  2.4486 -1.4004  0.5613
13756TIP3    H262684   4.078   4.656  14.992  0.4826  0.5248 -0.7136
13757TIP3   OH262685   4.993   0.702   2.640  0.2998  0.1393  0.0975
13757TIP3    H162686   4.942   0.784   2.646  2.0739  1.3070  0.0362
13757TIP3    H262687   4.999   0.671   2.730 -1.2185 -0.5160  0.0145
13758TIP3   OH262688   6.390   1.348   3.027 -0.0536  0.0652 -0.1871
13758TIP3    H162689   6.406   1.313   3.114  1.7361 -1.1728 -0.9628
13758TIP3    H262690   6.373   1.271   2.973  1.5159  0.5359 -1.4398
13759TIP3   OH262691   1.473   6.066  11.355 -0.4148 -0.3640  0.5907
13759TIP3    H162692   1.561   6.066  11.317 -0.3679 -1.4530  0.6555
13759TIP3    H262693   1.420   6.017  11.292 -0.7605 -0.5354  1.0091
13760TIP3   OH262694   1.062   6.427  14.730  0.2046  0.4815 -0.4083
13760TIP3    H162695   1.104   6.350  14.692 -3.2531 -3.1695  2.2962
13760TIP3    H262696   1.083   6.421  14.824 -1.0094  2.2468  0.0179
13761TIP3   OH262697   1.505   3.518   5.489  0.2489 -0.3029  0.3878
13761TIP3    H162698   1.530   3.492   5.578  2.1001  1.7471  0.5489
13761TIP3    H262699   1.580   3.491   5.435  0.8811  1.8031  0.1128
13762TIP3   OH262700   2.176   0.481   1.740  0.5218 -0.3814  0.4855
13762TIP3    H162701   2.132   0.518   1.664  0.4865 -0.5899  0.4044
13762TIP3    H262702   2.110   0.426   1.782  0.5539 -0.2995  0.6414
13763TIP3   OH262703   5.357   0.817  10.937 -0.0496 -0.1489  0.1729
13763TIP3    H162704   5.277   0.869  10.943  0.2328  0.2671  0.4516
13763TIP3    H262705   5.423   0.869  10.984  0.4921 -0.2682 -0.4369
13764TIP3   OH262706   6.125   3.343   5.696  0.3224 -0.2975  0.0670
13764TIP3    H162707   6.040   3.299   5.709 -0.7424  2.2929  3.0354
13764TIP3    H262708   6.179   3.313   5.769  1.4017 -0.5431 -0.8044
13765TIP3   OH262709   1.789   0.652  14.207 -0.5145  0.1478  0.4208
13765TIP3    H162710   1.850   0.711  14.252  0.5383 -1.0311  0.5855
13765TIP3    H262711   1.755   0.705  14.135  0.5880  0.9058  0.4213
13766TIP3   OH262712   4.890   0.370   5.240  0.8087 -0.1860 -0.5242
13766TIP3    H162713   4.910   0.281   5.270 -0.0232 -0.5858 -1.1405
13766TIP3    H262714   4.859   0.415   5.319  0.8481 -0.5549 -0.2942
13767TIP3   OH262715   3.649   2.831   4.448  0.3959 -0.2360  0.6508
13767TIP3    H162716   3.565   2.800   4.482 -1.0658  0.1613 -2.3290
13767TIP3    H262717   3.696   2.751   4.424 -0.4419 -0.3851 -0.5364
13768TIP3   OH262718   4.451   1.426   2.194  0.2628 -0.9263  0.6012
13768TIP3    H162719   4.420   1.386   2.113  0.7235 -2.1389  0.9937
13768TIP3    H262720   4.469   1.352   2.252 -0.1025 -0.0886  1.8309
13769TIP3   OH262721   2.411   1.958  17.221  0.2680  0.1546 -0.2626
13769TIP3    H162722   2.371   1.873  17.203 -0.5669  0.8998 -2.1264
13769TIP3    H262723   2.339   2.013  17.252  0.6879  0.3463  0.3931
13770TIP3   OH262724   2.959   1.213   2.635  0.3671  0.3623 -0.1660
13770TIP3    H162725   2.925   1.273   2.702  1.2778  0.2933  0.3798
13770TIP3    H262726   2.979   1.269   2.560  0.2561  0.5916 -0.0263
13771TIP3   OH262727   5.579   1.746  16.170 -0.0462  0.1397 -0.8234
13771TIP3    H162728   5.491   1.713  16.154 -0.5977  1.1684 -0.0295
13771TIP3    H262729   5.569   1.808  16.243  1.3334  0.2556 -0.6976
13772TIP3   OH262730   5.568   3.944   6.316 -0.2570  0.5143  0.2673
13772TIP3    H162731   5.583   4.038   6.312 -0.1346  0.5050  0.4709
13772TIP3    H262732   5.614   3.916   6.395 -0.4048  0.3041  0.2802
13773TIP3   OH262733   1.382   3.371  12.791  0.4705 -0.0002 -0.3855
13773TIP3    H162734   1.464   3.331  12.820  0.0319 -0.3658  0.3906
13773TIP3    H262735   1.343   3.305  12.733 -1.7247 -2.2458  3.2282
13774TIP3   OH262736   1.524   2.228   2.379  0.7579 -0.0753  0.3860
13774TIP3    H162737   1.446   2.273   2.348  0.0137 -2.0523 -0.7918
13774TIP3    H262738   1.587   2.237   2.307  1.6751  1.5532  1.3497
13775TIP3   OH262739   5.691   4.908  13.505  0.0720  0.0163 -0.1786
13775TIP3    H162740   5.781   4.941  13.510  0.9528 -2.2961  0.7937
13775TIP3    H262741   5.688   4.837  13.569 -1.8726 -1.2693 -1.5729
13776TIP3   OH262742   0.721   5.135  14.011  0.1306  0.4593 -0.2069
13776TIP3    H162743   0.728   5.189  13.933 -1.5258 -0.4552 -1.0313
13776TIP3    H262744   0.670   5.059  13.984 -0.3758  0.0457  1.7251
13777TIP3   OH262745   4.710   0.530  17.065  0.3925  0.1782  0.1903
13777TIP3    H162746   4.753   0.507  16.983 -0.3469  0.2215 -0.2208
13777TIP3    H262747   4.646   0.460  17.079  0.9247 -0.1493  1.0433
13778TIP3   OH262748   5.561   1.252   0.617  0.0538  0.0411 -0.2844
13778TIP3    H162749   5.552   1.346   0.599 -0.7330 -0.1633 -1.0442
13778TIP3    H262750   5.577   1.247   0.711  0.4230  0.9514 -0.2856
13779TIP3   OH262751   5.157   6.410  12.953 -0.2409  0.6534  0.1488
13779TIP3    H162752   5.165   6.425  12.859  0.4194 -0.4828  0.0032
13779TIP3    H262753   5.072   6.447  12.976  0.0042  1.8159 -0.6970
13780TIP3   OH262754   1.038   1.422   5.481  0.4169 -0.1249 -0.3736
13780TIP3    H162755   1.095   1.400   5.408  2.5904 -1.2665  1.5234
13780TIP3    H262756   1.095   1.469   5.542  0.1327 -3.3001  2.6610
13781TIP3   OH262757   5.352   0.441   6.488 -0.0211 -0.1556  0.0618
13781TIP3    H162758   5.338   0.358   6.533  3.3777 -0.9083 -0.0427
13781TIP3    H262759   5.350   0.507   6.558  2.9251 -1.0589  1.1398
13782TIP3   OH262760   5.724   6.134  14.952  0.2591 -0.1038 -0.3085
13782TIP3    H162761   5.634   6.158  14.929  0.4040  1.3546  0.5200
13782TIP3    H262762   5.772   6.141  14.869 -0.2040  0.0710 -0.5655
13783TIP3   OH262763   0.734   1.005  10.748  0.1770 -0.5252  0.1087
13783TIP3    H162764   0.708   0.951  10.823  0.9275  0.5279  1.1582
13783TIP3    H262765   0.683   1.086  10.757  2.5301  0.9291  1.3276
13784TIP3   OH262766   5.118   0.963   5.619  0.0402 -0.0281  0.1372
13784TIP3    H162767   5.085   0.904   5.687 -2.5687  0.2045 -0.7859
13784TIP3    H262768   5.142   0.905   5.547  0.8981 -0.1472  0.5075
13785TIP3   OH262769   6.088   0.789   1.861  0.1224  0.4645 -0.3880
13785TIP3    H162770   6.094   0.885   1.860 -0.4575  0.5776  1.5473
13785TIP3    H262771   6.025   0.770   1.931 -0.8682 -1.3119 -1.7032
13786TIP3   OH262772   1.872   0.172  12.982 -0.9988  0.3025 -0.2193
13786TIP3    H162773   1.893   0.095  12.928 -2.2541 -0.2578  0.0583
13786TIP3    H262774   1.835   0.235  12.920  0.7497  1.0172 -0.5845
13787TIP3   OH262775   0.236   4.620   0.699 -0.3692 -0.3103 -0.0304
13787TIP3    H162776   0.295   4.626   0.624  0.6488  1.6235  0.8517
13787TIP3    H262777   0.268   4.545   0.749  0.2946 -0.2986 -0.4313
13788TIP3   OH262778   3.650   4.348   5.199  0.2518 -0.0622  0.0412
13788TIP3    H162779   3.647   4.366   5.293 -0.2966  0.3082 -0.0426
13788TIP3    H262780   3.655   4.253   5.192  1.1327 -0.0572  0.4572
13789TIP3   OH262781   2.855   4.355   2.208 -0.1626  0.0536 -0.7719
13789TIP3    H162782   2.875   4.440   2.248  0.9102  0.1925 -1.5627
13789TIP3    H262783   2.922   4.296   2.244 -0.4547 -0.2971 -0.7965
13790TIP3   OH262784   6.745   3.403   3.423 -0.3150 -0.1616  0.5032
13790TIP3    H162785   6.811   3.453   3.470  0.1430 -0.1245 -0.1712
13790TIP3    H262786   6.770   3.409   3.331  1.1148 -3.5317  0.5455
13791TIP3   OH262787   1.014   1.878  14.657  0.1207 -0.6041  0.1966
13791TIP3    H162788   0.955   1.931  14.712 -0.0176  0.7495 -1.1916
13791TIP3    H262789   0.957   1.810  14.620  0.0241 -0.9634  0.9852
13792TIP3   OH262790   1.067   3.491   0.385 -0.1927 -0.1969 -0.4436
13792TIP3    H162791   1.085   3.403   0.349 -0.4834 -0.7747  0.7830
13792TIP3    H262792   1.140   3.544   0.352 -1.1926 -0.3066 -3.0953
13793TIP3   OH262793   3.275   1.535  13.237  0.2851 -0.4794  0.3421
13793TIP3    H162794   3.189   1.506  13.269 -0.4011  1.2843  0.1914
13793TIP3    H262795   3.274   1.630  13.248  1.7172 -0.2842 -0.8920
13794TIP3   OH262796   6.776   2.705   3.522  0.0941 -0.1594  0.4367
13794TIP3    H162797   6.711   2.647   3.560  0.6325 -0.5085  0.8291
13794TIP3    H262798   6.727   2.783   3.497 -1.0364 -1.5214 -1.9259
13795TIP3   OH262799   4.828   5.121   1.620 -0.0637  0.0049  1.0250
13795TIP3    H162800   4.829   5.173   1.539 -0.8346  0.5152  1.3296
13795TIP3    H262801   4.783   5.040   1.595 -1.6127  0.7474  1.2549
13796TIP3   OH262802   6.453   6.679  14.101 -0.2168 -0.4897  0.9822
13796TIP3    H162803   6.410   6.657  14.018  1.8137 -2.9797  0.4783
13796TIP3    H262804   6.507   6.755  14.081  0.6754 -1.3920 -0.2019
13797TIP3   OH262805   4.158   6.005  12.061 -0.2765 -0.1213  0.0332
13797TIP3    H162806   4.154   6.068  11.989 -1.2113  0.8499  0.8824
13797TIP3    H262807   4.238   5.955  12.046  0.6539  1.4600 -0.5278
13798TIP3   OH262808   5.915   2.389   0.734  0.4943  0.0146 -0.9691
13798TIP3    H162809   5.846   2.427   0.679 -1.6814  0.1105  1.5808
13798TIP3    H262810   5.867   2.347   0.806  3.0852  2.1083  2.2765
13799TIP3   OH262811   1.696   6.746  13.897 -0.8971  0.2447  0.5161
13799TIP3    H162812   1.752   6.798  13.838 -0.2298 -0.3765  0.5908
13799TIP3    H262813   1.652   6.684  13.839 -1.1978  0.4548  0.5152
13800TIP3   OH262814   3.838   3.197   1.606 -0.2951 -0.3289  0.1184
13800TIP3    H162815   3.903   3.254   1.645  0.9224  1.1077 -3.5934
13800TIP3    H262816   3.887   3.120   1.577 -0.9123 -0.7709  0.2054
13801TIP3   OH262817   0.851   0.495  11.255 -0.4356 -0.1799 -0.2768
13801TIP3    H162818   0.882   0.586  11.258  0.6956 -0.3789 -3.1219
13801TIP3    H262819   0.790   0.493  11.182 -1.6469 -1.4287  0.7198
13802TIP3   OH262820   5.846   4.702  14.455  0.1664  0.2481  0.4504
13802TIP3    H162821   5.790   4.774  14.426 -2.2532 -1.3102  0.9110
13802TIP3    H262822   5.850   4.710  14.550 -1.6628 -1.1341  0.7183
13803TIP3   OH262823   4.586   0.080   1.884  0.0934  0.2638 -0.1368
13803TIP3    H162824   4.591   0.009   1.947 -0.0791 -0.4394 -0.8896
13803TIP3    H262825   4.581   0.036   1.799 -1.1765  1.1554 -0.5517
13804TIP3   OH262826   2.411   1.346   4.798  0.2930  0.4407  0.1331
13804TIP3    H162827   2.439   1.403   4.727  1.5066  1.5893  1.4607
13804TIP3    H262828   2.373   1.404   4.863 -1.1960 -0.6330  0.2706
13805TIP3   OH262829   2.932   5.861   1.327 -0.0376  0.0319  0.2420
13805TIP3    H162830   2.926   5.947   1.284  1.0341 -0.1231 -0.2295
13805TIP3    H262831   3.022   5.855   1.358 -0.2228 -0.7491  0.6701
13806TIP3   OH262832   3.058   2.973  14.302  0.0296 -0.1380 -0.1268
13806TIP3    H162833   3.145   3.010  14.319 -1.6969  3.1844  2.7307
13806TIP3    H262834   3.031   3.015  14.220  1.1847 -1.5090 -1.2582
13807TIP3   OH262835   2.263   2.079  12.939 -0.0501  0.1172 -0.2941
13807TIP3    H162836   2.308   2.160  12.913  1.0455  0.3197  2.0515
13807TIP3    H262837   2.334   2.019  12.964 -0.9606 -0.0528  2.1112
13808TIP3   OH262838   2.531   2.325   5.463 -0.2983  0.0048 -0.7697
13808TIP3    H162839   2.526   2.244   5.412 -1.0290 -0.5816  0.1925
13808TIP3    H262840   2.564   2.390   5.402  1.8403 -1.3507 -1.1854
13809TIP3   OH262841   3.594   0.991  11.200 -0.0141  0.1970 -0.2317
13809TIP3    H162842   3.652   0.996  11.125  1.2769 -0.1033  0.7178
13809TIP3    H262843   3.535   1.066  11.190  1.9300  1.8051 -0.1145
13810TIP3   OH262844   5.467   4.250   3.142 -0.4098 -0.4022  0.0391
13810TIP3    H162845   5.494   4.306   3.069 -3.1242  1.5957  0.4245
13810TIP3    H262846   5.546   4.239   3.194  0.5703  1.9285 -0.8086
13811TIP3   OH262847   5.633   3.162   0.335  0.3399  0.1873 -0.2948
13811TIP3    H162848   5.670   3.140   0.250 -2.6623 -0.8135 -1.4727
13811TIP3    H262849   5.542   3.130   0.331 -0.5043  1.8469  2.5659
13812TIP3   OH262850   0.007   4.639   3.987  0.0678 -0.0570 -0.0861
13812TIP3    H162851  -0.010   4.570   4.052 -0.3645  0.3057  0.1997
13812TIP3    H262852  -0.028   4.718   4.028  0.7942  0.3797 -0.3004
13813TIP3   OH262853   5.940   6.322   6.127 -0.1002 -0.0589 -0.1951
13813TIP3    H162854   5.915   6.306   6.037  1.2591 -0.3406 -0.5558
13813TIP3    H262855   5.866   6.291   6.179 -2.2304  2.8785 -1.2339
13814TIP3   OH262856   6.319   4.227   2.749 -0.7796  0.0599 -0.2525
13814TIP3    H162857   6.356   4.253   2.665 -0.7118  1.6567  0.2378
13814TIP3    H262858   6.380   4.262   2.815 -2.2193  1.2847  0.5148
13815TIP3   OH262859   3.186   1.422  12.556 -0.0246  0.0364  0.1529
13815TIP3    H162860   3.244   1.418  12.633 -0.7754  0.6292  0.7677
13815TIP3    H262861   3.140   1.338  12.557 -3.1892  1.5600  2.9397
13816TIP3   OH262862   5.236   1.152  11.509  0.1942 -0.1438  0.2948
13816TIP3    H162863   5.186   1.202  11.574 -0.3008 -2.2531  1.6034
13816TIP3    H262864   5.208   1.189  11.425 -0.9261  1.0693  1.1591
13817TIP3   OH262865   3.992   5.615  11.894 -0.2926 -0.5147  0.1564
13817TIP3    H162866   3.949   5.693  11.860 -0.0322 -0.0296  0.9087
13817TIP3    H262867   4.047   5.584  11.822 -2.6013 -1.7288 -1.1794
13818TIP3   OH262868   0.294   4.150   3.096  0.3816 -0.2725  0.1209
13818TIP3    H162869   0.311   4.073   3.042 -0.3629  0.7427 -1.6522
13818TIP3    H262870   0.297   4.223   3.034  0.7760  1.1044  1.7055
13819TIP3   OH262871   6.738   5.490   0.796 -0.1933 -0.0371 -0.3406
13819TIP3    H162872   6.703   5.569   0.755  0.2309  1.0428  1.2912
13819TIP3    H262873   6.833   5.495   0.783 -0.1571 -0.2429 -0.1796
13820TIP3   OH262874   6.569   0.015   0.170  0.2770  0.7486 -0.3049
13820TIP3    H162875   6.491   0.026   0.224  0.6111  0.1729  0.3042
13820TIP3    H262876   6.559  -0.072   0.131  0.3784  0.8746 -0.6126
13821TIP3   OH262877   2.667   6.382  11.283 -0.4970  0.0815 -0.4580
13821TIP3    H162878   2.702   6.471  11.292 -0.4752 -0.0162  0.5970
13821TIP3    H262879   2.743   6.325  11.299 -0.5377 -0.1270 -1.0072
13822TIP3   OH262880   2.308   2.868  13.479  0.0422  0.5026 -0.0673
13822TIP3    H162881   2.237   2.806  13.497  1.8813 -1.5630  0.4982
13822TIP3    H262882   2.325   2.859  13.385  1.7641 -1.6369  0.3703
13823TIP3   OH262883   0.197   5.346   4.426  0.0864 -0.3302  0.4158
13823TIP3    H162884   0.141   5.415   4.390 -1.7922 -0.2569  3.1162
13823TIP3    H262885   0.168   5.266   4.381 -2.1287 -0.2451  1.5268
13824TIP3   OH262886   4.496   2.165   2.908  0.0216 -0.7622  0.5003
13824TIP3    H162887   4.466   2.252   2.935 -0.0126 -0.9182  0.9810
13824TIP3    H262888   4.588   2.177   2.887 -0.1018 -0.5096  0.0882
13825TIP3   OH262889   4.753   0.339  16.546 -0.4605 -0.0097 -0.3058
13825TIP3    H162890   4.778   0.386  16.467 -1.3128  2.5578  0.8561
13825TIP3    H262891   4.661   0.315  16.533 -0.5453  0.2443 -0.1851
13826TIP3   OH262892   6.543   1.884  16.331  0.5236  0.0383  0.1416
13826TIP3    H162893   6.544   1.964  16.279 -0.1450 -1.1318 -1.7898
13826TIP3    H262894   6.633   1.851  16.328  0.8023  0.6957  0.9558
13827TIP3   OH262895   6.107   3.736  12.354 -0.5007 -0.2247  0.5859
13827TIP3    H162896   6.019   3.700  12.341  0.0329 -0.8770 -1.7488
13827TIP3    H262897   6.162   3.659  12.371 -0.1655  0.0286  0.6628
13828TIP3   OH262898   6.037   0.499  17.216  0.4872 -0.0384 -0.0335
13828TIP3    H162899   6.109   0.471  17.160  1.0086  1.5620 -0.2185
13828TIP3    H262900   6.074   0.570  17.269 -0.8660  0.6010  0.0950
13829TIP3   OH262901   3.828   2.037   4.348  0.3130  0.0042  0.6303
13829TIP3    H162902   3.857   2.100   4.414  0.8020 -1.3759  1.7745
13829TIP3    H262903   3.739   2.014   4.375  0.2097  0.0336  0.3242
13830TIP3   OH262904   2.070   4.811   0.313 -0.4690 -0.3167 -0.0325
13830TIP3    H162905   1.978   4.812   0.340 -0.5613  1.4377 -0.2936
13830TIP3    H262906   2.067   4.818   0.218 -0.0618  0.5085  0.0084
13831TIP3   OH262907   6.438   3.226   0.760 -0.5318  0.0142  0.0220
13831TIP3    H162908   6.477   3.138   0.760 -1.2231 -0.2943  0.3404
13831TIP3    H262909   6.432   3.249   0.668  2.6594  1.0967 -0.0570
13832TIP3   OH262910   1.164   3.322  12.360  0.1132 -0.0814  0.3965
13832TIP3    H162911   1.146   3.251  12.299 -1.2937  0.4934  0.0994
13832TIP3    H262912   1.081   3.336  12.405  0.8301  0.2659  1.6410
13833TIP3   OH262913   0.595   1.238   2.978 -0.0959  0.0484 -0.3825
13833TIP3    H162914   0.687   1.231   3.002 -0.0042  0.4650 -0.6161
13833TIP3    H262915   0.571   1.328   3.000 -0.4350 -0.0447 -0.3639
13834TIP3   OH262916   4.814   2.183  13.518  0.4712  0.4572 -0.1493
13834TIP3    H162917   4.868   2.105  13.503  1.7868  1.3729 -0.3336
13834TIP3    H262918   4.744   2.177  13.453  0.5299 -0.5755 -0.1354
13835TIP3   OH262919   1.269   3.744   1.908 -0.0098  0.6127  0.3408
13835TIP3    H162920   1.263   3.657   1.869 -0.3961  0.6763  0.2503
13835TIP3    H262921   1.352   3.743   1.956  0.3364  0.4465 -0.2593
13836TIP3   OH262922   1.138   3.011   0.506  0.0563  0.6354 -0.0008
13836TIP3    H162923   1.224   2.992   0.544 -1.1374 -1.8545  1.6853
13836TIP3    H262924   1.114   3.096   0.543  0.5078 -0.0496  1.9842
13837TIP3   OH262925   1.080   6.030   4.161  0.3930 -0.0910  0.4019
13837TIP3    H162926   1.065   6.008   4.069 -0.6300  0.7344  0.3572
13837TIP3    H262927   1.172   6.058   4.164  1.1740 -2.3755  0.1035
13838TIP3   OH262928   1.704   5.413   6.044  0.0785  0.9071  0.1858
13838TIP3    H162929   1.730   5.505   6.048  2.1213  0.3413  2.0360
13838TIP3    H262930   1.717   5.380   6.134  0.5600 -1.4623 -0.6665
13839TIP3   OH262931   6.106   2.574  15.320 -0.1552 -0.3088 -0.1426
13839TIP3    H162932   6.150   2.566  15.235 -0.3043 -0.7637 -0.1801
13839TIP3    H262933   6.038   2.507  15.318 -1.3637  0.8942 -0.4047
13840TIP3   OH262934   1.285   6.408  13.756  0.9904  0.5041 -0.0767
13840TIP3    H162935   1.233   6.454  13.821 -0.3181 -1.4850  0.3570
13840TIP3    H262936   1.367   6.387  13.801  0.2135 -0.5940  0.8630
13841TIP3   OH262937   1.279   6.154  16.945  0.4802  0.2998  0.2106
13841TIP3    H162938   1.221   6.213  16.896 -0.0842 -0.3224  0.1103
13841TIP3    H262939   1.247   6.066  16.923  0.9729 -0.0219  0.7708
13842TIP3   OH262940   3.029   2.132  12.463  0.1852 -0.0370  0.3801
13842TIP3    H162941   3.066   2.198  12.404 -0.3297  1.9269  2.1368
13842TIP3    H262942   3.078   2.052  12.444  0.6918  0.7708 -1.9815
13843TIP3   OH262943   1.572   1.139  11.164 -0.0150 -0.5015  0.4684
13843TIP3    H162944   1.501   1.092  11.122  1.4092 -2.7617  0.4287
13843TIP3    H262945   1.644   1.136  11.101  1.5441 -2.2999  2.1771
13844TIP3   OH262946   4.338   1.779   0.885  0.5188  0.2148 -0.2550
13844TIP3    H162947   4.431   1.779   0.863  0.7679  0.7128  0.7583
13844TIP3    H262948   4.335   1.774   0.980 -0.4879  0.5989 -0.2481
13845TIP3   OH262949   5.946   4.771   2.688 -0.7575  0.2953 -0.0443
13845TIP3    H162950   5.858   4.738   2.669  0.2887 -2.5079 -0.4496
13845TIP3    H262951   5.937   4.866   2.682 -3.7654  0.1174  0.0360
13846TIP3   OH262952   4.156   4.861  16.086 -0.0575  0.1235 -0.2319
13846TIP3    H162953   4.152   4.766  16.075 -0.1826  0.1281 -0.2308
13846TIP3    H262954   4.240   4.877  16.128  0.1747  0.0558 -0.6659
13847TIP3   OH262955   0.888   5.043  15.804 -0.1240  0.5624  0.1163
13847TIP3    H162956   0.934   4.982  15.747  0.9530  1.6805 -0.2674
13847TIP3    H262957   0.829   4.989  15.856  0.5491 -0.7408 -0.4449
13848TIP3   OH262958   0.889   3.045   1.696 -0.7013 -0.2895 -0.2604
13848TIP3    H162959   0.798   3.073   1.682 -0.4857  0.6950  0.2280
13848TIP3    H262960   0.923   3.029   1.607 -0.8126  1.1202 -0.5807
13849TIP3   OH262961   0.387   4.861   1.897  0.4166  0.0373  0.0895
13849TIP3    H162962   0.364   4.873   1.805 -0.2142  2.7830  0.5289
13849TIP3    H262963   0.481   4.874   1.901  0.3636  0.4616 -0.0784
13850TIP3   OH262964   3.768   5.412  12.493 -0.7989 -0.6063 -0.3863
13850TIP3    H162965   3.675   5.435  12.491 -0.6540  0.6872  2.5736
13850TIP3    H262966   3.812   5.487  12.454 -0.8169  0.8490  2.1864
13851TIP3   OH262967   4.236   4.630  12.250  0.4077 -0.0922  0.1547
13851TIP3    H162968   4.322   4.588  12.256  0.2087 -0.3150  2.9824
13851TIP3    H262969   4.252   4.721  12.275  0.0132  0.1764 -0.5563
13852TIP3   OH262970   3.067   0.525  11.511  0.2355 -0.1865 -0.5756
13852TIP3    H162971   2.986   0.497  11.469  0.0824  0.0164 -0.4145
13852TIP3    H262972   3.106   0.444  11.545 -0.3264 -0.1825  0.1067
13853TIP3   OH262973   0.395   6.353   0.106 -0.5890 -0.0338 -0.4555
13853TIP3    H162974   0.488   6.330   0.105 -0.2977  0.9581  0.8345
13853TIP3    H262975   0.392   6.442   0.073 -0.8429  0.5936  1.1789
13854TIP3   OH262976   3.607   3.926  14.828  0.3395  0.3182  0.0583
13854TIP3    H162977   3.584   3.998  14.770 -0.5502  0.1896  0.2441
13854TIP3    H262978   3.538   3.924  14.893  0.3214 -0.7380  0.0293
13855TIP3   OH262979   0.598   5.918   5.582 -0.4037 -0.3419  0.6537
13855TIP3    H162980   0.552   5.906   5.665 -0.2056  3.8010  1.5672
13855TIP3    H262981   0.685   5.948   5.606  0.5320 -1.4848 -1.0997
13856TIP3   OH262982   6.479   1.744  13.562 -0.5183 -0.3688 -0.0594
13856TIP3    H162983   6.389   1.749  13.531 -0.8137  0.9604  0.9343
13856TIP3    H262984   6.472   1.706  13.650 -0.0663 -0.6137 -0.1241
13857TIP3   OH262985   4.567   1.662  12.474 -0.1329 -0.5565 -0.2762
13857TIP3    H162986   4.496   1.681  12.412 -0.4886 -3.0003 -0.7473
13857TIP3    H262987   4.529   1.678  12.560 -0.6630 -0.1289 -0.5810
13858TIP3   OH262988   1.971   1.246   1.626  0.1117  0.3910  0.0014
13858TIP3    H162989   2.036   1.215   1.563 -0.1666 -0.4346  0.1107
13858TIP3    H262990   1.888   1.243   1.578 -0.2218 -0.9554  0.5958
13859TIP3   OH262991   3.121   5.351  16.150 -0.3829  0.5163 -0.0309
13859TIP3    H162992   3.111   5.389  16.237 -0.8334  2.7211 -0.9808
13859TIP3    H262993   3.132   5.426  16.092 -2.7124 -0.6966 -2.2438
13860TIP3   OH262994   5.815   3.895   2.978  0.3275 -0.6419 -0.0908
13860TIP3    H162995   5.887   3.897   2.915 -0.0008  1.4090 -0.4644
13860TIP3    H262996   5.738   3.877   2.925  0.5629 -3.6480  0.4086
13861TIP3   OH262997   2.172   5.207  16.821  0.0345  0.0602  0.2225
13861TIP3    H162998   2.111   5.226  16.892 -0.2168  2.0723 -0.4791
13861TIP3    H262999   2.119   5.209  16.741  1.0562  2.7242 -0.4925
13862TIP3   OH263000   1.618   2.767  11.054 -0.0654  0.0121 -0.2231
13862TIP3    H163001   1.695   2.799  11.101 -0.8160  0.4400  0.7546
13862TIP3    H263002   1.600   2.834  10.988 -0.1811  0.4143  0.2081
13863TIP3   OH263003   3.191   3.905   3.518  0.3161 -0.3095  0.2820
13863TIP3    H163004   3.267   3.923   3.463  1.6100  0.5196  2.2328
13863TIP3    H263005   3.213   3.824   3.563  0.4434  0.3691  1.4770
13864TIP3   OH263006   1.431   2.522  13.680  0.0410  0.2964 -0.1868
13864TIP3    H163007   1.448   2.556  13.592  0.8220 -1.5020 -0.7881
13864TIP3    H263008   1.462   2.432  13.677  1.8922  0.7277  2.5175
13865TIP3   OH263009   5.872   0.833  14.620 -0.0305  0.0263 -0.0521
13865TIP3    H163010   5.779   0.832  14.599  0.4014 -2.3723 -2.4557
13865TIP3    H263011   5.911   0.890  14.552  0.3662  0.2149  0.3283
13866TIP3   OH263012   4.607   4.672   0.094 -0.1271 -1.1386  0.1354
13866TIP3    H163013   4.570   4.704   0.012  1.8651 -2.3186 -1.3222
13866TIP3    H263014   4.574   4.732   0.161 -1.5112  0.0810 -1.5525
13867TIP3   OH263015   0.968   5.134   3.509  0.8431 -0.6100  1.0211
13867TIP3    H163016   1.019   5.215   3.513  1.0031 -0.6026 -0.7162
13867TIP3    H263017   1.033   5.064   3.504  0.6904 -0.7174  0.5300
13868TIP3   OH263018   2.474   6.474   0.329  0.2162 -0.3934 -0.4192
13868TIP3    H163019   2.383   6.444   0.337 -0.6202  2.3146  2.6764
13868TIP3    H263020   2.470   6.543   0.264  0.0757 -0.3720 -0.3899
13869TIP3   OH263021   5.491   4.091  16.511  0.0859 -0.1766 -0.2009
13869TIP3    H163022   5.463   4.009  16.469  0.5757 -0.3978 -0.1001
13869TIP3    H263023   5.421   4.112  16.572 -1.8442  1.3932 -2.7391
13870TIP3   OH263024   1.112   6.371  16.897 -0.0437 -0.5851 -0.0721
13870TIP3    H163025   1.025   6.332  16.891 -0.0447 -0.6056  0.0809
13870TIP3    H263026   1.109   6.427  16.974 -0.4013  0.6451 -0.9457
13871TIP3   OH263027   3.372   5.542   5.941  0.4131  0.1410 -1.3529
13871TIP3    H163028   3.367   5.589   6.024  1.1973 -0.8925 -0.6940
13871TIP3    H263029   3.436   5.592   5.890  1.0753 -0.0698 -0.7457
13872TIP3   OH263030   0.551   0.034  11.463  0.1000 -0.0194  0.2483
13872TIP3    H163031   0.474   0.026  11.520 -0.6971  0.1531 -0.7687
13872TIP3    H263032   0.527  -0.013  11.383  1.6960 -1.3674  0.5186
13873TIP3   OH263033   4.040   4.990   4.510  0.2118  0.1568 -0.6979
13873TIP3    H163034   3.954   4.971   4.550  1.2471 -1.7427  0.8335
13873TIP3    H263035   4.097   5.006   4.585  1.0965  2.0623 -1.7281
13874TIP3   OH263036   5.193   0.656  14.131  0.0375  0.6090 -0.1126
13874TIP3    H163037   5.159   0.567  14.130  1.0086  0.2221 -1.3552
13874TIP3    H263038   5.181   0.685  14.222  0.2626 -1.0088  0.4690
13875TIP3   OH263039   6.490   4.011  16.708  0.3589 -0.4969  0.1120
13875TIP3    H163040   6.504   4.051  16.794 -0.0821  0.0050 -0.0427
13875TIP3    H263041   6.421   3.947  16.723 -0.8640  0.6976 -0.1625
13876TIP3   OH263042   6.372   6.029  16.379  0.1460  0.3905  0.4355
13876TIP3    H163043   6.432   5.964  16.417 -0.3106  0.6802  1.7080
13876TIP3    H263044   6.405   6.043  16.290  0.8519 -0.8265  0.4871
13877TIP3   OH263045   1.582   2.901  17.100  0.7877  0.0149  0.3218
13877TIP3    H163046   1.499   2.928  17.061  0.3053  0.1229  1.3961
13877TIP3    H263047   1.560   2.875  17.189  1.5664 -2.0604 -0.0426
13878TIP3   OH263048   1.020   1.542   2.606  0.0519 -0.5599 -0.0967
13878TIP3    H163049   0.995   1.455   2.636 -2.6245  1.1593  3.3595
13878TIP3    H263050   0.946   1.572   2.554  0.3068  0.1935 -0.0433
13879TIP3   OH263051   0.919   2.330  12.339  0.2086  0.5720 -0.1943
13879TIP3    H163052   0.941   2.248  12.384 -1.4729  0.5845  0.7501
13879TIP3    H263053   0.983   2.337  12.268  1.4961 -0.6449  0.7829
13880TIP3   OH263054   2.797   2.267   5.216 -0.0403  0.0867 -0.0731
13880TIP3    H163055   2.790   2.314   5.133  2.8195 -0.2055 -0.5811
13880TIP3    H263056   2.784   2.175   5.192 -2.3190  0.2359  0.3825
13881TIP3   OH263057   4.949   0.042  11.633 -0.1259  0.4347 -0.4871
13881TIP3    H163058   4.992   0.127  11.633  0.9601 -0.1034 -1.0105
13881TIP3    H263059   5.019  -0.021  11.621 -0.3048 -0.8849  3.6982
13882TIP3   OH263060   6.565   6.670  13.264 -0.7686 -0.0328  0.1361
13882TIP3    H163061   6.593   6.690  13.175 -1.0213  2.3025  0.5030
13882TIP3    H263062   6.602   6.584  13.283 -0.9014 -0.6795 -2.2762
13883TIP3   OH263063   6.710   6.181  16.115  0.7224 -0.5557 -0.1493
13883TIP3    H163064   6.740   6.194  16.204  2.7710 -3.3758 -0.3023
13883TIP3    H263065   6.745   6.096  16.089  0.4573  0.2296 -3.7442
13884TIP3   OH263066   2.286   4.197  16.536  0.5845 -0.0149 -0.1806
13884TIP3    H163067   2.322   4.111  16.558  0.8244 -0.0006 -0.5072
13884TIP3    H263068   2.256   4.188  16.446 -0.7998 -0.2044  0.2756
13885TIP3   OH263069   0.859   3.931   3.081  0.0182  0.3803  0.0203
13885TIP3    H163070   0.924   3.991   3.117 -0.1098  0.4018  0.2153
13885TIP3    H263071   0.801   3.986   3.029 -0.5807  0.5600  0.8513
13886TIP3   OH263072   4.157   5.478   4.017  0.2464 -0.0750  0.6305
13886TIP3    H163073   4.244   5.438   4.021  0.5425  0.6347  1.6879
13886TIP3    H263074   4.110   5.426   3.952  2.2402  1.0662 -1.8701
13887TIP3   OH263075   2.755   3.578  17.126 -0.9115  0.0719  0.2876
13887TIP3    H163076   2.685   3.623  17.078 -0.9588  0.3248  0.5958
13887TIP3    H263077   2.711   3.535  17.199 -1.0654 -1.5413 -0.6927
13888TIP3   OH263078   4.947   5.114  15.958 -0.3055 -0.6539 -0.2998
13888TIP3    H163079   4.941   5.104  16.053  1.9457  0.5192  0.0499
13888TIP3    H263080   4.970   5.026  15.927 -1.6059 -1.1742  0.1492
13889TIP3   OH263081   3.307   4.170   0.736 -0.4609 -0.3905  0.1528
13889TIP3    H163082   3.213   4.156   0.726 -0.3609 -0.2570 -1.2005
13889TIP3    H263083   3.348   4.098   0.688  0.1091  0.2466 -0.3396
13890TIP3   OH263084   6.303   3.973  11.986 -0.2937 -0.8206 -0.1019
13890TIP3    H163085   6.268   3.974  12.075  0.1007 -2.4348  0.1061
13890TIP3    H263086   6.226   3.972  11.930 -0.5660  1.6227  0.1291
13891TIP3   OH263087   3.636   0.153  13.407  0.2409  0.7566  0.7467
13891TIP3    H163088   3.542   0.153  13.393  0.3669  0.3650 -0.1344
13891TIP3    H263089   3.662   0.245  13.398 -0.0463  0.8631  0.9868
13892TIP3   OH263090   2.706   4.860  16.731  0.2769 -0.0992  0.4916
13892TIP3    H163091   2.674   4.945  16.702 -1.9010 -1.3267 -1.0586
13892TIP3    H263092   2.796   4.856  16.699  0.2331  1.4010  0.1199
13893TIP3   OH263093   6.262   1.570  10.879  0.7203 -0.4773  0.0062
13893TIP3    H163094   6.179   1.523  10.873  1.0240 -1.3940  1.9608
13893TIP3    H263095   6.325   1.504  10.907  1.8973  0.4057 -0.4925
13894TIP3   OH263096   3.153   1.460  15.461 -0.0074  0.6597 -0.4115
13894TIP3    H163097   3.176   1.415  15.379 -1.0176  1.7897 -1.3589
13894TIP3    H263098   3.067   1.496  15.444 -0.1378  1.0977  1.1078
13895TIP3   OH263099   1.610   4.871   2.548  0.1487  0.1121 -0.3668
13895TIP3    H163100   1.701   4.889   2.528  1.0429 -2.5870  0.7703
13895TIP3    H263101   1.592   4.787   2.506 -0.0220 -2.1738  3.6723
13896TIP3   OH263102   0.874   2.758   1.087  0.2955 -0.2691  0.3138
13896TIP3    H163103   0.958   2.803   1.100  0.2608 -0.0667 -0.1442
13896TIP3    H263104   0.881   2.720   1.000  0.4153 -1.3633  0.7835
13897TIP3   OH263105   3.318   4.554  11.509  0.6066 -0.0342  0.0897
13897TIP3    H163106   3.310   4.502  11.588 -0.3128  0.7566  0.5445
13897TIP3    H263107   3.309   4.644  11.538 -1.0497  0.2154 -1.0429
13898TIP3   OH263108   2.510   6.366   1.498  0.3031 -0.2240 -0.7064
13898TIP3    H163109   2.519   6.458   1.522 -0.6598  0.6100 -3.2624
13898TIP3    H263110   2.466   6.326   1.573  1.4985  1.1520  0.8176
13899TIP3   OH263111   2.137   5.950   1.672  0.3366  0.4642  0.1412
13899TIP3    H163112   2.111   5.977   1.760  0.7112  0.8868  0.1259
13899TIP3    H263113   2.086   5.871   1.655  1.3421 -0.4600  1.3010
13900TIP3   OH263114   0.651   1.269  12.168 -0.0207  0.5443  0.7596
13900TIP3    H163115   0.556   1.254  12.166  0.3254 -1.9774  0.2002
13900TIP3    H263116   0.685   1.219  12.094  1.8453  0.4759  1.6028
13901TIP3   OH263117   0.846   2.087  14.789  0.0553  0.2925  0.4041
13901TIP3    H163118   0.837   2.117  14.880  0.1586  1.1158  0.1487
13901TIP3    H263119   0.821   2.163  14.736 -1.2859 -0.5758 -0.2676
13902TIP3   OH263120   0.795   3.718   5.352 -0.1940  0.1637 -0.5511
13902TIP3    H163121   0.855   3.693   5.422 -0.3567  0.2639 -0.3768
13902TIP3    H263122   0.803   3.648   5.287 -1.6781 -1.1000  0.5424
13903TIP3   OH263123   4.171   0.739   4.713  0.2929 -0.1041  0.2948
13903TIP3    H163124   4.194   0.727   4.805  1.8209 -1.0522 -0.1733
13903TIP3    H263125   4.168   0.834   4.702  2.7525  0.1101  0.7664
13904TIP3   OH263126   1.227   1.213  13.932  0.5016 -0.1474  0.0864
13904TIP3    H163127   1.312   1.257  13.922 -1.1492  2.9626 -1.7010
13904TIP3    H263128   1.205   1.183  13.844 -1.3596  1.4887 -0.0722
13905TIP3   OH263129   5.702   0.058   0.852 -0.0637  0.5301  0.4442
13905TIP3    H163130   5.686   0.133   0.909  0.5882  1.5937 -0.7406
13905TIP3    H263131   5.795   0.039   0.862 -0.1766  0.0238  0.5591
13906TIP3   OH263132   5.078   6.711   5.411  0.2830 -0.2557  0.6306
13906TIP3    H163133   5.132   6.790   5.417 -2.5643  1.7065  2.5832
13906TIP3    H263134   5.044   6.698   5.500  0.7814 -3.9029  0.4490
13907TIP3   OH263135   4.572   2.164  16.729  0.3478 -0.7578  0.0494
13907TIP3    H163136   4.666   2.177  16.745  0.0218 -0.0310  1.5763
13907TIP3    H263137   4.565   2.075  16.697  1.8627  0.0803 -3.0024
13908TIP3   OH263138   2.624   3.142   4.796 -0.2382 -0.6735  0.1844
13908TIP3    H163139   2.616   3.175   4.886 -0.3320  0.6291 -0.2755
13908TIP3    H263140   2.653   3.052   4.806 -1.9568 -1.1288  1.5744
13909TIP3   OH263141   0.999   2.026   1.376 -0.5393  0.5917  0.0371
13909TIP3    H163142   0.968   2.007   1.287  0.0011  0.1752 -0.0628
13909TIP3    H263143   1.070   1.964   1.391 -1.2833 -0.0377  1.1437
13910TIP3   OH263144   0.762   5.646   3.681 -0.2557 -0.1628 -0.2760
13910TIP3    H163145   0.704   5.694   3.621  0.4811  0.1630 -0.7390
13910TIP3    H263146   0.773   5.560   3.639 -1.2047 -0.6023  0.3245
13911TIP3   OH263147   3.252   4.046  16.495  0.0101 -0.1500  0.1254
13911TIP3    H163148   3.227   3.964  16.538  2.5408 -1.5363 -0.8015
13911TIP3    H263149   3.278   4.104  16.567 -0.3288 -0.7169  0.7168
13912TIP3   OH263150   1.944   1.943   5.504  0.0905 -0.9276  0.0419
13912TIP3    H163151   2.032   1.904   5.503 -0.0980 -1.3610 -0.8355
13912TIP3    H263152   1.960   2.038   5.498  0.4858 -1.0670 -1.5575
13913TIP3   OH263153   5.248   4.406   1.355 -0.1423 -0.6148 -0.0474
13913TIP3    H163154   5.203   4.337   1.305  1.1531 -1.2591 -0.3481
13913TIP3    H263155   5.334   4.414   1.314 -0.5600  1.8394 -0.5896
13914TIP3   OH263156   2.209   4.348   6.546 -0.4730 -0.5811 -0.9385
13914TIP3    H163157   2.296   4.312   6.561 -0.5357  0.0638  1.2884
13914TIP3    H263158   2.222   4.442   6.540 -0.9575 -0.5155 -1.0344
13915TIP3   OH263159   0.013   6.351   2.896 -0.0056  0.4900 -0.0988
13915TIP3    H163160   0.093   6.298   2.901  0.0281  0.5120 -0.3987
13915TIP3    H263161   0.037   6.434   2.937 -1.2633 -1.1116  4.5560
13916TIP3   OH263162   6.687   3.990  16.519  0.7468  0.3917 -0.2913
13916TIP3    H163163   6.637   4.018  16.595  0.4036  1.6176 -0.9488
13916TIP3    H263164   6.745   4.063  16.499  1.3681 -0.2073 -0.7719
13917TIP3   OH263165   1.395   1.768   5.551 -0.4300 -0.5757  0.0589
13917TIP3    H163166   1.420   1.709   5.479 -1.6690 -0.4845 -0.4795
13917TIP3    H263167   1.421   1.855   5.521  1.3864 -0.8006  0.8477
13918TIP3   OH263168   3.492   1.983  16.307  0.5124 -0.4607  0.1545
13918TIP3    H163169   3.477   1.904  16.254  1.5839 -1.3412  1.1021
13918TIP3    H263170   3.578   2.015  16.280 -0.1380  0.7224 -0.5956
13919TIP3   OH263171   5.614   5.332   0.859  0.0252 -0.0912  0.1162
13919TIP3    H163172   5.584   5.252   0.816  0.1535 -0.1379  0.1140
13919TIP3    H263173   5.534   5.378   0.882 -0.0909 -0.7178  1.0560
13920TIP3   OH263174   4.313   2.284   0.991  0.7616  0.3368  0.3820
13920TIP3    H163175   4.400   2.319   1.009  1.1075 -0.3914  0.1936
13920TIP3    H263176   4.275   2.267   1.077  0.8262  0.6081  0.4639
13921TIP3   OH263177   2.530   6.706  15.309  0.3317  0.0820 -0.7790
13921TIP3    H163178   2.545   6.770  15.379 -0.6861 -0.0002 -0.4615
13921TIP3    H263179   2.602   6.719  15.248  1.5810 -0.2434  0.5722
13922TIP3   OH263180   1.006   4.436  13.321  0.1271 -0.5032  0.2811
13922TIP3    H163181   1.041   4.439  13.410 -0.3474  1.0215  0.4575
13922TIP3    H263182   1.082   4.429  13.264  0.4879 -0.6431  0.7821
13923TIP3   OH263183   1.083   6.288  10.904  0.5608 -0.2429  0.2447
13923TIP3    H163184   1.062   6.214  10.960  1.1722 -0.7530 -0.1794
13923TIP3    H263185   1.083   6.252  10.815 -1.8746  0.8525 -0.2938
13924TIP3   OH263186   4.032   0.262   0.558  0.2461 -0.3984  0.1025
13924TIP3    H163187   4.110   0.218   0.524 -0.0479 -0.4411 -0.5317
13924TIP3    H263188   4.026   0.343   0.508  1.0269  0.6225  1.5638
13925TIP3   OH263189   1.776   0.141   5.100 -0.3095  0.3140 -0.1393
13925TIP3    H163190   1.783   0.226   5.143 -0.6021  0.4559 -0.3690
13925TIP3    H263191   1.780   0.078   5.171 -2.2934  0.5882  0.2887
13926TIP3   OH263192   1.479   1.205  16.867 -0.2754 -0.1051  0.0903
13926TIP3    H163193   1.542   1.159  16.923  0.4520 -1.6833 -1.8719
13926TIP3    H263194   1.462   1.143  16.796 -2.5539  1.0804 -0.4825
13927TIP3   OH263195   0.184   3.539  13.948  0.3331 -0.3721 -0.2808
13927TIP3    H163196   0.246   3.515  14.017 -0.3022 -0.2158  0.3485
13927TIP3    H263197   0.098   3.521  13.985 -0.0166 -0.3576 -1.0629
13928TIP3   OH263198   2.004   5.454   0.107 -0.7426  0.3076 -0.1836
13928TIP3    H163199   2.017   5.524   0.171  1.8246  0.2692 -0.5612
13928TIP3    H263200   1.925   5.409   0.137 -1.0609  1.8372  1.4752
13929TIP3   OH263201   3.583   3.458   2.792  0.1765  0.1063 -0.0066
13929TIP3    H163202   3.531   3.443   2.871 -0.0824 -0.3962 -0.2669
13929TIP3    H263203   3.569   3.379   2.739 -0.6647  0.9633 -1.1188
13930TIP3   OH263204   0.567   3.058   0.203  0.4119 -0.1170 -0.2520
13930TIP3    H163205   0.552   3.153   0.200  0.9036 -0.0502 -0.7959
13930TIP3    H263206   0.633   3.042   0.135  2.2038 -0.5107  1.4669
13931TIP3   OH263207   3.561   5.963   4.051 -0.5011  0.2572 -0.6608
13931TIP3    H163208   3.479   5.938   4.094 -1.3659 -1.5132 -3.1327
13931TIP3    H263209   3.630   5.925   4.105 -1.3117  0.8937  0.8828
13932TIP3   OH263210   4.812   5.925  17.105 -0.1946 -0.1684 -0.8729
13932TIP3    H163211   4.797   5.835  17.131 -1.2352  0.8354  2.5106
13932TIP3    H263212   4.876   5.958  17.169  0.9426  1.2544 -2.6364
13933TIP3   OH263213   4.757   6.372  13.731 -0.3403 -0.5943  0.5457
13933TIP3    H163214   4.803   6.403  13.809 -1.5317  0.1467  0.9723
13933TIP3    H263215   4.721   6.452  13.691  0.6115 -0.8956 -1.0237
13934TIP3   OH263216   1.333   2.558   4.200  0.1414  0.2063  0.5313
13934TIP3    H163217   1.377   2.532   4.281  1.3674  0.2140 -0.0976
13934TIP3    H263218   1.264   2.493   4.188 -0.4050  0.5241  1.8562
13935TIP3   OH263219   0.062   4.720  14.357  0.3810  0.5928 -0.2125
13935TIP3    H163220   0.079   4.812  14.375  0.5536  0.4413  0.4056
13935TIP3    H263221   0.058   4.715  14.261 -1.9150  1.6423 -0.2173
13936TIP3   OH263222   1.481   1.493  12.204  0.0332 -0.3734 -0.5031
13936TIP3    H163223   1.539   1.417  12.196  1.6712  0.9289 -1.5983
13936TIP3    H263224   1.415   1.480  12.136  2.5566  0.9774 -3.4347
13937TIP3   OH263225   4.592   0.729  16.906  0.0715  0.0988  0.2120
13937TIP3    H163226   4.618   0.701  16.993 -0.3023  0.1372  0.3400
13937TIP3    H263227   4.532   0.802  16.921 -1.5223 -1.0925  0.0152
13938TIP3   OH263228   2.171   2.870   1.517 -0.0640 -0.3138 -0.8981
13938TIP3    H163229   2.213   2.944   1.560 -1.1330 -0.3535  0.2750
13938TIP3    H263230   2.135   2.818   1.589 -0.7551 -1.1008 -1.7904
13939TIP3   OH263231   4.490   5.704   2.577 -0.0586  0.1003 -0.5543
13939TIP3    H163232   4.510   5.794   2.603  2.8297 -0.7582  0.6067
13939TIP3    H263233   4.426   5.714   2.506 -0.7631  2.9699  0.3197
13940TIP3   OH263234   6.436   3.702  16.491 -0.2584 -0.0875 -0.0600
13940TIP3    H163235   6.398   3.789  16.479 -1.8467 -0.6336  0.7329
13940TIP3    H263236   6.520   3.705  16.444 -0.1744  1.9267  0.1644
13941TIP3   OH263237   1.503   3.491  14.959  0.2763 -0.4294 -0.7233
13941TIP3    H163238   1.482   3.584  14.962 -0.4179 -0.6165  0.6636
13941TIP3    H263239   1.554   3.481  14.878  0.9527  1.2657 -0.5432
13942TIP3   OH263240   6.575   6.403   0.982  0.0757  0.1499  0.0115
13942TIP3    H163241   6.489   6.438   1.005 -0.8094  0.8852 -3.6906
13942TIP3    H263242   6.623   6.479   0.948  1.2146 -0.7255 -0.4075
13943TIP3   OH263243   3.775   4.537  12.666 -0.3192  0.2887 -0.2630
13943TIP3    H163244   3.866   4.567  12.667 -0.6614  1.5146 -1.9820
13943TIP3    H263245   3.727   4.605  12.713 -0.3396 -0.5596  1.0058
13944TIP3   OH263246   4.649   3.298  15.637  0.0964 -0.5279 -0.7321
13944TIP3    H163247   4.620   3.207  15.640  0.1345 -0.5158  0.4626
13944TIP3    H263248   4.569   3.348  15.622 -0.3419 -0.5997  1.1089
13945TIP3   OH263249   0.750   1.583  17.189  0.4744 -0.5610 -0.4883
13945TIP3    H163250   0.723   1.567  17.099  0.0018 -2.3853 -0.0643
13945TIP3    H263251   0.785   1.499  17.219 -0.0679 -0.2019  1.2646
13946TIP3   OH263252   2.721   1.549   3.347 -0.4420 -0.2659 -0.1636
13946TIP3    H163253   2.730   1.612   3.419 -1.0734 -1.4387  0.9788
13946TIP3    H263254   2.811   1.532   3.319 -0.2100  0.4781  0.1101
13947TIP3   OH263255   6.747   2.074   3.544  0.3601  1.1823 -0.0813
13947TIP3    H163256   6.679   2.118   3.596 -0.7097 -0.6778  0.1672
13947TIP3    H263257   6.827   2.086   3.595 -0.2745  1.2031  0.9429
13948TIP3   OH263258   1.211   1.824  13.749  0.5646 -0.0908 -0.0259
13948TIP3    H163259   1.295   1.785  13.726 -0.1980 -1.3062 -0.8972
13948TIP3    H263260   1.150   1.789  13.684 -0.6499  0.6122  0.6968
13949TIP3   OH263261   4.986   3.712  13.669 -0.5852 -0.1849 -0.4140
13949TIP3    H163262   5.017   3.763  13.744  0.7540 -1.7421  0.1312
13949TIP3    H263263   4.913   3.661  13.704  0.5747 -1.5470  0.1008
13950TIP3   OH263264   0.559   1.704  13.513 -0.5980 -0.4090 -0.6524
13950TIP3    H163265   0.613   1.781  13.491 -0.6179 -0.6930 -1.7819
13950TIP3    H263266   0.477   1.718  13.465 -0.6377 -1.0796 -0.7913
13951TIP3   OH263267   6.116   4.088  15.451  0.2979  0.2558 -0.0006
13951TIP3    H163268   6.106   4.137  15.533 -0.1546 -0.2479  0.2504
13951TIP3    H263269   6.067   4.138  15.387 -0.0062  0.2380  0.2150
13952TIP3   OH263270   2.413   2.773  12.358 -0.4772  0.0637 -0.1266
13952TIP3    H163271   2.363   2.837  12.410 -1.5383 -0.1736 -0.8308
13952TIP3    H263272   2.347   2.728  12.306  0.2394 -1.6665  0.3894
13953TIP3   OH263273   4.692   1.226  15.567  0.2341  0.1554  0.9465
13953TIP3    H163274   4.641   1.243  15.487  0.1151  1.2661  1.2419
13953TIP3    H263275   4.769   1.179  15.537  0.0349  0.2854  0.2146
13954TIP3   OH263276   2.339   5.770   1.959 -0.3994  0.0839  0.3142
13954TIP3    H163277   2.368   5.691   2.006 -0.4678  0.3771  0.8618
13954TIP3    H263278   2.294   5.822   2.026  0.7830  1.1863  0.2843
13955TIP3   OH263279   1.847   3.709  17.126  0.3522 -0.0852 -0.0826
13955TIP3    H163280   1.826   3.617  17.143 -0.3499 -0.2720 -1.6889
13955TIP3    H263281   1.803   3.757  17.196  0.7013 -0.9535  0.7621
13956TIP3   OH263282   2.995   0.367   1.733 -0.0988  0.3002 -0.6302
13956TIP3    H163283   3.075   0.329   1.770  0.1113  0.4225 -0.9515
13956TIP3    H263284   2.941   0.292   1.709 -0.3904  0.2179  0.2413
13957TIP3   OH263285   2.186   5.088   2.853 -0.7302 -0.9194  0.4005
13957TIP3    H163286   2.186   4.993   2.864  2.1497 -0.9616  0.7078
13957TIP3    H263287   2.213   5.102   2.762 -0.4602 -0.3964  0.5576
13958TIP3   OH263288   4.377   3.069   0.128 -0.2735  0.2336 -0.1847
13958TIP3    H163289   4.292   3.098   0.162  0.0591  0.2140  0.6886
13958TIP3    H263290   4.368   2.975   0.117 -1.3858  0.5972 -3.1108
13959TIP3   OH263291   1.957   4.166  13.638 -0.0262 -0.1705  0.3593
13959TIP3    H163292   1.868   4.187  13.611  0.2005  1.2989  0.6865
13959TIP3    H263293   1.991   4.111  13.568 -0.5614  0.8230 -0.7121
13960TIP3   OH263294   0.518   1.305   4.923 -0.2321  0.1227 -0.1422
13960TIP3    H163295   0.580   1.272   4.858 -0.9565 -1.0532 -0.2589
13960TIP3    H263296   0.570   1.367   4.975  1.9542 -2.8740  1.6003
13961TIP3   OH263297   4.211   1.941   6.891  0.1986  0.0863 -0.1829
13961TIP3    H163298   4.153   1.976   6.824 -0.3289 -0.1627  0.1338
13961TIP3    H263299   4.156   1.880   6.940  0.9523 -0.7924 -0.4020
13962TIP3   OH263300   3.637   6.034   0.557 -0.5022 -0.1739  0.0184
13962TIP3    H163301   3.661   5.954   0.603 -1.0030  0.2398  1.0166
13962TIP3    H263302   3.660   6.105   0.617 -1.3833  0.3659 -0.2632
13963TIP3   OH263303   1.158   5.534  12.761 -0.6318 -0.2197  0.1866
13963TIP3    H163304   1.231   5.527  12.701 -0.4228 -1.7861  0.5640
13963TIP3    H263305   1.188   5.489  12.840 -2.5173 -2.3373 -0.2096
13964TIP3   OH263306   5.489   4.213   6.302  0.2243  0.0619 -0.1536
13964TIP3    H163307   5.482   4.302   6.335  0.4280  0.0424 -0.0553
13964TIP3    H263308   5.399   4.181   6.299  0.2645 -0.1929  1.0923
13965TIP3   OH263309   2.076   1.767   4.210 -0.2045 -0.2678 -0.4730
13965TIP3    H163310   2.137   1.759   4.282  0.3272 -1.2087 -1.0058
13965TIP3    H263311   2.043   1.678   4.196 -1.0873  0.0840 -0.7130
13966TIP3   OH263312   4.896   0.404  14.634  0.0987 -0.2584  0.6370
13966TIP3    H163313   4.838   0.468  14.675 -1.4960 -0.4039 -1.1865
13966TIP3    H263314   4.961   0.456  14.587  0.2160 -0.0412  1.0387
13967TIP3   OH263315   3.874   2.527  12.389 -0.0588  0.3296  0.0117
13967TIP3    H163316   3.932   2.571  12.327  1.1991  0.7287  1.4086
13967TIP3    H263317   3.913   2.440  12.401 -1.6777 -0.6951 -1.5665
13968TIP3   OH263318   5.390   1.866  14.262 -0.4712 -0.2139  0.1181
13968TIP3    H163319   5.335   1.925  14.314 -0.8415 -0.9498  0.5874
13968TIP3    H263320   5.382   1.781  14.307 -1.9701 -1.2421 -1.9340
13969TIP3   OH263321   5.209   4.468  12.137 -0.7999  0.3264  0.1411
13969TIP3    H163322   5.188   4.385  12.096 -1.6069  0.6537 -0.1227
13969TIP3    H263323   5.125   4.512  12.147 -0.5840  0.3933  1.8589
13970TIP3   OH263324   6.756   4.386   3.090  0.4224  1.0296 -0.3226
13970TIP3    H163325   6.734   4.391   3.183  1.7335 -1.0189  0.1871
13970TIP3    H263326   6.850   4.367   3.090  0.5402  1.5041 -2.0876
13971TIP3   OH263327   6.198   4.764   3.831  0.1624  0.2355 -0.1616
13971TIP3    H163328   6.149   4.727   3.905  0.2020  1.4882  0.5280
13971TIP3    H263329   6.149   4.843   3.807  0.6724  0.3496 -0.8584
13972TIP3   OH263330   5.891   6.630  12.901 -0.1332  0.2839  0.1953
13972TIP3    H163331   5.922   6.700  12.844  2.8852 -0.9822  0.0614
13972TIP3    H263332   5.935   6.551  12.868  0.2713 -0.8217  3.0588
13973TIP3   OH263333   3.976   5.278   0.382 -0.5123  0.2151 -0.4697
13973TIP3    H163334   3.985   5.333   0.460 -0.5985  0.5074 -0.6680
13973TIP3    H263335   4.014   5.194   0.408 -1.7284 -0.1211  0.3451
13974TIP3   OH263336   4.340   0.758   5.558 -0.2131 -0.0719 -0.1969
13974TIP3    H163337   4.400   0.685   5.546 -1.2399 -1.0760  0.5147
13974TIP3    H263338   4.344   0.777   5.652 -1.2868 -0.4266 -0.0661
13975TIP3   OH263339   3.279   4.795  14.145  0.0927 -0.0437  0.4082
13975TIP3    H163340   3.346   4.862  14.135  0.7099 -0.8577 -1.3037
13975TIP3    H263341   3.198   4.844  14.155  0.0548  1.1276 -3.8094
13976TIP3   OH263342   5.845   2.191   6.434 -0.1725  0.2951  0.3755
13976TIP3    H163343   5.841   2.099   6.407  2.1911 -0.0675  1.0403
13976TIP3    H263344   5.813   2.191   6.524  0.1612  0.0781  0.4921
13977TIP3   OH263345   5.332   2.905  17.192 -0.2645 -0.5573 -0.0890
13977TIP3    H163346   5.306   2.997  17.185 -1.8990 -1.0054 -0.3455
13977TIP3    H263347   5.419   2.908  17.232  1.2922  1.2571 -3.2250
13978TIP3   OH263348   3.622   1.547   5.721  0.1182 -0.2853 -0.9133
13978TIP3    H163349   3.596   1.542   5.629  0.1515  0.6038 -0.9744
13978TIP3    H263350   3.715   1.570   5.719  0.1366 -0.3334 -0.6609
13979TIP3   OH263351   6.795   5.776  15.546 -0.2514 -0.3870  0.2072
13979TIP3    H163352   6.806   5.851  15.605 -1.6115 -2.0687  2.7685
13979TIP3    H263353   6.705   5.784  15.514 -0.5604 -1.1490  0.8629
13980TIP3   OH263354   5.009   0.984   0.727  0.9984 -0.8939 -0.9389
13980TIP3    H163355   5.082   1.047   0.723  1.8883 -1.9364 -1.7108
13980TIP3    H263356   5.017   0.944   0.814  1.3768 -1.0270 -1.0315
13981TIP3   OH263357   2.890   6.762   4.350  0.2206  0.1184 -0.0771
13981TIP3    H163358   2.952   6.695   4.320 -0.1905  0.3479 -1.5577
13981TIP3    H263359   2.946   6.832   4.384  0.7107 -0.3721  0.1509
13982TIP3   OH263360   4.267   4.548  13.996  0.0895 -0.6803 -0.0184
13982TIP3    H163361   4.300   4.628  14.037 -0.1718 -0.6561  0.1471
13982TIP3    H263362   4.216   4.505  14.065 -1.1951 -0.1426 -0.6083
13983TIP3   OH263363   6.021   1.689   6.245  0.7594  0.2744 -0.0592
13983TIP3    H163364   6.112   1.718   6.233  0.6796  1.0387  0.9959
13983TIP3    H263365   6.009   1.690   6.340 -0.4706  0.5582 -0.2112
13984TIP3   OH263366   4.378   0.588   5.212 -0.6680 -0.0913  0.2775
13984TIP3    H163367   4.367   0.585   5.117 -1.3742  0.3394  0.3380
13984TIP3    H263368   4.472   0.586   5.226 -0.5641 -1.6147 -0.3820
13985TIP3   OH263369   0.287   4.693  11.874 -0.6380  0.5586  0.5075
13985TIP3    H163370   0.306   4.770  11.927 -1.3142  0.7457  0.4925
13985TIP3    H263371   0.224   4.725  11.808  1.5327  0.7877 -1.5772
13986TIP3   OH263372   5.281   5.642  11.643 -0.1547 -0.2770  0.3603
13986TIP3    H163373   5.236   5.596  11.714 -1.0679  0.6570  0.4204
13986TIP3    H263374   5.210   5.681  11.591  0.5654  0.7517  0.1136
13987TIP3   OH263375   1.955   4.174   4.219 -0.0798 -0.1549  0.9164
13987TIP3    H163376   1.948   4.083   4.191  2.1983 -0.3091  0.6657
13987TIP3    H263377   1.968   4.169   4.313 -0.0205 -0.0841  0.9119
13988TIP3   OH263378   2.039   2.058   5.872 -0.1655 -0.0835 -0.2859
13988TIP3    H163379   2.123   2.014   5.880  0.8410  0.8576 -3.8947
13988TIP3    H263380   1.976   1.996   5.908  1.8501 -1.6578  0.6967
13989TIP3   OH263381   4.554   4.357   2.897  0.3055  0.3818  0.3171
13989TIP3    H163382   4.546   4.300   2.821  0.8168 -0.4343  0.8536
13989TIP3    H263383   4.647   4.382   2.899  0.6417 -0.8751  1.5453
13990TIP3   OH263384   2.526   2.224  13.695  0.3582 -0.2394  0.3577
13990TIP3    H163385   2.588   2.238  13.767 -1.2395  1.0130  1.5812
13990TIP3    H263386   2.541   2.297  13.635  0.3581 -0.1621  0.4502
13991TIP3   OH263387   0.824   6.159   3.191  0.2330  0.1138 -0.5936
13991TIP3    H163388   0.792   6.246   3.165  1.0898 -0.0813 -2.5024
13991TIP3    H263389   0.913   6.156   3.157  0.1869 -1.5388 -0.6349
13992TIP3   OH263390   0.246   3.252  16.357 -0.0841 -0.1738 -0.1074
13992TIP3    H163391   0.314   3.299  16.310  0.8901 -0.0349  1.3776
13992TIP3    H263392   0.200   3.320  16.407  0.2899 -0.5749  0.7975
13993TIP3   OH263393   0.134   5.808   1.528  0.3224  0.2931  0.1685
13993TIP3    H163394   0.185   5.877   1.486  1.2686  0.0970  0.9510
13993TIP3    H263395   0.188   5.780   1.603 -0.0354 -1.2785 -0.1197
13994TIP3   OH263396   2.909   1.283  16.248  0.4450  0.0098  0.5829
13994TIP3    H163397   2.878   1.314  16.164 -1.0464 -1.4367  0.5566
13994TIP3    H263398   2.939   1.193  16.231 -1.0651 -0.7738  1.7794
13995TIP3   OH263399   2.347   6.240   1.684 -0.1516 -0.9322 -0.1128
13995TIP3    H163400   2.394   6.157   1.691 -1.0953 -1.6484 -1.6424
13995TIP3    H263401   2.260   6.215   1.652 -0.4317  0.6446 -0.6585
13996TIP3   OH263402   1.514   4.227  15.356  0.5016 -0.5255  0.0618
13996TIP3    H163403   1.589   4.187  15.399  0.5485  0.3003  0.7625
13996TIP3    H263404   1.520   4.320  15.377 -0.3037 -0.3338 -0.4915
13997TIP3   OH263405   4.986   3.079  11.764  0.2405 -0.0316  0.2767
13997TIP3    H163406   4.914   3.078  11.828  0.7903  0.4497  0.9222
13997TIP3    H263407   4.946   3.107  11.682 -1.0324 -3.1368 -0.3023
13998TIP3   OH263408   4.701   1.533  15.454  0.0330 -0.5093 -0.6173
13998TIP3    H163409   4.737   1.620  15.437  1.9095 -0.7824  1.4545
13998TIP3    H263410   4.686   1.495  15.368 -0.2341  1.6028 -1.5534
13999TIP3   OH263411   6.604   3.140   3.954 -0.0950 -0.1099 -0.2196
13999TIP3    H163412   6.569   3.155   3.866 -0.9133 -0.0326  0.1157
13999TIP3    H263413   6.527   3.131   4.010  0.4186 -0.1288  0.5016
14000TIP3   OH263414   5.929   5.870  15.472  0.1947 -0.1275 -0.7910
14000TIP3    H163415   5.988   5.812  15.425 -0.5319 -0.5296 -1.2151
14000TIP3    H263416   5.940   5.955  15.429  1.8644  0.2914  0.3488
14001TIP3   OH263417   1.180   6.460   3.156  0.5200 -0.0931 -0.6111
14001TIP3    H163418   1.188   6.514   3.078  0.6537  0.7010 -0.0576
14001TIP3    H263419   1.112   6.396   3.134 -0.6310  1.1602 -0.7939
14002TIP3   OH263420   0.027   3.802  15.413  0.2966  0.3760 -0.2884
14002TIP3    H163421  -0.043   3.824  15.474 -0.8564  1.1096 -1.7878
14002TIP3    H263422   0.097   3.767  15.468 -1.1486 -0.1746  1.2861
14003TIP3   OH263423   3.250   5.415   2.724  0.6430 -0.2648  0.1015
14003TIP3    H163424   3.282   5.353   2.658 -0.7535 -1.6881  0.7161
14003TIP3    H263425   3.322   5.477   2.735  1.8258 -1.3825 -1.0178
14004TIP3   OH263426   0.345   4.829  14.142  0.1196 -0.1006 -0.3121
14004TIP3    H163427   0.429   4.875  14.135  0.1776 -0.0112  0.7413
14004TIP3    H263428   0.279   4.897  14.128  0.2194 -0.2195 -1.3893
14005TIP3   OH263429   3.672   2.849  13.692 -0.2338 -0.2150  0.5401
14005TIP3    H163430   3.625   2.932  13.690  0.4416  0.1760 -1.7595
14005TIP3    H263431   3.696   2.838  13.784 -0.1617  2.2648  0.9013
14006TIP3   OH263432   0.651   1.603  15.510 -0.3988  0.3320 -0.1253
14006TIP3    H163433   0.689   1.658  15.578 -1.6387  0.4944  0.4664
14006TIP3    H263434   0.627   1.522  15.556 -0.0549 -0.0663 -0.6444
14007TIP3   OH263435   2.665   1.596  14.506  0.4449 -0.1350 -0.2301
14007TIP3    H163436   2.607   1.525  14.478  0.4848 -1.4100  2.5994
14007TIP3    H263437   2.606   1.670  14.524 -0.1319 -0.8264  0.8237
14008TIP3   OH263438   5.871   2.532  13.398  0.5371  0.2608 -0.5865
14008TIP3    H163439   5.933   2.604  13.406  0.9987 -0.2456  0.7748
14008TIP3    H263440   5.904   2.480  13.324  1.2717  0.4435 -0.3954
14009TIP3   OH263441   4.184   5.283  11.265  0.4347  0.5728  0.1768
14009TIP3    H163442   4.250   5.302  11.199  0.5596  0.1420  0.1710
14009TIP3    H263443   4.155   5.194  11.245 -0.0438  0.7046  0.2694
14010TIP3   OH263444   6.431   6.333  15.217 -0.6694  0.7095  0.6234
14010TIP3    H163445   6.514   6.357  15.175  0.1996 -0.1429  1.7959
14010TIP3    H263446   6.367   6.336  15.146  0.9329 -1.7596 -1.0832
14011TIP3   OH263447   2.732   4.156   1.198  0.5749 -0.1666 -0.2451
14011TIP3    H163448   2.662   4.141   1.134  1.1816  0.0973 -0.9892
14011TIP3    H263449   2.796   4.209   1.150  0.8367  0.4095  0.7289
14012TIP3   OH263450   6.772   1.544  14.008 -0.2994 -0.0167  0.2079
14012TIP3    H163451   6.827   1.603  14.060  0.1940  0.3974 -0.7602
14012TIP3    H263452   6.826   1.466  13.995 -0.0939  0.2226 -0.3939
14013TIP3   OH263453   4.331   6.165  11.201  0.1177 -0.0683 -0.3608
14013TIP3    H163454   4.314   6.223  11.274 -0.6045 -0.2242 -0.3913
14013TIP3    H263455   4.419   6.132  11.215 -0.2095 -0.5098  0.7312
14014TIP3   OH263456   5.302   6.410   2.015  0.0280 -0.6090 -0.2078
14014TIP3    H163457   5.255   6.491   1.997 -0.3457 -0.7125  0.2926
14014TIP3    H263458   5.381   6.415   1.960 -1.1978 -1.0567 -2.0919
14015TIP3   OH263459   6.266   5.831  11.237 -0.3294 -0.1964  0.4887
14015TIP3    H163460   6.357   5.804  11.235  0.8510  3.2917 -0.9277
14015TIP3    H263461   6.259   5.886  11.315 -0.5854  1.2581 -0.5209
14016TIP3   OH263462   6.427   1.308   5.135 -0.6283  0.3340  0.0829
14016TIP3    H163463   6.433   1.219   5.100  2.9506  1.1008 -1.6827
14016TIP3    H263464   6.431   1.297   5.230 -1.9709 -1.4145 -0.0137
14017TIP3   OH263465   1.459   0.792   5.890  0.6667 -0.1239 -0.7438
14017TIP3    H163466   1.448   0.886   5.880 -0.4342  0.1046  1.7852
14017TIP3    H263467   1.436   0.775   5.981  0.7779 -2.8599 -1.1425
14018TIP3   OH263468   0.121   2.037   5.177 -0.2072  0.3167 -0.0811
14018TIP3    H163469   0.201   2.022   5.127 -0.2659  2.4127 -0.8697
14018TIP3    H263470   0.051   2.010   5.119 -0.1330 -0.8014  0.3258
14019TIP3   OH263471   2.937   4.199  17.144  0.4261 -0.0040 -0.1327
14019TIP3    H163472   2.880   4.184  17.219  1.7027  0.2073  0.9115
14019TIP3    H263473   2.924   4.122  17.088 -1.2565  0.2914 -0.1950
14020TIP3   OH263474   1.201   4.848  16.280 -0.6111  0.1808  0.6974
14020TIP3    H163475   1.164   4.776  16.332 -0.4819 -0.7233 -0.4091
14020TIP3    H263476   1.170   4.927  16.323 -2.4726 -0.5366  0.7849
14021TIP3   OH263477   3.599   1.936  11.086  0.5057  0.2246  0.5361
14021TIP3    H163478   3.598   1.981  11.001  0.0229 -2.7267 -1.1784
14021TIP3    H263479   3.507   1.929  11.110  0.0319 -3.7668 -1.6651
14022TIP3   OH263480   0.816   0.716  11.003 -0.2725 -0.3124 -0.0918
14022TIP3    H163481   0.782   0.627  10.997 -0.2273 -0.3554  0.2562
14022TIP3    H263482   0.903   0.712  10.962  0.1943 -0.6862  0.8942
14023TIP3   OH263483   3.946   3.340   4.882 -0.8541  0.5997 -0.1565
14023TIP3    H163484   3.870   3.325   4.826 -1.5421  0.8268  0.6928
14023TIP3    H263485   3.995   3.408   4.837 -1.7714  1.2953 -0.1487
14024TIP3   OH263486   4.484   1.719   0.506  0.1960  0.1243 -0.3698
14024TIP3    H163487   4.512   1.653   0.443 -1.1704 -0.4187 -0.4622
14024TIP3    H263488   4.552   1.721   0.572 -0.7266 -3.0550  0.8412
14025TIP3   OH263489   2.083   2.770  12.848 -0.1952  0.7095  0.1056
14025TIP3    H163490   1.989   2.787  12.851 -0.3135  0.2296 -0.4956
14025TIP3    H263491   2.104   2.727  12.931 -0.4962  0.8667  0.2605
14026TIP3   OH263492   1.088   1.215  16.290  0.0686  0.0722  0.2094
14026TIP3    H163493   1.159   1.251  16.343  0.8606  0.8299 -1.3192
14026TIP3    H263494   1.046   1.292  16.251 -0.4510 -0.4728 -0.3181
14027TIP3   OH263495   2.950   1.262  10.632 -0.7129 -0.0324 -0.3051
14027TIP3    H163496   2.943   1.167  10.629  3.3625 -0.4979 -0.6691
14027TIP3    H263497   2.914   1.287  10.717  0.6185 -2.2591  0.9864
14028TIP3   OH263498   1.913   6.609  10.558 -0.5359  0.3213 -0.0739
14028TIP3    H163499   1.961   6.682  10.598 -0.2407 -0.4339  1.0015
14028TIP3    H263500   1.916   6.540  10.624 -2.5757  0.0263 -0.2234
14029TIP3   OH263501   6.513   6.027  15.848  0.4135 -0.3150  0.0076
14029TIP3    H163502   6.483   5.984  15.768 -0.0590  0.5764 -0.3076
14029TIP3    H263503   6.474   6.114  15.844  0.7358 -0.1179  1.0041
14030TIP3   OH263504   6.195   0.590  11.565  0.1492  0.8692  0.2898
14030TIP3    H163505   6.173   0.644  11.489 -1.9432  0.0246  0.2463
14030TIP3    H263506   6.192   0.651  11.639 -2.5133  0.8226  0.2875
14031TIP3   OH263507   4.216   5.700  12.114 -0.3441 -0.2488 -0.4537
14031TIP3    H163508   4.143   5.747  12.075 -0.3619 -0.7000 -0.9650
14031TIP3    H263509   4.175   5.635  12.172 -0.3212  1.7638  1.9995
14032TIP3   OH263510   2.734   3.074   5.752  0.3350  0.3388  0.2460
14032TIP3    H163511   2.749   3.157   5.708  0.5066  0.3061  0.2446
14032TIP3    H263512   2.761   3.089   5.842 -3.8520  1.7104  1.4844
14033TIP3   OH263513   6.168   6.810   0.501  0.4392  0.9082  0.2902
14033TIP3    H163514   6.090   6.857   0.471  0.2019 -0.2113 -0.9387
14033TIP3    H263515   6.209   6.777   0.421  0.7383 -0.7320  1.0826
14034TIP3   OH263516   2.979   0.366  12.800  0.6294  0.1712  0.3101
14034TIP3    H163517   3.012   0.285  12.838  0.4000 -0.0285  0.0897
14034TIP3    H263518   3.043   0.390  12.733 -0.7028 -1.3738 -1.6352
14035TIP3   OH263519   0.107   0.445   3.339  0.0140 -0.1043  0.5684
14035TIP3    H163520   0.162   0.508   3.387  0.5772 -1.6065  1.9810
14035TIP3    H263521   0.163   0.414   3.268  0.8119 -1.1256  1.6035
14036TIP3   OH263522   4.812   0.011   0.600  0.4950  0.4137  0.1566
14036TIP3    H163523   4.880   0.078   0.610  1.1534 -0.2248  0.0940
14036TIP3    H263524   4.752   0.046   0.535  0.7888  0.9766  0.1848
14037TIP3   OH263525   6.204   5.897  12.137 -0.5946  0.4461 -0.0129
14037TIP3    H163526   6.130   5.882  12.196 -0.8877 -1.0953 -0.6953
14037TIP3    H263527   6.231   5.809  12.110  2.2792  0.8705  1.1026
14038TIP3   OH263528   4.643   1.152   3.636  1.2392 -0.9066 -0.1549
14038TIP3    H163529   4.658   1.133   3.544  0.4996  0.6695 -0.6425
14038TIP3    H263530   4.651   1.247   3.643 -0.9800 -0.7273  0.9277
14039TIP3   OH263531   0.636   5.796  13.319  0.0812  0.2715 -0.1377
14039TIP3    H163532   0.658   5.816  13.410  2.0588 -2.2775  0.0434
14039TIP3    H263533   0.573   5.724  13.325 -0.2521  0.4982 -0.7970
14040TIP3   OH263534   1.492   4.045   4.334  0.4486 -0.5783 -0.2960
14040TIP3    H163535   1.557   4.108   4.301 -0.0137  0.5887  0.9288
14040TIP3    H263536   1.421   4.099   4.369 -0.6286 -1.8159 -0.4917
14041TIP3   OH263537   3.468   5.888   1.095  0.1196  0.1623  0.4424
14041TIP3    H163538   3.375   5.909   1.098  0.3291  1.1806  0.2201
14041TIP3    H263539   3.495   5.885   1.187 -0.0092  0.4901  0.4942
14042TIP3   OH263540   6.236   5.672   3.370  0.3681  0.5823  0.2858
14042TIP3    H163541   6.302   5.725   3.414 -0.0009 -0.5858  2.3493
14042TIP3    H263542   6.286   5.605   3.322  0.7395 -0.1753  1.6813
14043TIP3   OH263543   0.984   6.602  10.448 -0.0298 -0.7240  0.1429
14043TIP3    H163544   1.022   6.533  10.503  0.6885 -0.6390 -0.2294
14043TIP3    H263545   0.904   6.563  10.413  1.7314 -2.4728 -2.3137
14044TIP3   OH263546   6.717   6.420  12.420  0.0624 -0.3485  0.1681
14044TIP3    H163547   6.672   6.423  12.335 -0.2679 -1.3250  0.3055
14044TIP3    H263548   6.731   6.512  12.442  2.6747 -0.0437 -2.2584
14045TIP3   OH263549   0.428   6.072  14.607  0.0868  0.2032 -0.2384
14045TIP3    H163550   0.406   6.104  14.520 -1.7353  0.5798  0.3162
14045TIP3    H263551   0.347   6.030  14.639  0.1736  1.4645  1.8649
14046TIP3   OH263552   2.168   0.535   3.331 -0.4139  0.4161  0.7165
14046TIP3    H163553   2.258   0.503   3.332 -0.5682 -0.0158  1.2188
14046TIP3    H263554   2.124   0.481   3.266 -0.7383 -0.6054  1.7508
14047TIP3   OH263555   0.038   0.357   0.145  0.0260  0.1678  0.1850
14047TIP3    H163556   0.131   0.363   0.124  0.2730 -0.8037  0.9134
14047TIP3    H263557   0.034   0.294   0.217 -1.3745 -1.3603 -1.1383
14048TIP3   OH263558   6.053   2.738  11.339  0.4916 -0.1624  0.5609
14048TIP3    H163559   6.104   2.757  11.260  0.1997  0.3216  0.4882
14048TIP3    H263560   6.077   2.806  11.401 -0.1668  0.1589  0.4761
14049TIP3   OH263561   1.118   0.455   5.347 -0.2624  0.4231 -0.3014
14049TIP3    H163562   1.138   0.516   5.277 -0.7666  0.3062 -0.5502
14049TIP3    H263563   1.136   0.503   5.428  0.4293  0.5173 -0.5131
14050TIP3   OH263564   1.931   0.305   4.362  0.7737  0.4936 -0.1382
14050TIP3    H163565   1.855   0.299   4.419 -0.5876  1.4992 -1.7519
14050TIP3    H263566   1.915   0.240   4.293  2.2923 -0.5715  0.4392
14051TIP3   OH263567   5.564   4.125  13.444  0.6387  0.1320 -0.3278
14051TIP3    H163568   5.543   4.091  13.531  0.2343  0.4049 -0.3130
14051TIP3    H263569   5.481   4.120  13.396  0.5446  1.1732 -0.2904
14052TIP3   OH263570   1.376   5.718   1.705 -0.0409  0.4685  0.2888
14052TIP3    H163571   1.318   5.645   1.725  1.6956 -1.0338  0.0533
14052TIP3    H263572   1.406   5.749   1.790  0.0232  0.2418  0.3482
14053TIP3   OH263573   1.815   5.966   0.748  0.2821  0.1642 -0.5542
14053TIP3    H163574   1.806   5.882   0.703  0.8023  0.4122 -1.1319
14053TIP3    H263575   1.736   5.973   0.802  1.1787 -1.6594  1.1359
14054TIP3   OH263576   2.126   3.330  15.336  0.3677 -0.1181  0.2739
14054TIP3    H163577   2.174   3.387  15.277 -0.1063  0.8371  0.7802
14054TIP3    H263578   2.122   3.246  15.291  1.0872  0.2434 -0.4873
14055TIP3   OH263579   2.219   0.087   4.855  0.2198 -0.3683  0.1495
14055TIP3    H163580   2.196   0.039   4.935 -0.3848 -1.7992 -0.8347
14055TIP3    H263581   2.310   0.063   4.838  0.3420 -0.0799  0.3977
14056TIP3   OH263582   6.506   2.775   0.954  0.1212  0.5084  0.1150
14056TIP3    H163583   6.547   2.698   0.914  0.0218  1.7288 -2.4929
14056TIP3    H263584   6.549   2.782   1.040  1.8764 -1.0469 -0.5679
14057TIP3   OH263585   1.658   4.550  12.414  0.1899  0.5177 -0.0866
14057TIP3    H163586   1.685   4.591  12.332 -0.4320 -1.5343 -1.3849
14057TIP3    H263587   1.731   4.565  12.474  0.5978  2.1824 -0.9372
14058TIP3   OH263588   1.776   2.953  15.817 -0.3822  0.0200 -0.4703
14058TIP3    H163589   1.686   2.965  15.788  0.2019 -0.2171 -2.5746
14058TIP3    H263590   1.783   3.005  15.897 -2.3096  0.2101 -0.3920
14059TIP3   OH263591   1.862   3.792   5.667 -0.0773 -0.5507 -0.0585
14059TIP3    H163592   1.778   3.823   5.633  1.7113  1.5655 -2.9826
14059TIP3    H263593   1.855   3.697   5.665 -1.2586 -0.5327 -3.6835
14060TIP3   OH263594   0.090   4.276  15.623 -0.4822  0.2481  0.3616
14060TIP3    H163595   0.033   4.237  15.556  0.8866 -0.3159 -0.5079
14060TIP3    H263596   0.034   4.281  15.701 -2.5051  2.0197 -1.0741
14061TIP3   OH263597   1.345   4.877  11.216  0.5749  0.2531 -0.2067
14061TIP3    H163598   1.381   4.788  11.209  1.0507  0.3674  0.6302
14061TIP3    H263599   1.392   4.916  11.290  1.7617  1.8794 -1.7468
14062TIP3   OH263600   3.174   6.320  13.279  0.2001 -0.0462 -0.2393
14062TIP3    H163601   3.082   6.337  13.299  0.2810 -0.7314  0.8218
14062TIP3    H263602   3.191   6.369  13.199 -1.6706 -1.6551 -1.7114
14063TIP3   OH263603   6.580   2.389   6.160 -0.3476  0.6246  0.4140
14063TIP3    H163604   6.523   2.418   6.089 -0.2287 -0.3020 -0.0608
14063TIP3    H263605   6.521   2.345   6.221  0.1118 -2.5785 -1.2491
14064TIP3   OH263606   2.538   3.916   5.220  0.2676 -0.7085  0.6751
14064TIP3    H163607   2.614   3.949   5.173  0.9649 -2.1474  0.7288
14064TIP3    H263608   2.483   3.877   5.151 -1.2704  1.7099  0.3975
14065TIP3   OH263609   0.262   2.053  12.933  0.9390 -0.1768  0.1201
14065TIP3    H163610   0.338   2.012  12.975 -0.1244 -1.4690  0.8417
14065TIP3    H263611   0.293   2.141  12.911  1.9063  0.2044  2.6329
14066TIP3   OH263612   1.137   5.728  15.352 -0.0978  0.6883  0.3558
14066TIP3    H163613   1.210   5.726  15.290 -0.5290 -1.7753 -0.1740
14066TIP3    H263614   1.175   5.702  15.436 -0.4448 -1.6505 -0.1340
14067TIP3   OH263615   0.702   6.455  16.133  0.9140  0.0582  0.4354
14067TIP3    H163616   0.737   6.503  16.207 -0.8688  2.1003  0.0463
14067TIP3    H263617   0.721   6.510  16.057 -0.6898 -0.0916 -0.1097
14068TIP3   OH263618   6.171   6.124   1.796 -0.1214  0.2427  0.6996
14068TIP3    H163619   6.085   6.100   1.764 -0.1641  1.4871 -0.1676
14068TIP3    H263620   6.164   6.216   1.820  1.5450  1.0696 -1.6233
14069TIP3   OH263621   5.259   1.108  13.637  0.5427 -0.3228  0.5576
14069TIP3    H163622   5.180   1.147  13.674 -0.1708 -1.2813  0.1021
14069TIP3    H263623   5.329   1.135  13.695 -0.5076 -1.6529  2.5820
14070TIP3   OH263624   1.657   2.216   1.163 -0.1783  0.0570 -0.2540
14070TIP3    H163625   1.613   2.244   1.083 -1.1718  0.2614  0.3492
14070TIP3    H263626   1.738   2.267   1.165 -0.3663  0.3873 -0.8910
14071TIP3   OH263627   3.527   5.530  13.519 -0.0290  0.5234 -0.3512
14071TIP3    H163628   3.538   5.445  13.477 -1.2845  0.6090 -0.8794
14071TIP3    H263629   3.567   5.592  13.459 -0.2526  0.4448 -0.5838
14072TIP3   OH263630   3.534   6.032   5.143 -0.2126 -0.4999 -0.0758
14072TIP3    H163631   3.557   6.011   5.234 -1.8719  1.7480  0.9622
14072TIP3    H263632   3.584   6.111   5.124 -1.0807 -0.0549 -0.5486
14073TIP3   OH263633   2.490   0.861  16.502 -0.3015  0.4601 -0.3513
14073TIP3    H163634   2.421   0.794  16.510  0.7644 -0.9417 -2.2413
14073TIP3    H263635   2.445   0.937  16.466 -1.6599  1.0821  2.3742
14074TIP3   OH263636   3.115   3.495   4.932 -0.0841 -0.0222 -0.2921
14074TIP3    H163637   3.184   3.502   4.865  1.3993  1.6231  1.2932
14074TIP3    H263638   3.159   3.518   5.014 -2.8464  2.9178  0.5801
14075TIP3   OH263639   6.242   1.150   4.925 -0.6870 -0.0313 -0.2275
14075TIP3    H163640   6.328   1.133   4.964 -0.2324 -0.2739 -1.2878
14075TIP3    H263641   6.197   1.066   4.928 -1.8371  0.5904  2.4648
14076TIP3   OH263642   5.021   4.121   2.775  0.2367  0.1266  0.0901
14076TIP3    H163643   5.096   4.129   2.717  0.1501 -2.0524 -0.4393
14076TIP3    H263644   5.025   4.197   2.832  2.5382  0.3350 -0.2796
14077TIP3   OH263645   6.143   5.029   4.794  0.3650  0.3521 -0.1702
14077TIP3    H163646   6.179   5.081   4.722  0.1338  0.8815  0.0882
14077TIP3    H263647   6.116   5.094   4.859  0.9756 -0.1379  0.5926
14078TIP3   OH263648   3.509   6.656  16.068 -0.9181 -0.5415  0.1863
14078TIP3    H163649   3.527   6.735  16.016 -2.7110 -0.7866 -0.8963
14078TIP3    H263650   3.553   6.586  16.020 -0.3360 -0.3790  0.4797
14079TIP3   OH263651   6.279   1.679  12.450  0.0801 -0.2356 -0.1866
14079TIP3    H163652   6.188   1.651  12.439  0.3427 -0.7743 -1.0513
14079TIP3    H263653   6.288   1.755  12.393 -0.0150  0.2574  0.4436
14080TIP3   OH263654   6.485   1.635   5.717 -0.8899  0.0281 -0.2770
14080TIP3    H163655   6.518   1.564   5.662 -1.1059 -0.4964  0.2635
14080TIP3    H263656   6.499   1.605   5.807 -2.3057  0.0280 -0.0278
14081TIP3   OH263657   0.185   5.760   4.111  0.2838  0.1252 -0.1475
14081TIP3    H163658   0.147   5.813   4.181 -1.4652 -0.9559 -0.2176
14081TIP3    H263659   0.111   5.740   4.053  1.1855 -1.1422 -0.9122
14082TIP3   OH263660   6.389   4.310   1.940  0.0333  0.0228  0.1071
14082TIP3    H163661   6.302   4.329   1.975 -0.3585 -0.7078 -0.4206
14082TIP3    H263662   6.423   4.395   1.912 -0.4713  0.3283  0.4139
14083TIP3   OH263663   2.323   1.143   0.170  0.2285  0.2679  0.1507
14083TIP3    H163664   2.414   1.159   0.144  0.2595  0.3417  0.2989
14083TIP3    H263665   2.327   1.135   0.265  0.2912 -1.2283  0.0381
14084TIP3   OH263666   3.849   2.586  14.880  0.1073 -0.7950  0.0333
14084TIP3    H163667   3.880   2.521  14.817  2.2448  0.4199 -0.2509
14084TIP3    H263668   3.894   2.564  14.962  0.5035  0.0315  0.0526
14085TIP3   OH263669   4.451   3.575   2.052 -0.2338 -0.4569 -0.0169
14085TIP3    H163670   4.456   3.509   2.121 -2.1859 -2.0100 -1.2714
14085TIP3    H263671   4.538   3.577   2.014  0.2254 -1.2898  0.9458
14086TIP3   OH263672   2.945   4.807  12.917 -0.1956  0.4330 -0.4537
14086TIP3    H163673   2.915   4.894  12.941  1.3338  0.4077  1.9094
14086TIP3    H263674   2.947   4.807  12.822 -0.8485  2.7408 -0.5225
14087TIP3   OH263675   6.779   0.927  11.934  0.3376 -0.2813  0.6717
14087TIP3    H163676   6.819   0.844  11.909  0.6373  0.3606 -1.2037
14087TIP3    H263677   6.737   0.958  11.854  0.8570  1.6914  1.1043
14088TIP3   OH263678   0.397   5.064   0.009  0.5081  0.1749 -0.3530
14088TIP3    H163679   0.464   5.118  -0.033  1.5395 -1.9396 -1.5970
14088TIP3    H263680   0.359   5.013  -0.063 -1.8590  0.6760  0.4627
14089TIP3   OH263681   3.978   4.132  16.496 -0.4796 -0.6547  0.2202
14089TIP3    H163682   3.997   4.059  16.556 -1.2517  0.3616  1.7665
14089TIP3    H263683   3.883   4.130  16.487 -0.6597  0.9229  1.3571
14090TIP3   OH263684   6.386   1.489  15.766  0.2297  0.0296 -0.4538
14090TIP3    H163685   6.301   1.447  15.777 -0.5171  1.5885 -0.0091
14090TIP3    H263686   6.418   1.503  15.856  1.0864 -0.7486 -0.6159
14091TIP3   OH263687   4.165   6.517   3.058 -0.2734  0.5016  1.0330
14091TIP3    H163688   4.083   6.566   3.061 -0.1266  0.8508 -0.1189
14091TIP3    H263689   4.233   6.583   3.070 -0.0102  0.8723 -1.8256
14092TIP3   OH263690   2.452   2.486  13.233  0.2479 -0.3841  0.0772
14092TIP3    H163691   2.388   2.461  13.299  0.7257  2.4051  1.7800
14092TIP3    H263692   2.401   2.500  13.153 -0.8582 -0.7138  0.7104
14093TIP3   OH263693   6.538   4.219  12.461  0.1770  0.5223 -0.5171
14093TIP3    H163694   6.489   4.158  12.516  1.0888 -0.5895 -0.9101
14093TIP3    H263695   6.471   4.263  12.408 -0.4914 -0.1255 -0.2185
14094TIP3   OH263696   6.079   6.273   4.133  0.3494 -0.0818 -0.2191
14094TIP3    H163697   6.118   6.302   4.215  2.1772  1.8693 -1.6415
14094TIP3    H263698   6.001   6.328   4.123 -0.2457 -0.7818  0.4880
14095TIP3   OH263699   6.692   0.842  15.150 -0.1931  0.0611 -0.1971
14095TIP3    H163700   6.766   0.897  15.175 -0.5774 -0.0702  1.3390
14095TIP3    H263701   6.642   0.831  15.231 -1.5650 -0.3578 -1.0655
14096TIP3   OH263702   3.304   5.097  15.852 -0.2228  0.3419  0.0793
14096TIP3    H163703   3.270   5.187  15.855 -1.1681  0.0109  3.4919
14096TIP3    H263704   3.337   5.081  15.940 -1.9166 -3.2927  0.2188
14097TIP3   OH263705   0.673   5.361  15.001  0.2224 -0.1236 -0.2736
14097TIP3    H163706   0.672   5.423  14.929 -3.5734  0.3999 -0.0110
14097TIP3    H263707   0.719   5.406  15.072  2.4949  0.0229 -1.7673
14098TIP3   OH263708   2.400   2.636   3.545 -0.6804  0.4131 -0.1416
14098TIP3    H163709   2.451   2.711   3.576 -0.5120  0.4338 -0.4611
14098TIP3    H263710   2.430   2.622   3.455 -1.9781  1.0703 -0.7063
14099TIP3   OH263711   1.683   6.176   0.599  0.0157  0.5097  0.5258
14099TIP3    H163712   1.698   6.250   0.657  3.1008 -0.2048  0.7829
14099TIP3    H263713   1.749   6.111   0.624 -0.4017 -0.9815 -1.8870
14100TIP3   OH263714   6.760   3.100   0.612  0.1514 -0.3041  0.4614
14100TIP3    H163715   6.695   3.077   0.678 -0.3919  2.0161  0.8214
14100TIP3    H263716   6.749   3.194   0.599  0.3070 -0.6084 -2.8851
14101TIP3   OH263717   0.975   0.204  11.110 -0.2491  0.1312  0.2281
14101TIP3    H163718   0.981   0.275  11.047 -0.8889 -0.3647 -0.4056
14101TIP3    H263719   0.924   0.136  11.065  1.1529 -1.1196  0.4670
14102TIP3   OH263720   6.432   5.640   4.696 -0.0176  0.4997 -0.0248
14102TIP3    H163721   6.516   5.684   4.686  0.6657 -0.8006 -0.1152
14102TIP3    H263722   6.450   5.548   4.681 -1.4226  0.1632  0.1683
14103TIP3   OH263723   6.409   3.213  11.455  0.1960  0.0364  0.0739
14103TIP3    H163724   6.415   3.295  11.504 -1.7431  1.0896 -1.2900
14103TIP3    H263725   6.419   3.145  11.521 -2.1851  1.3615  1.9762
14104TIP3   OH263726   1.975   6.281  16.648 -0.5162 -0.8777 -0.6377
14104TIP3    H163727   2.003   6.219  16.580  0.7111 -1.7414  0.6038
14104TIP3    H263728   1.990   6.235  16.730 -2.3725 -0.0197  0.2516
14105TIP3   OH263729   0.193   0.822  12.341  0.2174 -0.0517  0.2645
14105TIP3    H163730   0.216   0.810  12.433  0.2174  0.0669  0.2799
14105TIP3    H263731   0.100   0.844  12.342 -0.1812 -1.6201  0.1282
14106TIP3   OH263732   4.249   5.287   5.700 -0.0614  0.2354 -0.4764
14106TIP3    H163733   4.264   5.377   5.672  1.7321 -0.5767 -2.3692
14106TIP3    H263734   4.308   5.275   5.775  1.7550 -0.0967 -1.8965
14107TIP3   OH263735   4.206   1.643  11.862 -0.6506  0.5617 -0.1441
14107TIP3    H163736   4.146   1.675  11.929 -1.8484 -0.7170 -0.5655
14107TIP3    H263737   4.293   1.660  11.897 -1.2467  0.0144  1.6759
14108TIP3   OH263738   6.453   1.996   0.273 -0.2302 -0.1764  0.4166
14108TIP3    H163739   6.383   2.051   0.237  0.4907  0.1153 -0.5849
14108TIP3    H263740   6.425   1.977   0.362 -1.5399  0.0180  0.0717
14109TIP3   OH263741   0.002   5.958  12.701  0.3494  0.1284 -0.6411
14109TIP3    H163742  -0.088   5.930  12.719  1.2120 -0.8558  2.9738
14109TIP3    H263743  -0.008   6.036  12.646 -2.6741 -0.2453 -0.7979
14110TIP3   OH263744   2.814   2.253  11.810 -0.5663 -0.2160 -0.2133
14110TIP3    H163745   2.806   2.333  11.757  0.5113 -0.1840 -0.3485
14110TIP3    H263746   2.844   2.284  11.895 -0.0000 -0.4885 -0.3110
14111TIP3   OH263747   3.978   5.722  16.968 -0.5411 -0.1508  0.1481
14111TIP3    H163748   3.916   5.658  17.002 -0.6909  0.3091  0.7678
14111TIP3    H263749   3.927   5.775  16.906 -0.9040  0.5122  0.9902
14112TIP3   OH263750   3.393   3.978   1.421 -0.0272 -0.4496 -0.2467
14112TIP3    H163751   3.446   3.975   1.500  0.3369 -1.3797 -0.5068
14112TIP3    H263752   3.385   4.071   1.400  0.7448 -0.2536  0.3051
14113TIP3   OH263753   1.305   0.016  12.805  0.0756  0.4229  0.0574
14113TIP3    H163754   1.229  -0.005  12.751  0.9879  0.7947 -1.4357
14113TIP3    H263755   1.327  -0.067  12.848 -0.2746 -0.0491 -0.6518
14114TIP3   OH263756   2.648   4.223   1.459  0.2079 -0.5033  0.6720
14114TIP3    H163757   2.725   4.191   1.507  0.2056 -1.2756  0.1903
14114TIP3    H263758   2.677   4.225   1.368 -0.2180 -0.4077  0.5381
14115TIP3   OH263759   2.702   2.169   3.954  0.4950  0.4576  0.7209
14115TIP3    H163760   2.656   2.169   4.037  0.6454  0.6335  0.8048
14115TIP3    H263761   2.757   2.091   3.956 -0.0040  0.0953  0.5050
14116TIP3   OH263762   2.456   0.341  13.379 -0.6886  0.1206  0.4509
14116TIP3    H163763   2.468   0.426  13.337 -1.3676 -0.2570 -0.5645
14116TIP3    H263764   2.393   0.357  13.449 -2.0353  0.1986 -0.7217
14117TIP3   OH263765   6.776   5.958  14.696 -0.2344 -0.5127 -0.0313
14117TIP3    H163766   6.846   5.960  14.761 -0.1481 -2.4654  0.0009
14117TIP3    H263767   6.796   6.030  14.637  1.5448 -0.7183  0.2616
14118TIP3   OH263768   2.244   3.296   4.643  0.1384 -0.7415  0.1167
14118TIP3    H163769   2.233   3.335   4.557  0.1669  0.2010  0.5310
14118TIP3    H263770   2.174   3.231   4.649  0.3321 -1.0368 -0.7310
14119TIP3   OH263771   4.189   6.255  14.433 -0.1587  0.0685 -0.4284
14119TIP3    H163772   4.197   6.326  14.369  1.1016  1.9155  1.6436
14119TIP3    H263773   4.280   6.234  14.456 -0.5834  0.0019  1.2754
14120TIP3   OH263774   4.417   4.999   5.916  0.5042 -0.9977 -0.3392
14120TIP3    H163775   4.375   4.979   6.000 -2.3620 -2.2202 -1.9005
14120TIP3    H263776   4.368   4.946   5.853  2.2657  0.2185 -2.8568
14121TIP3   OH263777   0.983   2.843   0.709  0.4709 -0.2061  0.6720
14121TIP3    H163778   0.902   2.846   0.659  0.6956  0.8408  0.3436
14121TIP3    H263779   0.984   2.756   0.749 -0.0093 -0.8498 -0.6571
14122TIP3   OH263780   3.625   4.773   3.371  0.4206 -0.6397  0.0188
14122TIP3    H163781   3.631   4.766   3.275  1.4098  1.8281 -0.1876
14122TIP3    H263782   3.700   4.826   3.395 -1.1087  0.8368  1.8705
14123TIP3   OH263783   2.271   3.922  13.698  0.2282 -0.0839  0.1570
14123TIP3    H163784   2.214   3.846  13.712  1.0846 -1.0835 -1.3788
14123TIP3    H263785   2.358   3.892  13.726  0.9645 -0.4308 -2.2527
14124TIP3   OH263786   3.247   3.782  13.484 -0.1584  0.1054 -0.1388
14124TIP3    H163787   3.178   3.721  13.510 -0.1287 -0.5881 -1.5778
14124TIP3    H263788   3.327   3.729  13.484  0.1087  0.5085  0.0225
14125TIP3   OH263789   1.597   2.344   2.046 -0.0007 -0.3834 -0.7574
14125TIP3    H163790   1.637   2.276   2.100 -0.0934 -0.1080 -0.3315
14125TIP3    H263791   1.544   2.296   1.982 -0.4831 -0.7077 -0.1337
14126TIP3   OH263792   0.001   3.240  13.445 -0.4092  0.0283 -0.3612
14126TIP3    H163793  -0.091   3.264  13.435 -0.4689  0.0267  0.1640
14126TIP3    H263794   0.031   3.220  13.356 -1.0000 -0.2798 -0.4920
14127TIP3   OH263795   0.512   6.466   2.898  0.6367  0.5050  0.2950
14127TIP3    H163796   0.577   6.532   2.874  1.5822 -0.9058 -1.2354
14127TIP3    H263797   0.520   6.398   2.831 -0.8813 -0.7855  1.3260
14128TIP3   OH263798   1.971   1.350  15.477  0.3617 -0.1895 -0.1669
14128TIP3    H163799   1.885   1.329  15.442  0.2770 -0.3811  0.1565
14128TIP3    H263800   2.026   1.276  15.453  0.2693 -0.3884  0.2239
14129TIP3   OH263801   2.833   3.791  15.548 -0.6015 -0.6449  0.4222
14129TIP3    H163802   2.812   3.773  15.640 -0.0917  0.1224  0.6988
14129TIP3    H263803   2.918   3.751  15.534 -0.0249  0.4340  0.6981
14130TIP3   OH263804   2.834   1.681   5.554 -0.1623  0.2414  0.1612
14130TIP3    H163805   2.879   1.646   5.478  0.1396 -1.2357  0.9877
14130TIP3    H263806   2.893   1.748   5.589  0.9404 -0.9505  0.6339
14131TIP3   OH263807   3.124   3.383  14.715  0.0563 -0.4886  0.2477
14131TIP3    H163808   3.163   3.377  14.628 -1.9321 -0.6990 -0.6699
14131TIP3    H263809   3.122   3.293  14.747  0.2284 -0.4878  0.2617
14132TIP3   OH263810   4.459   5.859   5.013 -0.2532  0.0654 -0.0715
14132TIP3    H163811   4.423   5.941   4.978 -0.1098 -0.4445 -1.4524
14132TIP3    H263812   4.554   5.871   5.009 -0.2248  0.2313  0.7521
14133TIP3   OH263813   2.695   0.497   3.953 -0.0016 -0.0572 -0.2926
14133TIP3    H163814   2.635   0.535   3.888 -2.0867  1.2076  2.1692
14133TIP3    H263815   2.748   0.571   3.983  0.9314 -0.6202 -0.5369
14134TIP3   OH263816   5.941   6.093  16.772  0.6425  0.2740 -0.0159
14134TIP3    H163817   5.847   6.107  16.759  0.6720  1.6516  1.0094
14134TIP3    H263818   5.947   6.018  16.830  0.2823 -1.2125 -1.8196
14135TIP3   OH263819   1.471   6.619   6.392 -0.0258 -0.1933  0.4486
14135TIP3    H163820   1.558   6.627   6.353 -0.1967 -0.0128  0.1035
14135TIP3    H263821   1.488   6.617   6.487  0.1939  3.1195  0.6115
14136TIP3   OH263822   0.620   5.557   4.155 -0.4028 -0.3521 -0.0156
14136TIP3    H163823   0.698   5.544   4.102 -0.5202 -0.8117 -0.0837
14136TIP3    H263824   0.566   5.618   4.105 -0.7374 -1.1716 -0.6705
14137TIP3   OH263825   3.144   4.512   1.865 -0.2559  0.3309  0.0428
14137TIP3    H163826   3.139   4.420   1.837 -0.8605  0.3425  0.0935
14137TIP3    H263827   3.155   4.561   1.784 -1.5926  0.3330 -0.1583
14138TIP3   OH263828   4.205   5.193  13.506  0.3835 -0.5705 -0.3789
14138TIP3    H163829   4.280   5.239  13.544  0.3186 -1.0262  0.3058
14138TIP3    H263830   4.197   5.230  13.418  2.7624 -2.0162 -1.3104
14139TIP3   OH263831   3.246   6.266   5.778  0.0318 -0.1304 -0.0443
14139TIP3    H163832   3.162   6.255   5.732 -0.3920  0.8928  0.4613
14139TIP3    H263833   3.295   6.187   5.757 -1.2585 -0.9872  0.0556
14140TIP3   OH263834   2.139   3.463   4.878  0.3574  0.3746 -0.3535
14140TIP3    H163835   2.179   3.416   4.804  1.4985 -0.2061  0.6041
14140TIP3    H263836   2.045   3.458   4.860  0.4122 -2.2288 -0.3665
14141TIP3   OH263837   3.762   3.378  12.392  0.7599 -0.5681  0.2226
14141TIP3    H163838   3.826   3.376  12.321 -2.0655 -2.6437 -2.5246
14141TIP3    H263839   3.803   3.328  12.463  3.4994  1.1894  0.0460
14142TIP3   OH263840   4.794   6.639  16.510  0.7098  0.4339 -0.4395
14142TIP3    H163841   4.790   6.635  16.415  0.7675 -1.8086 -0.4114
14142TIP3    H263842   4.855   6.569  16.535 -0.7710 -0.3414  1.2877
14143TIP3   OH263843   3.762   2.713   1.878 -0.3585  0.1288  0.0399
14143TIP3    H163844   3.765   2.623   1.910  3.3934  0.2262  0.4238
14143TIP3    H263845   3.669   2.737   1.881 -1.6307 -3.9350 -0.8633
14144TIP3   OH263846   3.956   0.843  13.683  0.2718 -0.0164  0.2483
14144TIP3    H163847   4.014   0.898  13.736 -0.4757 -0.0826  1.1702
14144TIP3    H263848   3.872   0.888  13.685 -0.1301 -0.7485  0.3106
14145TIP3   OH263849   4.815   0.961   5.757 -0.0206 -0.2449  0.2417
14145TIP3    H163850   4.885   0.910   5.796  0.8646  1.2531  0.6806
14145TIP3    H263851   4.825   0.947   5.662  0.0568 -1.0502  0.3652
14146TIP3   OH263852   2.883   5.319   3.297  0.6718 -0.3858  0.0870
14146TIP3    H163853   2.807   5.262   3.288 -0.6103  1.5520 -2.3772
14146TIP3    H263854   2.916   5.300   3.385 -0.9112 -3.3333  0.1876
14147TIP3   OH263855   2.015   0.267   4.885  0.2594  0.2535  0.3741
14147TIP3    H163856   2.092   0.211   4.871 -1.4009 -1.8391 -1.0358
14147TIP3    H263857   1.969   0.226   4.958 -0.9835 -0.2776 -0.6721
14148TIP3   OH263858   2.249   3.646   0.451  0.2166 -0.2876  0.4227
14148TIP3    H163859   2.310   3.715   0.424  0.4360 -0.3140  0.8401
14148TIP3    H263860   2.279   3.568   0.404  0.6245 -0.3429  0.7619
14149TIP3   OH263861   2.512   5.158   5.786 -0.0079  0.1150  0.2020
14149TIP3    H163862   2.459   5.111   5.722 -2.3441  3.2775 -0.4312
14149TIP3    H263863   2.456   5.230   5.816  2.9702  2.0926  1.5800
14150TIP3   OH263864   4.693   2.751  13.717  0.2802  0.1883 -0.1523
14150TIP3    H163865   4.648   2.834  13.702  0.9293  0.8768  1.5574
14150TIP3    H263866   4.783   2.767  13.691 -0.1236 -0.8705 -2.5120
14151TIP3   OH263867   3.999   5.158   3.170 -0.3739 -0.1114 -0.9408
14151TIP3    H163868   3.924   5.100   3.182 -0.5281 -0.1673 -2.0723
14151TIP3    H263869   3.968   5.244   3.197 -0.8597 -0.1296 -1.4321
14152TIP3   OH263870   5.502   6.182   2.921  0.0193  0.4259 -0.2413
14152TIP3    H163871   5.564   6.179   2.994  2.1282 -0.0856 -1.9536
14152TIP3    H263872   5.475   6.091   2.908  0.1029  0.4291 -0.4504
14153TIP3   OH263873   0.891   6.680   0.593  0.5485  0.4066 -0.6674
14153TIP3    H163874   0.859   6.608   0.647 -1.6096  1.9318  0.2332
14153TIP3    H263875   0.962   6.642   0.541  2.7135 -1.2131  3.0651
14154TIP3   OH263876   3.899   3.168  17.223  0.6503  0.4001  0.6197
14154TIP3    H163877   3.866   3.244  17.175  0.8250 -1.0072 -1.8943
14154TIP3    H263878   3.825   3.139  17.276  0.7971  2.6677  2.2531
14155TIP3   OH263879   3.006   6.505  16.740  0.6238  0.1622  0.5817
14155TIP3    H163880   2.997   6.522  16.646  1.9927 -0.3455  0.3313
14155TIP3    H263881   3.082   6.557  16.767  0.3153  0.2094  1.3871
14156TIP3   OH263882   6.094   4.983  12.353  0.2512 -0.3933 -0.0996
14156TIP3    H163883   6.112   4.951  12.264 -0.1269 -0.1664 -0.2585
14156TIP3    H263884   6.060   4.907  12.400  1.1440 -0.7032  0.0637
14157TIP3   OH263885   0.783   1.773   2.702  0.0640  0.2002  0.2965
14157TIP3    H163886   0.748   1.735   2.782 -1.3437  0.1497 -0.3159
14157TIP3    H263887   0.839   1.845   2.731  0.5744 -0.6108  1.3573
14158TIP3   OH263888   5.785   3.558   2.191 -0.0001 -0.3173  0.5551
14158TIP3    H163889   5.795   3.645   2.153 -0.9387 -0.5620 -0.2858
14158TIP3    H263890   5.872   3.518   2.184 -0.2053 -0.4577 -1.6016
14159TIP3   OH263891   5.454   4.081  11.782  0.3330  0.6196 -0.1136
14159TIP3    H163892   5.452   4.175  11.765 -0.5734  0.6661  0.1632
14159TIP3    H263893   5.528   4.068  11.842  1.1606  0.9879 -1.0410
14160TIP3   OH263894   4.083   0.533   3.632 -0.2227  0.1786  0.5598
14160TIP3    H163895   4.142   0.465   3.663  0.6601  0.6936  0.0420
14160TIP3    H263896   4.007   0.486   3.598  0.2878 -0.5409  0.3996
14161TIP3   OH263897   2.471   0.761   2.135  0.3587 -0.8904 -0.2389
14161TIP3    H163898   2.415   0.801   2.200 -0.8850  1.2722 -2.4865
14161TIP3    H263899   2.447   0.668   2.136 -1.8858 -0.3590  0.2405
14162TIP3   OH263900   4.567   6.059   6.167 -0.4324 -0.0725 -0.6469
14162TIP3    H163901   4.606   6.078   6.082 -1.5732  1.0316 -0.9560
14162TIP3    H263902   4.578   6.140   6.217 -0.3418 -0.4973  0.0259
14163TIP3   OH263903   1.096   5.328  16.908  0.0031 -0.4027  0.3532
14163TIP3    H163904   1.164   5.376  16.859 -1.5070 -1.0110 -2.5647
14163TIP3    H263905   1.136   5.243  16.927  0.3658 -0.4604 -0.6152
14164TIP3   OH263906   5.727   2.568  13.056  0.2391  0.4720 -0.4944
14164TIP3    H163907   5.692   2.593  13.141  0.0124  2.4080 -1.0918
14164TIP3    H263908   5.650   2.540  13.006  0.2116  0.4090 -0.4173
14165TIP3   OH263909   0.611   4.117   4.552 -0.5070  0.1316 -0.4768
14165TIP3    H163910   0.661   4.134   4.472  1.7263 -0.8525  0.6272
14165TIP3    H263911   0.631   4.190   4.609  0.9816 -1.0092  0.5356
14166TIP3   OH263912   5.108   4.769  14.008 -0.0416  0.6102 -0.1565
14166TIP3    H163913   5.188   4.783  14.058  1.2944  0.2079 -2.0560
14166TIP3    H263914   5.095   4.852  13.961  0.7443 -0.1447 -1.7843
14167TIP3   OH263915   0.254   3.203   1.439 -0.1629 -0.2379  0.6679
14167TIP3    H163916   0.234   3.170   1.351  1.4222  0.3153  0.0632
14167TIP3    H263917   0.188   3.270   1.455 -0.6776 -0.5802  0.0457
14168TIP3   OH263918   1.940   1.236   2.202  0.3683 -0.1610 -0.1068
14168TIP3    H163919   1.909   1.310   2.149  0.9018 -0.9001 -1.4800
14168TIP3    H263920   1.871   1.225   2.268 -0.4816  0.5722 -0.8338
14169TIP3   OH263921   4.029   3.978  14.559  0.1014 -0.1012  0.3911
14169TIP3    H163922   3.973   3.931  14.620  1.8860 -1.2080  1.2311
14169TIP3    H263923   3.993   4.067  14.557 -0.2825 -0.1528  2.7021
14170TIP3   OH263924   4.131   3.616  12.535 -0.0121 -0.3948 -0.1928
14170TIP3    H163925   4.178   3.657  12.607  2.9530 -1.3614 -1.3892
14170TIP3    H263926   4.039   3.618  12.561  0.7183  1.0420  2.6681
14171TIP3   OH263927   3.366   3.532  12.069  0.2938 -0.6258 -0.4079
14171TIP3    H163928   3.429   3.603  12.073 -0.2231 -0.2056  1.3863
14171TIP3    H263929   3.418   3.453  12.051  1.2909 -0.2415  0.7043
14172TIP3   OH263930   5.442   6.453  13.410 -0.2383  0.2556  0.0114
14172TIP3    H163931   5.410   6.425  13.496 -0.7460  1.2212  0.1463
14172TIP3    H263932   5.374   6.424  13.349  0.3744 -0.9142 -0.1556
14173TIP3   OH263933   0.916   6.688  11.801  0.8065 -0.0772 -0.2986
14173TIP3    H163934   0.993   6.687  11.745  0.8062  1.5915 -0.3770
14173TIP3    H263935   0.913   6.777  11.837  0.6326 -0.9726  2.1123
14174TIP3   OH263936   2.825   1.644  14.747 -0.2380  0.0079 -0.5976
14174TIP3    H163937   2.798   1.625  14.657  0.0634  0.1054 -0.7111
14174TIP3    H263938   2.883   1.572  14.771 -0.8687 -0.3846 -0.2301
14175TIP3   OH263939   1.052   5.476  16.441 -0.2435 -0.4894  0.1062
14175TIP3    H163940   0.966   5.435  16.456  0.3444 -1.1822  1.7378
14175TIP3    H263941   1.077   5.512  16.526 -0.5635  3.0872 -1.1512
14176TIP3   OH263942   4.136   6.234  16.181  0.0964 -0.5454  0.3148
14176TIP3    H163943   4.117   6.264  16.270 -0.4137  0.2628 -0.0564
14176TIP3    H263944   4.118   6.140  16.183 -0.6170 -0.4047  0.8692
14177TIP3   OH263945   0.496   5.046  10.839 -0.4833 -0.0489  0.4674
14177TIP3    H163946   0.404   5.059  10.861 -0.2566  0.9612  0.8882
14177TIP3    H263947   0.497   5.029  10.745 -1.0706  0.2461  0.4094
14178TIP3   OH263948   3.863   0.185  14.725 -0.0983  0.7368 -0.4699
14178TIP3    H163949   3.787   0.242  14.719  0.1490  1.0395 -0.8141
14178TIP3    H263950   3.841   0.122  14.794  0.5798  2.6899  1.6526
14179TIP3   OH263951   5.899   4.308  12.692 -0.2995  0.1849 -0.1068
14179TIP3    H163952   5.924   4.221  12.661 -1.3935  0.0225 -0.5580
14179TIP3    H263953   5.958   4.324  12.767  1.1632 -0.1494 -1.1391
14180TIP3   OH263954   3.765   2.082  12.106 -0.8999  0.0969 -0.0884
14180TIP3    H163955   3.804   2.161  12.144 -0.7456  0.7285 -1.5008
14180TIP3    H263956   3.673   2.086  12.131 -0.6378  0.0512  0.9204
14181TIP3   OH263957   2.383   0.189   3.564  0.5386 -0.1934  0.4613
14181TIP3    H163958   2.447   0.119   3.557 -0.2304 -1.3291  3.4350
14181TIP3    H263959   2.426   0.257   3.615 -0.1966 -0.4622  1.4639
14182TIP3   OH263960   1.919   2.943   0.887 -0.0780 -0.1747 -0.8046
14182TIP3    H163961   1.873   3.025   0.869 -4.6202 -1.6739  2.1052
14182TIP3    H263962   1.880   2.880   0.827  0.7606 -0.9251 -0.5876
14183TIP3   OH263963   6.285   5.639  16.801  0.2921  0.0860 -0.0101
14183TIP3    H163964   6.345   5.585  16.853 -1.2277 -0.0522  1.7041
14183TIP3    H263965   6.240   5.578  16.743 -1.3968 -0.5995  1.8972
14184TIP3   OH263966   1.424   3.511   3.805 -0.4475 -0.1025 -0.2458
14184TIP3    H163967   1.428   3.454   3.728  0.2392  1.2630 -1.2783
14184TIP3    H263968   1.337   3.498   3.841 -1.4216  0.4737 -2.2832
14185TIP3   OH263969   1.814   0.080  16.519 -0.3401 -0.3723 -0.3492
14185TIP3    H163970   1.798   0.090  16.613 -1.7078 -0.4376 -0.5532
14185TIP3    H263971   1.801   0.168  16.483  1.7472  0.0002 -0.2955
14186TIP3   OH263972   0.037   2.185   0.270  0.0301 -0.0341 -0.4795
14186TIP3    H163973   0.130   2.199   0.250 -0.1733  1.5192 -0.5126
14186TIP3    H263974   0.029   2.214   0.361 -0.3204 -0.6702 -0.3109
14187TIP3   OH263975   6.694   1.602  11.647  0.1768  0.2777  0.2419
14187TIP3    H163976   6.658   1.673  11.594  0.1744  1.5967  1.9321
14187TIP3    H263977   6.789   1.607  11.633  0.0452 -1.0681 -1.5974
14188TIP3   OH263978   6.428   0.409   6.116 -0.0382 -0.1244  0.1486
14188TIP3    H163979   6.343   0.370   6.135 -1.5654  1.6747 -2.3580
14188TIP3    H263980   6.410   0.475   6.048  3.3588  0.3177 -0.5180
14189TIP3   OH263981   2.239   1.356   2.020  0.0700  0.4868  0.3073
14189TIP3    H163982   2.212   1.439   1.981 -1.4008 -0.3148 -0.4630
14189TIP3    H263983   2.181   1.291   1.981  1.8727 -1.0823  0.0763
14190TIP3   OH263984   0.556   2.810   1.676  0.2365 -0.8144 -0.1731
14190TIP3    H163985   0.610   2.746   1.630  0.0792 -0.6665 -0.5656
14190TIP3    H263986   0.571   2.893   1.629 -0.4021 -0.7910 -0.3478
14191TIP3   OH263987   0.242   5.298   5.855 -0.2149 -0.1433  0.2856
14191TIP3    H163988   0.186   5.365   5.893  0.3339 -0.2564  1.3376
14191TIP3    H263989   0.288   5.259   5.930 -0.8512 -2.0085 -0.2322
14192TIP3   OH263990   4.663   3.124  14.086 -0.0825 -0.0456  0.3307
14192TIP3    H163991   4.662   3.187  14.014  3.1379  0.0122  0.1931
14192TIP3    H263992   4.682   3.176  14.164 -0.8040 -0.4470  0.7855
14193TIP3   OH263993   1.007   1.384  15.363 -0.1221 -0.0344 -0.1553
14193TIP3    H163994   1.003   1.421  15.451  1.5889 -0.6044  0.2000
14193TIP3    H263995   1.012   1.460  15.305 -0.2882  0.3275  0.2976
14194TIP3   OH263996   0.545   6.319   3.755  0.2057  0.0922 -0.0932
14194TIP3    H163997   0.493   6.325   3.675  0.1495 -1.1748 -0.1780
14194TIP3    H263998   0.578   6.229   3.756  0.9178  0.3411  0.8732
14195TIP3   OH263999   2.693   2.602  14.519 -0.1050 -0.5433 -0.1045
14195TIP3    H164000   2.751   2.534  14.554 -1.0406 -1.1389  0.3562
14195TIP3    H264001   2.746   2.650  14.456  0.5949 -1.6993 -0.4192
14196TIP3   OH264002   2.190   2.146  13.681 -0.4354  0.3210 -0.6130
14196TIP3    H164003   2.148   2.232  13.689  0.1022  0.4777  0.6272
14196TIP3    H264004   2.282   2.165  13.662 -0.5688 -0.0099 -1.6688
14197TIP3   OH264005   1.177   1.675  10.993  0.4944  0.0792 -0.2343
14197TIP3    H164006   1.198   1.766  10.974  3.9139  0.0248  2.3372
14197TIP3    H264007   1.130   1.678  11.077  0.4851 -0.4871 -0.2136
14198TIP3   OH264008   0.659   4.068  13.265  0.4031 -0.4476 -0.2069
14198TIP3    H164009   0.661   4.038  13.356  0.7809 -0.3828 -0.1922
14198TIP3    H264010   0.726   4.136  13.261 -0.3909  0.3387 -0.2626
14199TIP3   OH264011   1.113   3.152  13.620  0.7710 -0.0319  0.3714
14199TIP3    H164012   1.021   3.161  13.645  0.5170  1.7381 -1.0620
14199TIP3    H264013   1.159   3.218  13.673  0.6132  1.8016 -1.6543
14200TIP3   OH264014   5.845   4.894   3.463 -0.0029  0.7272 -0.0721
14200TIP3    H164015   5.926   4.942   3.452 -0.1739  0.8866 -0.6426
14200TIP3    H264016   5.791   4.919   3.389 -1.0068  1.4766  0.8811
14201TIP3   OH264017   2.361   2.581  12.966  0.1316 -0.8371 -0.2397
14201TIP3    H164018   2.356   2.489  12.941  0.7586 -0.7261 -0.7944
14201TIP3    H264019   2.439   2.614  12.922  0.0265 -0.0866  0.1147
14202TIP3   OH264020   0.018   4.637   0.042  0.2134  0.1376  0.3678
14202TIP3    H164021   0.099   4.689   0.044  1.6132 -1.9260  1.5285
14202TIP3    H264022   0.001   4.615   0.134  0.0635 -1.9094 -0.0887
14203TIP3   OH264023   3.260   3.099  13.908 -0.1823 -0.0870  0.1843
14203TIP3    H164024   3.219   3.060  13.831 -0.3900 -0.3570  0.4320
14203TIP3    H264025   3.249   3.034  13.977  1.3471 -0.4980  0.0678
14204TIP3   OH264026   1.431   5.196   3.648  0.2630  0.3264  0.0685
14204TIP3    H164027   1.392   5.172   3.732 -0.9299  1.6615 -0.0567
14204TIP3    H264028   1.493   5.266   3.670  1.8356 -1.0175  0.1169
14205TIP3   OH264029   0.610   3.936  15.105  0.6203  0.0866  0.1020
14205TIP3    H164030   0.696   3.912  15.072  2.7338  1.0418  4.1860
14205TIP3    H264031   0.611   4.032  15.107 -0.8506  0.1376 -0.4558
14206TIP3   OH264032   6.115   3.439  12.369  0.4585  0.1563  0.4363
14206TIP3    H164033   6.062   3.438  12.449  0.7409  1.6757  0.6650
14206TIP3    H264034   6.057   3.405  12.301 -0.1949  0.0524  1.0366
14207TIP3   OH264035   1.756   0.467  11.674 -0.1794  0.1298  0.4567
14207TIP3    H164036   1.717   0.425  11.597 -0.3626  0.0055  0.6192
14207TIP3    H264037   1.846   0.433  11.677 -0.3523 -0.3178  0.6373
14208TIP3   OH264038   2.673   3.377   0.528  0.1515  0.2966  0.2394
14208TIP3    H164039   2.752   3.387   0.581  0.2242  0.3077  0.1291
14208TIP3    H264040   2.670   3.457   0.475  0.5396 -0.0897 -0.3854
14209TIP3   OH264041   3.744   2.812  10.704  0.7251 -0.2547  0.4699
14209TIP3    H164042   3.711   2.896  10.738 -1.1538 -0.6618 -0.2129
14209TIP3    H264043   3.787   2.835  10.622 -1.5665 -0.1081 -0.7793
14210TIP3   OH264044   4.264   1.183  16.787 -0.6958 -0.2332 -0.1590
14210TIP3    H164045   4.269   1.110  16.726  0.3243 -0.8044  0.5589
14210TIP3    H264046   4.217   1.147  16.863 -0.8138  0.0646 -0.0909
14211TIP3   OH264047   3.768   5.710   5.892  0.4992  0.0615  0.1812
14211TIP3    H164048   3.732   5.798   5.897 -0.6007 -0.2505 -1.4053
14211TIP3    H264049   3.863   5.723   5.887  0.4128  1.0897  0.9987
14212TIP3   OH264050   5.794   2.144   3.371 -0.0331  0.9302  0.2009
14212TIP3    H164051   5.881   2.147   3.330  0.2032  1.2186  0.7192
14212TIP3    H264052   5.736   2.113   3.301  0.9626 -2.2789  0.6229
14213TIP3   OH264053   3.537   0.605  13.812  0.3325  0.1138 -0.0693
14213TIP3    H164054   3.464   0.644  13.765  0.0748 -0.8015 -0.4528
14213TIP3    H264055   3.532   0.643  13.900 -0.5301  0.1541 -0.1283
14214TIP3   OH264056   3.799   3.211   3.030  0.7775 -0.3700 -0.1520
14214TIP3    H164057   3.820   3.159   3.107 -1.2096 -1.6657 -0.4235
14214TIP3    H264058   3.744   3.155   2.977  0.3473  1.2602 -1.5267
14215TIP3   OH264059   3.796   4.726  15.360 -0.6130 -0.4644  0.0791
14215TIP3    H164060   3.762   4.641  15.332 -3.0230  0.1315  0.9877
14215TIP3    H264061   3.722   4.786  15.352  0.2740  0.9951  1.9568
14216TIP3   OH264062   4.434   1.343   4.826  0.1267  0.1677 -0.6420
14216TIP3    H164063   4.389   1.326   4.909 -3.0922  0.0488 -2.2588
14216TIP3    H264064   4.434   1.438   4.817 -2.0702  0.1250 -1.6831
14217TIP3   OH264065   0.488   3.337  13.463 -0.1084  0.4924 -0.0532
14217TIP3    H164066   0.433   3.302  13.393 -0.9410 -0.4381  1.0380
14217TIP3    H264067   0.518   3.421  13.429  1.2868 -0.8428 -2.4265
14218TIP3   OH264068   4.004   0.867   2.925 -0.2002  0.2593  0.3222
14218TIP3    H164069   4.049   0.945   2.892 -1.4167  1.3122  1.0725
14218TIP3    H264070   3.914   0.876   2.894  0.0141 -1.8018 -1.1309
14219TIP3   OH264071   4.153   5.857   0.589  0.1341 -0.2080 -0.3673
14219TIP3    H164072   4.105   5.776   0.573 -0.4761 -0.0568  0.6016
14219TIP3    H264073   4.084   5.924   0.597  0.4674 -0.0081  1.1521
14220TIP3   OH264074   4.970   0.157   6.802 -0.4092  0.1753 -0.1405
14220TIP3    H164075   5.027   0.125   6.733 -0.3775 -2.7680  1.1015
14220TIP3    H264076   4.885   0.118   6.783 -0.6612  0.1912  0.8867
14221TIP3   OH264077   4.475   0.337  12.842  0.0509  0.2607 -0.3189
14221TIP3    H164078   4.506   0.303  12.926 -0.3300  2.2138  0.6720
14221TIP3    H264079   4.547   0.392  12.811 -0.3201  0.5747 -0.6207
14222TIP3   OH264080   2.143   1.569  16.474 -0.3758 -0.3038 -0.4985
14222TIP3    H164081   2.079   1.589  16.407 -0.7248  0.5172  0.0632
14222TIP3    H264082   2.205   1.642  16.471 -0.7785  0.0966  0.5152
14223TIP3   OH264083   5.702   4.919  15.956 -0.0493  0.9986  0.3556
14223TIP3    H164084   5.697   4.823  15.950  1.3928  0.9639 -0.7904
14223TIP3    H264085   5.697   4.949  15.865  3.2874  1.7333  0.2860
14224TIP3   OH264086   4.004   0.095   5.618 -0.3747  0.1999 -0.0983
14224TIP3    H164087   3.976   0.016   5.571  0.1927 -0.3539  0.4670
14224TIP3    H264088   4.092   0.112   5.586  1.5450 -2.2898  3.1959
14225TIP3   OH264089   3.726   3.087  10.763 -0.6284  0.7092  0.5613
14225TIP3    H164090   3.744   3.153  10.830 -0.7196  0.9264  0.3716
14225TIP3    H264091   3.709   3.137  10.683  2.1253  0.4269 -0.3006
14226TIP3   OH264092   3.243   4.944  16.797 -0.2894  0.0381 -0.5762
14226TIP3    H164093   3.315   4.930  16.858 -1.7373 -0.4367  1.1156
14226TIP3    H264094   3.181   5.000  16.844 -0.9240  0.6884 -2.0853
14227TIP3   OH264095   2.436   4.708  12.197 -0.1699 -0.1716  0.3399
14227TIP3    H164096   2.444   4.653  12.275 -1.6264 -0.7883  0.0840
14227TIP3    H264097   2.344   4.735  12.196 -0.0508  0.2438 -0.8976
14228TIP3   OH264098   4.291   6.225   2.607  0.6775  0.4219 -0.3454
14228TIP3    H164099   4.343   6.294   2.566  1.1307  0.8700  0.9082
14228TIP3    H264100   4.309   6.235   2.701 -0.1614 -0.6668 -0.0485
14229TIP3   OH264101   5.289   0.320  11.012  0.4691 -0.2068  0.2296
14229TIP3    H164102   5.339   0.269  10.948  1.5578 -0.2210  1.0625
14229TIP3    H264103   5.198   0.310  10.984  0.8309 -0.9996 -0.7502
14230TIP3   OH264104   5.260   6.053   2.188  0.1236  0.6745  0.3660
14230TIP3    H164105   5.291   6.089   2.271 -1.0134 -0.8238  1.5242
14230TIP3    H264106   5.336   6.053   2.131  0.6281  2.9494  0.9468
14231TIP3   OH264107   5.594   1.012   1.625  0.2008 -0.2351 -0.3401
14231TIP3    H164108   5.522   1.028   1.564  0.3401  0.2830 -0.3704
14231TIP3    H264109   5.673   1.030   1.575  0.3081  0.4298  0.0540
14232TIP3   OH264110   2.342   0.116  15.332  0.2467 -0.2889 -0.1591
14232TIP3    H164111   2.360   0.117  15.426  0.3936 -2.2424 -0.1260
14232TIP3    H264112   2.259   0.069  15.325 -0.2293  0.6384 -0.9677
14233TIP3   OH264113   1.024   2.249  16.090  0.0068 -1.0765 -1.0092
14233TIP3    H164114   1.057   2.220  16.176 -1.0073  2.8685  0.9545
14233TIP3    H264115   0.940   2.204  16.081  0.0298 -1.4175  0.1766
14234TIP3   OH264116   5.841   0.654  16.477  0.2693  0.3855  0.2040
14234TIP3    H164117   5.814   0.711  16.406  0.9976  0.0467 -0.3576
14234TIP3    H264118   5.910   0.599  16.440  1.3903  0.8964  1.4310
14235TIP3   OH264119   6.164   1.761   5.850 -0.2565 -0.1911 -0.1743
14235TIP3    H164120   6.225   1.691   5.873 -0.9073 -0.4825  0.7474
14235TIP3    H264121   6.078   1.718   5.845 -0.6386  0.4951  0.2041
14236TIP3   OH264122   3.896   1.455   6.420 -0.2310 -0.6974 -0.6291
14236TIP3    H164123   3.957   1.460   6.347 -0.6538 -1.4598 -1.0430
14236TIP3    H264124   3.945   1.488   6.495 -0.2354  1.5020 -1.5225
14237TIP3   OH264125   5.591   3.007  11.678 -0.1959  0.3660  0.2050
14237TIP3    H164126   5.571   2.917  11.653 -2.6703  0.8896 -0.0029
14237TIP3    H264127   5.676   3.026  11.637 -0.4729 -1.2982 -1.2183
14238TIP3   OH264128   1.014   4.507   3.605  0.3069  0.0661  0.5651
14238TIP3    H164129   0.992   4.432   3.661 -1.9523  1.3400  1.5323
14238TIP3    H264130   0.942   4.514   3.544  1.7270 -0.0048 -1.2079
14239TIP3   OH264131   6.412   0.647   5.947 -0.1998 -0.3470  0.1688
14239TIP3    H164132   6.457   0.732   5.955  0.8609 -0.8358 -0.4129
14239TIP3    H264133   6.436   0.616   5.860 -0.6202 -1.2349  0.3656
14240TIP3   OH264134   3.529   5.634  11.676  0.4557 -0.0978  0.1664
14240TIP3    H164135   3.594   5.665  11.613  0.7726 -0.7192  0.1810
14240TIP3    H264136   3.579   5.616  11.756  0.0352  0.8168  0.6465
14241TIP3   OH264137   6.453   1.487   6.347 -0.5007  0.4242 -0.3723
14241TIP3    H164138   6.536   1.482   6.394 -1.9441 -1.9897  2.2706
14241TIP3    H264139   6.417   1.572   6.370  0.2646  0.5639  0.3421
14242TIP3   OH264140   4.471   2.630  13.804 -0.7301 -0.6537  0.5328
14242TIP3    H164141   4.559   2.664  13.791 -0.1974 -2.1657  0.0133
14242TIP3    H264142   4.413   2.700  13.771  0.2918  0.0423  0.1744
14243TIP3   OH264143   2.624   4.349  13.403  0.3096 -0.0191  0.4161
14243TIP3    H164144   2.624   4.419  13.338 -0.7702  0.1495  0.5781
14243TIP3    H264145   2.590   4.272  13.357  1.9752 -0.6087  0.0944
14244TIP3   OH264146   1.483   2.259   3.052  0.4733  0.2201 -0.1803
14244TIP3    H164147   1.562   2.298   3.015  0.9573 -0.5241  0.0406
14244TIP3    H264148   1.480   2.292   3.142 -0.2096  1.3069 -0.5792
14245TIP3   OH264149   0.815   2.593   1.289 -0.0477 -0.0698 -0.3507
14245TIP3    H164150   0.764   2.522   1.250  0.2540 -0.4662 -0.0397
14245TIP3    H264151   0.831   2.654   1.217  1.9532 -1.6156 -1.3153
14246TIP3   OH264152   4.189   4.092   5.060  0.2837 -0.2466  0.1546
14246TIP3    H164153   4.114   4.120   5.009 -0.9892  0.9699  2.5066
14246TIP3    H264154   4.215   4.009   5.022 -1.0669  0.1960 -1.8908
14247TIP3   OH264155   5.537   6.325   2.699 -0.4236  0.5920 -0.2947
14247TIP3    H164156   5.601   6.366   2.757  0.0164  0.5664 -0.7599
14247TIP3    H264157   5.484   6.270   2.757 -0.5682  1.2602  0.2250
14248TIP3   OH264158   3.290   4.653   2.362 -0.2301 -0.0903 -0.3088
14248TIP3    H164159   3.380   4.682   2.377 -0.1437  0.2042 -1.2744
14248TIP3    H264160   3.236   4.728   2.387 -0.1267  0.1783 -0.8721
14249TIP3   OH264161   1.694   3.264  10.721  0.1743 -0.5272  0.2900
14249TIP3    H164162   1.619   3.284  10.776  0.4561  0.8333  0.2266
14249TIP3    H264163   1.666   3.191  10.666 -1.0807 -0.0798  0.3133
14250TIP3   OH264164   2.568   4.037   0.738 -0.0882 -0.0453 -0.0411
14250TIP3    H164165   2.483   3.995   0.724  0.8952 -1.6825 -1.5021
14250TIP3    H264166   2.551   4.104   0.804 -2.6964  0.3134 -0.9723
14251TIP3   OH264167   6.192   1.247  17.195 -0.2777 -0.1185 -0.1513
14251TIP3    H164168   6.105   1.235  17.234 -0.0391  0.6935  0.6546
14251TIP3    H264169   6.252   1.203  17.256  0.0429  0.7493  0.1826
14252TIP3   OH264170   4.473   3.331  14.642 -0.1888 -0.0246  0.4081
14252TIP3    H164171   4.567   3.339  14.657 -0.3360  0.7531  0.9468
14252TIP3    H264172   4.464   3.330  14.546  0.4184 -0.8585  0.3518
14253TIP3   OH264173   3.745   5.480   0.055 -0.4700 -0.2483 -0.8108
14253TIP3    H164174   3.674   5.540   0.077 -1.3855 -0.8493 -1.9988
14253TIP3    H264175   3.732   5.405   0.112  1.2232  0.9626  1.3510
14254TIP3   OH264176   3.460   5.845  12.499 -0.4149  0.4215 -0.0301
14254TIP3    H164177   3.450   5.890  12.415 -2.7617  0.7250  0.3167
14254TIP3    H264178   3.393   5.777  12.497  1.3253 -1.3846  0.5428
14255TIP3   OH264179   0.705   2.326  10.445  0.0822  0.5102  0.5169
14255TIP3    H164180   0.663   2.305  10.528 -0.2307  0.5486  0.3710
14255TIP3    H264181   0.647   2.391  10.404 -0.3511 -0.3285 -0.2343
14256TIP3   OH264182   1.879   4.349   2.007 -0.2721  0.0668  0.3676
14256TIP3    H164183   1.899   4.281   1.942 -0.1423 -0.8396  1.3331
14256TIP3    H264184   1.796   4.386   1.977  1.2043  1.7616 -1.9732
14257TIP3   OH264185   5.694   1.520   0.210 -0.0037  0.6876 -0.0601
14257TIP3    H164186   5.748   1.513   0.289 -0.2943  0.3184  0.1166
14257TIP3    H264187   5.621   1.459   0.227  0.4463 -0.1427 -1.0341
14258TIP3   OH264188   4.997   1.883  16.932 -0.2592  0.1151 -0.1626
14258TIP3    H164189   5.029   1.808  16.983  0.9283  0.9503  0.3790
14258TIP3    H264190   4.903   1.867  16.921 -0.2270 -0.9047  0.8970
14259TIP3   OH264191   3.655   3.905  17.134  0.5286  0.4057  0.0040
14259TIP3    H164192   3.740   3.931  17.170 -0.5329 -0.0774  3.1184
14259TIP3    H264193   3.619   3.843  17.197 -1.1883 -1.2507 -2.3960
14260TIP3   OH264194   1.850   3.856  15.237  0.6102 -0.4287  0.4107
14260TIP3    H164195   1.888   3.782  15.284 -0.1759 -0.7100  0.6226
14260TIP3    H264196   1.854   3.831  15.145 -0.5869 -1.1920  0.5530
14261TIP3   OH264197   4.551   5.533   3.622  0.0106 -0.5491 -0.6075
14261TIP3    H164198   4.608   5.457   3.625 -0.6159 -1.0072  0.0162
14261TIP3    H264199   4.547   5.557   3.530  0.3547 -1.1587 -0.7857
14262TIP3   OH264200   4.464   2.349  12.824 -0.2901 -0.1056  0.4366
14262TIP3    H164201   4.528   2.420  12.824  0.1574 -0.4958  0.7562
14262TIP3    H264202   4.397   2.377  12.762 -0.6695  1.0676  1.3498
14263TIP3   OH264203   0.260   4.931   2.806  0.2926  0.0326 -0.1642
14263TIP3    H164204   0.313   4.880   2.744  1.6385  0.9131  0.2306
14263TIP3    H264205   0.317   4.944   2.882 -0.9250 -0.0330  0.8042
14264TIP3   OH264206   6.416   0.762   1.958 -0.8083  0.5817  0.3330
14264TIP3    H164207   6.408   0.809   2.041  0.3179 -1.7650  1.8812
14264TIP3    H264208   6.401   0.671   1.981  0.4692 -0.2600 -1.8904
14265TIP3   OH264209   3.391   5.651   0.908 -0.2423  0.0878  0.5322
14265TIP3    H164210   3.336   5.714   0.861 -0.9862 -1.6072 -0.9728
14265TIP3    H264211   3.431   5.702   0.979  0.9065  2.7952 -1.8706
14266TIP3   OH264212   2.301   0.568  11.792  0.2679  0.4934  0.5451
14266TIP3    H164213   2.279   0.525  11.875  0.2557  1.4755  1.0641
14266TIP3    H264214   2.314   0.659  11.815 -0.8292  1.0054 -0.7096
14267TIP3   OH264215   0.223   4.479   5.184  0.0003 -0.0659 -0.2637
14267TIP3    H164216   0.251   4.564   5.150  0.4585  0.4009  1.2081
14267TIP3    H264217   0.256   4.477   5.274 -0.4511 -1.5898 -0.1055
14268TIP3   OH264218   5.297   2.979   6.055  0.2514 -0.1598  0.1278
14268TIP3    H164219   5.350   2.906   6.023 -0.2345 -0.7467  0.6516
14268TIP3    H264220   5.350   3.019   6.125  0.0815 -0.6410  0.5351
14269TIP3   OH264221   1.967   0.351   5.288 -0.1931 -0.4116  0.4333
14269TIP3    H164222   1.947   0.441   5.261 -2.1042 -0.9443 -0.1190
14269TIP3    H264223   2.047   0.329   5.240 -0.5165  0.5140 -0.5727
14270TIP3   OH264224   2.261   6.676  15.820  0.4623 -0.1939 -0.1366
14270TIP3    H164225   2.279   6.586  15.796 -0.6803 -0.0838 -1.5201
14270TIP3    H264226   2.205   6.710  15.750 -1.5021  0.7244  1.7289
14271TIP3   OH264227   3.084   1.071  13.584  0.5399 -0.4625 -0.3863
14271TIP3    H164228   3.129   1.149  13.618  0.7806  0.0819 -1.8813
14271TIP3    H264229   2.993   1.100  13.572  0.4569 -0.6492 -0.2020
14272TIP3   OH264230   0.379   2.452  15.040  0.8838  0.1981  0.5876
14272TIP3    H164231   0.426   2.372  15.062 -0.7382 -0.4598  1.8273
14272TIP3    H264232   0.377   2.502  15.122  0.6725  0.8690  0.1808
14273TIP3   OH264233   5.158   5.880   1.682  0.0706  0.4072  0.0028
14273TIP3    H164234   5.189   5.935   1.610 -1.0915 -0.9090 -1.5576
14273TIP3    H264235   5.102   5.938   1.734  2.2809  1.8661  0.9507
14274TIP3   OH264236   3.802   0.025  13.779 -0.3183 -0.6964 -0.4663
14274TIP3    H164237   3.803   0.116  13.810 -0.6073 -0.5588 -0.8558
14274TIP3    H264238   3.863   0.024  13.705 -0.1149 -0.8803 -0.2976
14275TIP3   OH264239   1.597   4.950  14.914  0.1125  1.0357  0.1721
14275TIP3    H164240   1.528   4.935  14.979 -0.2445  2.5748  0.1934
14275TIP3    H264241   1.551   4.979  14.836  0.6409  0.5638 -0.3231
14276TIP3   OH264242   4.852   5.106   3.576  0.5615  0.1318 -0.7443
14276TIP3    H164243   4.773   5.064   3.609  0.5496  0.9572  0.3586
14276TIP3    H264244   4.889   5.044   3.514  0.0504 -1.0810  0.1288
14277TIP3   OH264245   3.544   5.691   3.077 -0.0181  0.1099 -0.1691
14277TIP3    H164246   3.616   5.652   3.026  1.6320  0.7716  1.5541
14277TIP3    H264247   3.530   5.629   3.149 -0.6613  0.3887 -0.0481
14278TIP3   OH264248   5.491   1.719   2.655 -0.1321 -0.1860  0.3022
14278TIP3    H164249   5.585   1.702   2.655  0.3143  1.9767  0.7326
14278TIP3    H264250   5.472   1.758   2.740 -1.4869 -0.8337  0.3344
14279TIP3   OH264251   5.655   2.489  15.246 -0.5462 -0.2446 -0.1332
14279TIP3    H164252   5.647   2.448  15.160 -0.3446 -0.4121 -0.0717
14279TIP3    H264253   5.641   2.418  15.309  1.3502 -0.5734 -0.0115
14280TIP3   OH264254   2.909   0.410   2.506 -0.4361 -0.2505 -0.0976
14280TIP3    H164255   2.975   0.449   2.448  1.0915 -0.4298  1.4445
14280TIP3    H264256   2.849   0.483   2.526  1.3283  0.8920  1.2722
14281TIP3   OH264257   4.876   6.333   0.995  0.1376  0.7364  0.4407
14281TIP3    H164258   4.789   6.321   1.034  0.6878 -3.0831  0.8792
14281TIP3    H264259   4.863   6.314   0.902  0.3201  1.2189  0.3160
14282TIP3   OH264260   0.383   4.172   0.177  0.2099 -0.1259 -0.5517
14282TIP3    H164261   0.406   4.083   0.202  1.0712  0.2675  0.1063
14282TIP3    H264262   0.291   4.182   0.203  0.6760 -0.1770  1.2335
14283TIP3   OH264263   3.560   4.951  15.372 -0.0609 -0.4360  0.6535
14283TIP3    H164264   3.555   5.025  15.311 -3.5258 -1.2017 -0.1526
14283TIP3    H264265   3.557   4.992  15.459  0.0141  0.4204  0.2656
14284TIP3   OH264266   2.647   1.174  15.590  0.9104 -0.3838 -0.5201
14284TIP3    H164267   2.669   1.246  15.649 -0.5909 -0.0322 -0.3710
14284TIP3    H264268   2.672   1.206  15.503 -1.4207  1.1021 -0.7165
14285TIP3   OH264269   0.907   4.476  16.342 -0.3874 -0.3757  0.2585
14285TIP3    H164270   0.835   4.486  16.404 -1.1305 -0.5308 -0.5555
14285TIP3    H264271   0.866   4.438  16.264  0.8037 -1.6581  0.2250
14286TIP3   OH264272   2.433   1.415  17.057  0.0770  0.3630 -0.0532
14286TIP3    H164273   2.351   1.382  17.020 -0.1511  0.7034  0.1485
14286TIP3    H264274   2.461   1.482  16.995  0.1418  0.3316 -0.0579
14287TIP3   OH264275   1.629   4.674   4.851 -0.6697 -0.1594  0.4030
14287TIP3    H164276   1.618   4.766   4.830  0.2353 -0.4479 -1.5151
14287TIP3    H264277   1.627   4.671   4.947  1.1307  2.1008  0.5942
14288TIP3   OH264278   2.594   1.065  14.393  0.4677  0.3092 -0.1408
14288TIP3    H164279   2.638   1.136  14.346 -0.4336  1.0054  0.0305
14288TIP3    H264280   2.502   1.091  14.394  0.5080  0.6236  2.5022
14289TIP3   OH264281   2.279   1.415  12.316  0.0183 -0.1046 -0.0557
14289TIP3    H164282   2.355   1.458  12.277 -0.1127  0.0986 -0.0904
14289TIP3    H264283   2.298   1.321  12.310  0.4727 -0.0442  0.3507
14290TIP3   OH264284   3.340   5.939   3.355  0.2565  0.2908 -0.2081
14290TIP3    H164285   3.317   5.904   3.269 -1.9838  0.6494  0.1835
14290TIP3    H264286   3.310   6.030   3.352 -1.0757 -0.0469  1.3598
14291TIP3   OH264287   3.385   4.597  15.787 -0.2578  0.2966  0.5848
14291TIP3    H164288   3.431   4.679  15.769 -0.3250  0.5226  1.4212
14291TIP3    H264289   3.349   4.571  15.702  1.3331  0.1628 -0.0938
14292TIP3   OH264290   5.511   0.246  12.655 -0.5977 -0.6741  0.0013
14292TIP3    H164291   5.544   0.306  12.722  1.2981 -1.6321 -0.0244
14292TIP3    H264292   5.563   0.265  12.577 -2.1162 -0.2497 -0.9626
14293TIP3   OH264293   4.326   5.785   1.659  0.4006 -0.3411  0.3592
14293TIP3    H164294   4.407   5.736   1.644  1.1061  1.3070 -1.7469
14293TIP3    H264295   4.343   5.836   1.738  1.6120  0.2654 -0.2566
14294TIP3   OH264296   5.985   4.529  12.377  0.5467 -0.4369  0.3445
14294TIP3    H164297   5.972   4.494  12.465 -1.9511  2.6069  1.3612
14294TIP3    H264298   5.897   4.540  12.342  1.4568 -1.4118 -2.5875
14295TIP3   OH264299   2.698   0.699   1.235 -0.0977  0.1614  0.3321
14295TIP3    H164300   2.716   0.606   1.252 -0.6991 -0.0703 -0.2175
14295TIP3    H264301   2.645   0.727   1.310  1.7509  0.6183  1.5132
14296TIP3   OH264302   6.519   5.769  11.215 -0.4798  0.5509  0.1358
14296TIP3    H164303   6.560   5.747  11.299  0.2556  0.9007 -0.1174
14296TIP3    H264304   6.550   5.701  11.155 -0.6728  0.5377  0.0501
14297TIP3   OH264305   0.674   4.601   1.550  0.1853  0.2368  0.5275
14297TIP3    H164306   0.726   4.628   1.626 -1.0797  1.9377  0.8368
14297TIP3    H264307   0.735   4.608   1.476  0.6924  1.2541  1.0135
14298TIP3   OH264308   0.125   6.611  12.526  0.2624  0.2872 -0.3395
14298TIP3    H164309   0.219   6.596  12.537  0.8467  0.8411 -3.5304
14298TIP3    H264310   0.116   6.706  12.526 -0.5203  0.2426  0.9838
14299TIP3   OH264311   3.949   1.413  12.985  0.4450  0.2113 -0.5856
14299TIP3    H164312   3.942   1.460  13.068  2.5769 -0.3328 -0.0551
14299TIP3    H264313   3.858   1.404  12.955 -0.1587  3.4732 -0.0780
14300TIP3   OH264314   6.103   0.309   2.468 -0.4299  0.2163 -0.0087
14300TIP3    H164315   6.033   0.330   2.406 -0.3195  1.2750  0.2042
14300TIP3    H264316   6.159   0.386   2.467  1.0184 -0.8049 -0.5452
14301TIP3   OH264317   4.013   3.469  11.442 -0.2223 -0.3843  0.4672
14301TIP3    H164318   3.953   3.398  11.466  1.6072 -2.0151  0.4378
14301TIP3    H264319   4.069   3.431  11.375 -0.1887  1.6354 -0.7204
14302TIP3   OH264320   4.615   3.909   6.077  0.3401 -0.3457 -0.0376
14302TIP3    H164321   4.711   3.916   6.083  0.4834 -2.2907  0.7347
14302TIP3    H264322   4.583   3.967   6.146  0.8574  1.5407 -1.3058
14303TIP3   OH264323   4.993   1.163   0.361 -0.2182 -0.3151  0.0077
14303TIP3    H164324   4.899   1.151   0.349 -0.3914 -0.6255  1.4459
14303TIP3    H264325   5.030   1.076   0.348 -0.2013 -0.3162  0.0648
14304TIP3   OH264326   5.929   3.838  11.371  0.2614 -0.3196  0.3243
14304TIP3    H164327   5.962   3.749  11.361  0.7439 -0.0618 -0.5136
14304TIP3    H264328   5.887   3.839  11.457 -1.3477 -1.8786 -0.3745
14305TIP3   OH264329   6.068   0.490   1.896  0.1033 -0.0633 -0.1106
14305TIP3    H164330   6.053   0.516   1.987  2.2981 -0.7557  0.5170
14305TIP3    H264331   6.103   0.568   1.854 -0.2178  0.0457 -0.1805
14306TIP3   OH264332   5.658   4.626  15.929 -0.1642  0.2912 -0.1970
14306TIP3    H164333   5.718   4.599  15.860  0.5792 -1.2727  1.0058
14306TIP3    H264334   5.689   4.581  16.007 -1.4486  1.3883  1.0042
14307TIP3   OH264335   3.300   1.445   0.093 -0.2427 -0.4504  0.0867
14307TIP3    H164336   3.259   1.372   0.141 -1.5225 -1.0612 -1.8397
14307TIP3    H264337   3.246   1.521   0.114 -1.6978 -1.0027 -1.4349
14308TIP3   OH264338   6.093   1.279  15.006 -0.4608 -0.1218  0.3365
14308TIP3    H164339   6.153   1.207  14.986  0.7864  1.5788 -2.6627
14308TIP3    H264340   6.136   1.327  15.077 -0.5791 -1.4372  1.3376
14309TIP3   OH264341   3.776   1.391  13.600  0.0699 -0.2128 -0.6451
14309TIP3    H164342   3.701   1.387  13.540  0.5910 -0.7775 -1.2709
14309TIP3    H264343   3.757   1.465  13.657 -0.4338  0.3516 -1.5207
14310TIP3   OH264344   0.953   1.259   2.719 -0.1725 -0.0575  0.0442
14310TIP3    H164345   0.961   1.169   2.752  1.3330  0.3318  0.8340
14310TIP3    H264346   0.862   1.266   2.690 -0.8807 -1.2318  1.7972
14311TIP3   OH264347   1.925   6.753  12.817 -0.6044 -0.4605 -0.7538
14311TIP3    H164348   1.957   6.711  12.897  2.2573 -0.5926 -1.8557
14311TIP3    H264349   1.954   6.696  12.747 -3.0529 -0.3362 -1.9723
14312TIP3   OH264350   6.686   2.350   1.426  0.1917  0.0395 -0.9801
14312TIP3    H164351   6.636   2.432   1.423 -0.6519 -0.2347  2.0662
14312TIP3    H264352   6.770   2.374   1.464 -0.5439 -0.5888  1.2298
14313TIP3   OH264353   1.198   3.638   1.401 -0.1500  0.2931  0.5977
14313TIP3    H164354   1.227   3.729   1.397  1.2782 -0.1426  0.2475
14313TIP3    H264355   1.156   3.621   1.317 -0.7144  0.7088  0.7901
14314TIP3   OH264356   6.130   2.368  12.113  0.7435 -0.1306  0.6018
14314TIP3    H164357   6.121   2.435  12.045 -0.1652 -0.6258  0.2179
14314TIP3    H264358   6.043   2.362  12.153  0.5418 -1.7157  0.0085
14315TIP3   OH264359   2.916   2.232  14.454  0.5083 -0.3492  0.1415
14315TIP3    H164360   2.861   2.243  14.376 -1.5973 -1.8691  1.3201
14315TIP3    H264361   2.899   2.310  14.507  0.9071  0.0383 -0.2867
14316TIP3   OH264362   6.256   5.847  17.044  0.0447 -0.4037  0.0207
14316TIP3    H164363   6.296   5.814  16.964 -0.3879  0.6912 -0.6676
14316TIP3    H264364   6.330   5.871  17.100  0.3491 -0.5464 -0.3191
14317TIP3   OH264365   1.048   2.141  15.609  0.1830 -0.6692 -0.3048
14317TIP3    H164366   1.063   2.227  15.649 -0.0751 -0.5521 -0.4585
14317TIP3    H264367   1.095   2.144  15.526  0.0733 -0.6328 -0.3655
14318TIP3   OH264368   0.810   2.085  11.030  0.1339 -0.1948  0.3350
14318TIP3    H164369   0.897   2.079  11.071 -0.4714  0.5641  1.7854
14318TIP3    H264370   0.825   2.139  10.952  1.1794 -1.1348 -0.1655
14319TIP3   OH264371   1.174   2.494  16.075  0.0082 -0.1769  0.2475
14319TIP3    H164372   1.242   2.478  16.141 -0.0378 -0.2208  0.2848
14319TIP3    H264373   1.124   2.412  16.072 -0.5076  0.1122  0.7577
14320TIP3   OH264374   4.956   4.107  11.890 -0.5318  0.3826  0.1476
14320TIP3    H164375   5.043   4.079  11.862  0.5120  0.6205  2.8401
14320TIP3    H264376   4.959   4.203  11.886 -0.7862  0.3793 -0.0996
14321TIP3   OH264377   0.360   0.357   2.799  0.2795  0.3386  0.1758
14321TIP3    H164378   0.452   0.384   2.794  0.0782  1.2913  1.2243
14321TIP3    H264379   0.346   0.305   2.720  0.4561  4.1094 -2.6752
14322TIP3   OH264380   4.670   3.523   4.237  0.1202 -0.2056 -0.6093
14322TIP3    H164381   4.746   3.516   4.179  0.3890  0.3738 -0.3385
14322TIP3    H264382   4.597   3.486   4.187  0.5954 -0.8326 -0.8415
14323TIP3   OH264383   6.153   6.567  13.153 -0.1185  0.5049 -0.0792
14323TIP3    H164384   6.102   6.647  13.161  0.2471  0.8522 -1.1569
14323TIP3    H264385   6.101   6.501  13.199  0.3440  1.6754  2.2708
14324TIP3   OH264386   1.392   5.973   3.972 -0.2126  0.3940 -0.5472
14324TIP3    H164387   1.421   6.060   4.002 -2.0876  0.4543  1.3240
14324TIP3    H264388   1.305   5.987   3.937 -0.8533 -0.8082  0.4670
14325TIP3   OH264389   6.271   1.481  11.863  0.4462 -0.0273  0.2579
14325TIP3    H164390   6.201   1.545  11.872  0.9894  0.5784  0.2229
14325TIP3    H264391   6.288   1.475  11.769  0.9644  0.4152  0.3140
14326TIP3   OH264392   3.680   1.240  13.340 -0.8950 -0.0720 -0.1284
14326TIP3    H164393   3.754   1.271  13.288 -0.8146  1.0319  0.5967
14326TIP3    H264394   3.640   1.320  13.374  0.1583 -0.7683  3.0305
14327TIP3   OH264395   1.451   2.864  14.857 -0.3231  0.0783 -0.4182
14327TIP3    H164396   1.506   2.835  14.785 -0.1307 -0.5613 -0.0182
14327TIP3    H264397   1.473   2.957  14.868 -1.7361  0.7080 -2.4030
14328TIP3   OH264398   3.134   0.570  12.903 -0.3625 -0.0468  0.2552
14328TIP3    H164399   3.126   0.609  12.816  1.6266 -1.6626 -0.7497
14328TIP3    H264400   3.063   0.506  12.908 -1.5907  1.2866  0.5971
14329TIP3   OH264401   0.066   2.587   1.449  0.6039  0.5819  0.0588
14329TIP3    H164402   0.074   2.520   1.517  1.5450  0.2049 -0.4058
14329TIP3    H264403   0.088   2.669   1.494 -1.0310  0.6823  0.7483
14330TIP3   OH264404   1.542   1.875  16.503 -0.1017  0.0573  0.3969
14330TIP3    H164405   1.450   1.858  16.523 -0.9107  2.0384 -1.2335
14330TIP3    H264406   1.545   1.884  16.408  1.7480  0.2302  0.4247
14331TIP3   OH264407   6.737   1.717   5.858  0.0457 -0.1979 -0.2140
14331TIP3    H164408   6.783   1.780   5.803 -1.3305 -1.2985 -2.8090
14331TIP3    H264409   6.770   1.631   5.828  0.7903 -0.8295  2.1983
14332TIP3   OH264410   0.240   0.528  14.003 -0.0401  0.0884 -0.4313
14332TIP3    H164411   0.314   0.479  14.038  0.0968  0.0648 -0.7435
14332TIP3    H264412   0.225   0.489  13.916 -2.1462 -1.7534  0.6489
14333TIP3   OH264413   1.628   5.543   5.394  0.3002 -0.1155  0.3667
14333TIP3    H164414   1.564   5.473   5.380  1.8276 -1.7216  1.1508
14333TIP3    H264415   1.633   5.553   5.489  0.0336  1.1750  0.2746
14334TIP3   OH264416   1.637   2.745  13.368 -0.7053  0.4438  0.1996
14334TIP3    H164417   1.557   2.702  13.397 -2.7175  3.7008 -0.0383
14334TIP3    H264418   1.645   2.722  13.276 -0.9101 -0.4923  0.4052
14335TIP3   OH264419   5.287   3.586  15.217 -0.5711 -0.2006  0.3546
14335TIP3    H164420   5.326   3.609  15.301 -1.5593 -0.1678  0.8264
14335TIP3    H264421   5.247   3.500  15.232  0.8183 -1.0442 -0.6284
14336TIP3   OH264422   6.079   5.094  11.865 -0.1020  0.3530 -0.1642
14336TIP3    H164423   6.110   5.039  11.793 -0.3089 -0.4050  0.3076
14336TIP3    H264424   6.100   5.183  11.839  3.7636 -0.1576  0.7067
14337TIP3   OH264425   5.708   2.500   1.981  0.4145  0.7976  0.2638
14337TIP3    H164426   5.779   2.446   1.946 -0.6323 -0.1755 -0.4404
14337TIP3    H264427   5.662   2.533   1.904 -0.3048  0.8437  0.6975
14338TIP3   OH264428   4.819   4.240   0.366 -0.7319 -0.5332  0.6898
14338TIP3    H164429   4.847   4.263   0.277 -4.8461  0.2971 -0.6288
14338TIP3    H264430   4.860   4.306   0.422  2.1260 -1.1910 -0.4448
14339TIP3   OH264431   4.396   4.854  15.453  0.1135  0.0568 -0.1653
14339TIP3    H164432   4.378   4.764  15.478  0.7359 -0.1098 -0.2998
14339TIP3    H264433   4.311   4.898  15.457 -0.7129 -1.1195 -2.5139
14340TIP3   OH264434   2.904   5.578   1.155 -0.0071  0.1914  0.5866
14340TIP3    H164435   2.828   5.635   1.156  0.1404  0.3868  0.8894
14340TIP3    H264436   2.972   5.629   1.111 -0.6007 -0.7184 -1.4847
14341TIP3   OH264437   1.284   5.472  16.762 -0.3846  0.1796 -0.1024
14341TIP3    H164438   1.321   5.434  16.682  0.5079  1.9094 -0.5526
14341TIP3    H264439   1.359   5.509  16.808 -1.1283  0.7812  0.6598
14342TIP3   OH264440   3.442   3.226   4.396 -0.2511  0.6787 -0.3454
14342TIP3    H164441   3.396   3.219   4.313 -0.4004  0.3584 -0.2347
14342TIP3    H264442   3.515   3.286   4.378  0.1691  0.0120 -0.9024
14343TIP3   OH264443   0.059   1.727   3.185 -0.4293 -0.0987 -0.3218
14343TIP3    H164444  -0.034   1.737   3.204 -0.5402 -0.5870 -0.5924
14343TIP3    H264445   0.093   1.816   3.184 -0.8118  0.0544  0.1957
14344TIP3   OH264446   3.857   6.597   2.111  0.1934 -0.4580  0.0502
14344TIP3    H164447   3.884   6.508   2.087  0.5847 -0.2652 -0.2411
14344TIP3    H264448   3.781   6.615   2.054 -0.6417 -1.0396  0.9453
14345TIP3   OH264449   1.784   4.103  14.004  0.2833  0.4769 -0.1154
14345TIP3    H164450   1.738   4.032  13.961  0.1275  1.4498 -1.6033
14345TIP3    H264451   1.876   4.088  13.982  0.3445  0.3005  0.2448
14346TIP3   OH264452   4.601   1.220  11.318  0.0846 -0.5270 -0.3432
14346TIP3    H164453   4.560   1.177  11.394 -0.4327 -1.6944 -1.2586
14346TIP3    H264454   4.688   1.245  11.350 -0.1299 -0.9805  0.6559
14347TIP3   OH264455   6.560   4.285   0.979  0.1433  0.5145  0.2638
14347TIP3    H164456   6.501   4.360   0.984  1.1123  1.4779 -1.8020
14347TIP3    H264457   6.630   4.312   0.920  1.0662 -1.6676  0.2415
14348TIP3   OH264458   6.103   0.352  15.589  0.5450  0.2385 -0.9271
14348TIP3    H164459   6.148   0.316  15.666  0.7334 -0.6093 -1.4152
14348TIP3    H264460   6.049   0.280  15.557 -0.1648  0.8431 -1.1187
14349TIP3   OH264461   3.743   0.424  16.393  0.2030  0.3358 -0.4035
14349TIP3    H164462   3.838   0.425  16.409  0.2577  2.8013 -0.5144
14349TIP3    H264463   3.706   0.391  16.475  1.0559  2.5829  1.0027
14350TIP3   OH264464   1.608   1.225  11.923 -0.1214 -0.2372 -0.3895
14350TIP3    H164465   1.586   1.214  12.016  2.5974  0.2106  0.4014
14350TIP3    H264466   1.660   1.305  11.921  1.3240 -1.1583 -2.0065
14351TIP3   OH264467   0.551   0.385   6.416  0.0768  0.5245  0.3838
14351TIP3    H164468   0.553   0.310   6.476  0.6424 -1.3683 -1.8031
14351TIP3    H264469   0.643   0.409   6.406  0.1891 -0.3721 -1.0227
14352TIP3   OH264470   2.649   5.037   3.867 -0.3515 -0.4162  0.0252
14352TIP3    H164471   2.574   5.084   3.903  1.8254  3.2861  0.2753
14352TIP3    H264472   2.612   4.979   3.801 -3.6844 -1.3552  2.4630
14353TIP3   OH264473   5.022   6.710  14.409 -0.1613  0.1986 -0.3873
14353TIP3    H164474   5.046   6.626  14.449  1.7640  1.5234  1.4440
14353TIP3    H264475   5.023   6.773  14.482 -1.4636  1.8643 -1.7151
14354TIP3   OH264476   6.104   6.689  12.003  0.3162  0.0108 -0.3162
14354TIP3    H164477   6.134   6.659  11.917 -0.8041 -1.6430 -0.1966
14354TIP3    H264478   6.039   6.757  11.984 -0.3157 -0.7181 -0.8282
14355TIP3   OH264479   3.683   5.425   1.274 -0.2340  0.3431  0.2270
14355TIP3    H164480   3.696   5.416   1.180 -0.1927  1.9301  0.0453
14355TIP3    H264481   3.590   5.408   1.288  0.0222 -1.2608  0.1143
14356TIP3   OH264482   5.270   2.521  13.807 -0.1601  0.5793 -0.3065
14356TIP3    H164483   5.250   2.605  13.765 -0.6044  1.2013  1.0964
14356TIP3    H264484   5.216   2.458  13.759 -1.2515  1.3918 -0.1981
14357TIP3   OH264485   1.451   5.909  14.906  0.3207  0.4293  0.2940
14357TIP3    H164486   1.366   5.935  14.870 -0.5913 -0.6440  1.6086
14357TIP3    H264487   1.431   5.847  14.975  2.2413 -0.7492 -0.1268
14358TIP3   OH264488   0.118   3.290  12.634 -0.4053  0.5464 -0.2901
14358TIP3    H164489   0.064   3.255  12.563  1.2432  2.0515 -2.4067
14358TIP3    H264490   0.201   3.313  12.593  1.3805 -0.2711  2.5488
14359TIP3   OH264491   5.268   0.034  11.413 -0.1898 -0.6145  0.1238
14359TIP3    H164492   5.361   0.036  11.435 -0.2068  0.3320  0.1438
14359TIP3    H264493   5.243   0.126  11.405 -1.1796 -0.8493  0.3557
14360TIP3   OH264494   1.795   5.772   1.934  0.1169 -0.6920  0.1398
14360TIP3    H164495   1.790   5.717   2.013 -1.5465 -2.2645 -0.9800
14360TIP3    H264496   1.707   5.807   1.924  0.2565 -0.6797 -1.1439
14361TIP3   OH264497   0.481   6.354   6.125 -0.4657 -0.6429  0.6155
14361TIP3    H164498   0.567   6.329   6.157  1.1601  2.0969 -1.1537
14361TIP3    H264499   0.469   6.444   6.156 -1.8114 -0.3222 -0.7148
14362TIP3   OH264500   3.908   2.188  11.762  0.3667 -0.0275  0.3428
14362TIP3    H164501   3.970   2.122  11.794 -1.2714 -1.4441  0.7732
14362TIP3    H264502   3.866   2.147  11.687 -1.5885 -0.0385  1.3791
14363TIP3   OH264503   6.280   5.615  13.289 -0.2658 -0.3073  0.1211
14363TIP3    H164504   6.239   5.545  13.339 -0.1202  0.0544  0.7725
14363TIP3    H264505   6.324   5.669  13.356 -0.7782  0.6668 -0.2990
14364TIP3   OH264506   6.139   1.642   1.703 -0.7775  0.1918  0.1373
14364TIP3    H164507   6.080   1.678   1.768 -0.5955  2.8528 -1.0026
14364TIP3    H264508   6.197   1.715   1.680 -1.2678 -0.3201 -3.4508
14365TIP3   OH264509   2.370   6.160  12.743 -0.4006  0.1848  0.6352
14365TIP3    H164510   2.418   6.115  12.813 -0.8996  1.3125  1.7475
14365TIP3    H264511   2.347   6.091  12.681  2.6444 -0.4302  0.0196
14366TIP3   OH264512   0.200   4.573   4.507  0.8768  0.2708  0.2646
14366TIP3    H164513   0.130   4.540   4.563  1.2395 -2.1522 -0.5923
14366TIP3    H264514   0.155   4.615   4.435  0.3616  0.8120  0.8926
14367TIP3   OH264515   6.172   5.190  11.590 -0.3385 -0.3136 -0.3104
14367TIP3    H164516   6.203   5.280  11.598 -0.8926 -0.1949  0.6181
14367TIP3    H264517   6.247   5.142  11.556  0.0196  0.4596 -0.6386
14368TIP3   OH264518   6.580   1.770   1.206 -0.1012  0.5072  0.1117
14368TIP3    H164519   6.518   1.734   1.270  1.6847 -3.0436  0.0961
14368TIP3    H264520   6.566   1.865   1.210 -2.8899  0.1511  2.7607
14369TIP3   OH264521   2.382   0.710  14.579  0.5394 -0.0361  0.3641
14369TIP3    H164522   2.471   0.743  14.580  0.7665 -0.6552  1.3789
14369TIP3    H264523   2.388   0.621  14.613 -0.4559 -0.0921  0.4361
14370TIP3   OH264524   2.152   3.389   4.400 -0.4518 -0.0866  0.3450
14370TIP3    H164525   2.113   3.455   4.343  1.0613  0.6575  0.1014
14370TIP3    H264526   2.079   3.333   4.427 -1.5481  0.8760 -0.5359
14371TIP3   OH264527   4.634   4.821  11.990 -0.3716 -0.5781 -0.1789
14371TIP3    H164528   4.617   4.755  12.057  1.6361 -0.3033  0.6946
14371TIP3    H264529   4.637   4.771  11.908 -1.5830 -1.1173  0.0792
14372TIP3   OH264530   6.765   4.569   0.313 -1.1160 -0.2403 -0.4828
14372TIP3    H164531   6.721   4.623   0.380 -0.4870 -1.5506  1.0684
14372TIP3    H264532   6.699   4.505   0.288 -0.6422 -1.2606  0.7319
14373TIP3   OH264533   2.614   0.898   3.235  0.1230  0.5367  0.4375
14373TIP3    H164534   2.554   0.936   3.299 -1.4451  0.7590 -1.0971
14373TIP3    H264535   2.656   0.973   3.193 -0.2500  0.4541 -0.0852
14374TIP3   OH264536   4.780   5.182   4.972  0.0419 -0.2266  0.2481
14374TIP3    H164537   4.735   5.185   4.887 -1.8284  0.8835  1.2416
14374TIP3    H264538   4.858   5.237   4.959  0.7722 -1.5107 -1.2444
14375TIP3   OH264539   4.868   3.842  12.826  0.3045 -0.0632 -0.5840
14375TIP3    H164540   4.831   3.781  12.890 -0.2372 -0.7032 -1.4977
14375TIP3    H264541   4.911   3.787  12.761  0.2695  0.5478 -1.1401
14376TIP3   OH264542   3.786   2.790   3.623  0.0429 -0.2467 -0.2192
14376TIP3    H164543   3.801   2.874   3.666  0.6140 -0.5516  0.1980
14376TIP3    H264544   3.787   2.810   3.530  0.5689  0.1538 -0.1357
14377TIP3   OH264545   1.738   2.216   4.281  0.5401 -0.5084 -0.3662
14377TIP3    H164546   1.743   2.126   4.249 -1.4893 -0.8385  0.1400
14377TIP3    H264547   1.720   2.207   4.375  0.6477  0.4274 -0.2444
14378TIP3   OH264548   2.456   5.923   2.696 -0.5421  0.1533 -0.5640
14378TIP3    H164549   2.485   5.951   2.609  1.0110  2.2912  0.5488
14378TIP3    H264550   2.371   5.966   2.707 -0.8531 -0.3068 -1.0744
14379TIP3   OH264551   5.813   4.860   2.134  0.4980  0.1092 -0.0936
14379TIP3    H164552   5.832   4.841   2.042 -0.0065 -1.5553  0.0966
14379TIP3    H264553   5.725   4.825   2.147  0.1115  1.3639  0.7528
14380TIP3   OH264554   0.053   5.055  10.503  0.3208 -0.5518  0.3047
14380TIP3    H164555   0.039   5.015  10.417  1.1249 -1.2945  0.5063
14380TIP3    H264556   0.046   4.983  10.565 -0.3767 -0.0010  0.8868
14381TIP3   OH264557   6.144   0.688  16.224  0.2549 -0.0391  0.0794
14381TIP3    H164558   6.099   0.725  16.300  0.1139 -0.8383  0.4005
14381TIP3    H264559   6.076   0.683  16.157  0.0762 -0.4327  0.2853
14382TIP3   OH264560   1.110   0.583   4.042  0.2417 -0.4352  0.2924
14382TIP3    H164561   1.183   0.583   3.980 -0.1596 -0.1659 -0.1894
14382TIP3    H264562   1.047   0.521   4.005  0.0552 -0.3731  0.5027
14383TIP3   OH264563   4.662   2.462  16.327  0.2036  0.6897  0.2098
14383TIP3    H164564   4.711   2.386  16.297  2.2236  1.9767  0.0799
14383TIP3    H264565   4.727   2.530  16.338 -1.6033  2.5972 -0.1941
14384TIP3   OH264566   2.596   2.945   5.116  0.2726  0.0482  0.3979
14384TIP3    H164567   2.525   2.928   5.177  0.8032  1.4247  1.4393
14384TIP3    H264568   2.603   3.040   5.112  1.0545 -0.0295 -0.8818
14385TIP3   OH264569   5.512   4.957   0.540 -0.5288  0.3283  0.6667
14385TIP3    H164570   5.474   4.955   0.452  2.1985 -1.8494 -0.6185
14385TIP3    H264571   5.443   4.922   0.596 -1.4611 -0.7247 -1.0515
14386TIP3   OH264572   3.307   6.260  14.694  0.4876  0.1866 -0.0456
14386TIP3    H164573   3.305   6.290  14.784 -0.0047 -0.1285  0.0507
14386TIP3    H264574   3.335   6.336  14.643 -2.1455  1.2906  0.0067
14387TIP3   OH264575   0.647   5.670  11.088 -0.3545 -0.3732  0.5762
14387TIP3    H164576   0.561   5.692  11.053 -0.0524 -0.9148 -0.5619
14387TIP3    H264577   0.638   5.582  11.123 -0.0198 -0.8688 -0.5251
14388TIP3   OH264578   2.324   5.093  10.297 -0.2755  0.5143 -0.1633
14388TIP3    H164579   2.229   5.084  10.295 -0.2322  0.1326 -1.2539
14388TIP3    H264580   2.350   5.053  10.380 -1.1072  1.2024  0.4446
14389TIP3   OH264581   6.083   5.452   1.731 -0.1972  0.1228  0.0031
14389TIP3    H164582   6.038   5.535   1.747  1.0162  1.2073 -1.8293
14389TIP3    H264583   6.172   5.465   1.763 -0.0713 -0.5776 -0.0374
14390TIP3   OH264584   2.919   0.583   1.539  0.2621 -0.1918 -0.0892
14390TIP3    H164585   2.946   0.518   1.603  0.6185  0.3634  0.3362
14390TIP3    H264586   2.848   0.631   1.581  2.2163  1.9315  1.0321
14391TIP3   OH264587   1.201   0.018  11.042 -0.7692 -0.2070  0.3041
14391TIP3    H164588   1.269  -0.008  10.979 -0.1415 -0.0058  0.8786
14391TIP3    H264589   1.136   0.065  10.990  1.1459  2.5885  0.1722
14392TIP3   OH264590   0.419   1.555  11.550  0.7289 -0.0112  0.0781
14392TIP3    H164591   0.433   1.505  11.470  0.1090 -0.0112 -0.0300
14392TIP3    H264592   0.404   1.644  11.520 -1.5637 -0.3455  0.0207
14393TIP3   OH264593   0.665   3.846   3.280 -0.3649 -0.0251  0.2193
14393TIP3    H164594   0.629   3.758   3.265 -0.5954 -0.4360  2.6457
14393TIP3    H264595   0.735   3.855   3.216 -1.9709 -0.9361 -1.7559
14394TIP3   OH264596   4.916   0.420  12.943  0.4383  0.0891 -0.0216
14394TIP3    H164597   4.879   0.403  13.029  2.3808  0.8351  1.0009
14394TIP3    H264598   4.969   0.343  12.923  0.3544  0.1141 -0.3451
14395TIP3   OH264599   4.031   5.145  12.458 -0.0852  0.7240  0.1090
14395TIP3    H164600   3.954   5.164  12.511 -0.9885 -0.6546 -0.6371
14395TIP3    H264601   4.092   5.103  12.518 -2.0446 -3.1194 -0.2782
14396TIP3   OH264602   2.106   2.616   0.736 -0.2742  0.0911  0.2720
14396TIP3    H164603   2.093   2.523   0.716 -1.5916  0.6343 -1.7835
14396TIP3    H264604   2.117   2.619   0.831 -0.7587 -2.1090  0.4583
14397TIP3   OH264605   2.793   4.803   2.458 -0.3261  0.0581 -0.2842
14397TIP3    H164606   2.794   4.864   2.384  1.7880 -0.6678 -0.9144
14397TIP3    H264607   2.799   4.859   2.535 -0.9824  0.7471 -0.7179
14398TIP3   OH264608   6.005   6.087   5.477 -0.1358 -0.0201  0.2701
14398TIP3    H164609   6.084   6.130   5.447  0.3621 -0.2365  1.2253
14398TIP3    H264610   6.019   5.994   5.457  0.8489 -0.3958  2.3980
14399TIP3   OH264611   5.573   4.917   4.753 -0.1032  0.3279 -0.5783
14399TIP3    H164612   5.544   4.978   4.685  1.0316  0.6161 -0.8253
14399TIP3    H264613   5.668   4.924   4.753  0.0362 -1.1422 -0.3162
14400TIP3   OH264614   2.179   2.502   6.620 -0.5837 -0.4346  0.6687
14400TIP3    H164615   2.150   2.411   6.615 -2.4238 -0.0638  2.7499
14400TIP3    H264616   2.101   2.550   6.650  0.5542  1.6904  0.4135
14401TIP3   OH264617   3.733   4.460  12.266 -0.8969 -0.2028  0.0186
14401TIP3    H164618   3.652   4.492  12.306 -0.6739  0.5484 -0.1174
14401TIP3    H264619   3.781   4.539  12.242  0.0016 -0.6425  0.3292
14402TIP3   OH264620   2.386   4.657   0.794 -0.0787 -0.2068  0.5904
14402TIP3    H164621   2.331   4.680   0.719  1.4248  0.3256 -0.3884
14402TIP3    H264622   2.353   4.712   0.865 -2.2482 -1.5143  0.6939
14403TIP3   OH264623   1.439   2.541   2.769 -0.4086  0.2563 -0.6664
14403TIP3    H164624   1.362   2.491   2.797 -0.4572  1.2657  1.1647
14403TIP3    H264625   1.513   2.498   2.812 -0.2246  0.6704 -0.5668
14404TIP3   OH264626   4.711   0.136   2.572 -0.4853 -0.3674  0.1177
14404TIP3    H164627   4.616   0.147   2.574 -0.4302  1.1475 -1.9733
14404TIP3    H264628   4.746   0.224   2.586  0.6442 -0.9670  1.2638
14405TIP3   OH264629   4.997   2.840  12.518 -0.3266  0.3843 -0.0835
14405TIP3    H164630   4.916   2.795  12.543 -0.6906  1.5049  0.8287
14405TIP3    H264631   5.008   2.909  12.584 -0.5798  2.5852 -2.2172
14406TIP3   OH264632   3.734   4.558   3.682  0.9086 -0.0925 -0.2513
14406TIP3    H164633   3.755   4.649   3.705  1.2445  0.4701 -2.5173
14406TIP3    H264634   3.817   4.511   3.690  1.5671  0.6010 -2.3815
14407TIP3   OH264635   5.929   1.797  14.261  0.2357 -1.2212 -0.0606
14407TIP3    H164636   5.856   1.800  14.323 -1.5673 -1.9197 -2.0490
14407TIP3    H264637   5.988   1.866  14.292 -2.2215  0.8238  0.5085
14408TIP3   OH264638   2.528   6.271   2.373 -0.5564  0.5343 -0.1266
14408TIP3    H164639   2.547   6.179   2.392  0.3330  1.0306  1.6426
14408TIP3    H264640   2.591   6.296   2.306  0.3351  0.2939  0.6117
14409TIP3   OH264641   1.808   1.434   1.119  0.1961  0.0471 -0.0226
14409TIP3    H164642   1.762   1.517   1.110  2.4028  1.2714 -0.7243
14409TIP3    H264643   1.804   1.414   1.213  1.7618  2.3145  0.6066
14410TIP3   OH264644   2.767   5.256   5.822  0.3875 -0.1823 -0.0336
14410TIP3    H164645   2.679   5.220   5.809  0.1909 -0.0667  0.9051
14410TIP3    H264646   2.821   5.211   5.758 -0.1364 -1.1168  0.1633
14411TIP3   OH264647   1.708   6.415  10.767  0.4821  0.1907  0.4998
14411TIP3    H164648   1.630   6.385  10.814  1.1666 -0.8313  1.0132
14411TIP3    H264649   1.702   6.511  10.770  0.0974  0.1421  1.9900
14412TIP3   OH264650   1.816   3.060  16.088 -0.2373 -0.1304  0.3313
14412TIP3    H164651   1.733   3.091  16.124  0.2314 -0.7197  1.9737
14412TIP3    H264652   1.854   3.006  16.157  2.2662  1.3914  0.2692
14413TIP3   OH264653   5.835   4.949  12.919 -0.0600  0.2705 -0.3583
14413TIP3    H164654   5.926   4.925  12.938 -0.3529 -0.1028  0.6576
14413TIP3    H264655   5.793   4.867  12.893 -0.5955 -0.0181  1.2556
14414TIP3   OH264656   3.112   2.018  15.454  0.4448  0.3085  0.3132
14414TIP3    H164657   3.160   2.074  15.514  1.6321 -0.6456  0.2988
14414TIP3    H264658   3.034   2.068  15.431  0.3886  1.0461  1.9647
14415TIP3   OH264659   6.256   1.427  11.296  0.1673 -0.4797  0.1106
14415TIP3    H164660   6.243   1.513  11.256  2.9133  0.6165  1.3015
14415TIP3    H264661   6.253   1.365  11.222 -0.0864  0.8489 -1.0290
14416TIP3   OH264662   0.098   0.953   3.818 -0.0364 -0.2348  0.3642
14416TIP3    H164663   0.046   0.946   3.898 -0.5955  0.1430  0.0367
14416TIP3    H264664   0.133   0.865   3.804 -1.4548 -0.7525 -0.0074
14417TIP3   OH264665   5.574   5.687  12.378  0.5733 -0.2423  0.0750
14417TIP3    H164666   5.540   5.775  12.395  0.1540 -0.2599 -0.6481
14417TIP3    H264667   5.668   5.699  12.363  0.4372  0.1487 -0.4902
14418TIP3   OH264668   3.516   5.707   4.818  0.1798 -0.4353  0.1459
14418TIP3    H164669   3.431   5.664   4.823  0.4713 -1.1601 -0.8448
14418TIP3    H264670   3.510   5.780   4.879 -0.1740 -2.1133  2.2339
14419TIP3   OH264671   3.605   4.940  11.604  0.0004 -0.4869 -0.6290
14419TIP3    H164672   3.679   4.908  11.655  0.7797  3.1890  0.8503
14419TIP3    H264673   3.644   4.970  11.522 -0.0573  0.0463 -0.4682
14420TIP3   OH264674   1.297   4.956   4.045  0.1281  0.2939  0.3638
14420TIP3    H164675   1.254   4.962   3.960 -0.8478 -1.3574  0.6853
14420TIP3    H264676   1.233   4.910   4.101  1.3397  0.0000  1.5597
14421TIP3   OH264677   4.259   1.564  12.425  0.1844 -0.1619 -0.0326
14421TIP3    H164678   4.173   1.589  12.393 -0.1568  2.2647  2.4187
14421TIP3    H264679   4.246   1.478  12.466 -1.1897  0.3178  0.5972
14422TIP3   OH264680   3.755   0.896  16.730 -0.1086 -0.2769 -0.0505
14422TIP3    H164681   3.791   0.813  16.697  0.6841 -0.7941  1.9429
14422TIP3    H264682   3.662   0.891  16.712 -0.0170 -1.4676 -0.2910
14423TIP3   OH264683   4.462   1.362   6.059  0.5173  0.4056  0.7439
14423TIP3    H164684   4.523   1.344   6.131  0.7725  1.0254  0.6894
14423TIP3    H264685   4.518   1.384   5.985  0.2394  0.5289  0.5675
14424TIP3   OH264686   5.874   2.882   3.814  0.0086  1.0771  0.5380
14424TIP3    H164687   5.840   2.952   3.869  0.0603  1.7221 -0.2327
14424TIP3    H264688   5.900   2.925   3.733 -2.1593 -0.1297 -0.9263
14425TIP3   OH264689   4.803   6.585  16.244  0.0058  0.1930 -0.4341
14425TIP3    H164690   4.734   6.596  16.179  1.3181 -2.2714 -2.4486
14425TIP3    H264691   4.854   6.510  16.212  1.6350 -0.2056  2.7084
14426TIP3   OH264692   0.612   6.454   4.637 -0.0527  0.6628 -0.0490
14426TIP3    H164693   0.653   6.445   4.551  1.4614  0.6446  0.6422
14426TIP3    H264694   0.682   6.434   4.699 -1.5418 -0.9278  1.1826
14427TIP3   OH264695   1.740   2.680  12.626  0.1506  0.2262 -0.0052
14427TIP3    H164696   1.694   2.628  12.692 -1.5976 -0.6532 -1.8107
14427TIP3    H264697   1.811   2.622  12.596  1.0285  0.6743  1.1162
14428TIP3   OH264698   1.830   3.177  11.644 -0.3823 -0.6894 -0.3104
14428TIP3    H164699   1.886   3.101  11.660  0.5301 -0.3984 -1.9257
14428TIP3    H264700   1.890   3.252  11.644 -1.2663  0.0589  1.2620
14429TIP3   OH264701   4.684   0.519   5.422 -0.1541  0.5697 -0.5018
14429TIP3    H164702   4.637   0.562   5.494  0.1596 -0.8482  0.5922
14429TIP3    H264703   4.628   0.445   5.398  0.6312 -0.0495 -0.4454
14430TIP3   OH264704   2.013   0.601  14.704 -0.3724  0.2546  0.3246
14430TIP3    H164705   1.953   0.547  14.755  1.5430 -0.6678  1.7384
14430TIP3    H264706   2.087   0.543  14.685  1.0573  1.9124  0.5703
14431TIP3   OH264707   6.497   6.027  14.672  0.4229  0.2829  0.1170
14431TIP3    H164708   6.486   5.984  14.587 -0.4182 -2.8351  1.6598
14431TIP3    H264709   6.591   6.019  14.690  0.4898  0.3211 -0.1926
14432TIP3   OH264710   2.423   3.296   3.995  0.5898  0.1321 -0.2845
14432TIP3    H164711   2.474   3.364   4.038 -0.7686  0.0404  1.6023
14432TIP3    H264712   2.467   3.214   4.020  0.4944  0.1435 -0.0825
14433TIP3   OH264713   1.666   6.526   6.081  0.0851 -0.4876  0.0758
14433TIP3    H164714   1.706   6.568   6.157  0.0822  0.2686 -0.3322
14433TIP3    H264715   1.573   6.550   6.086 -0.1367 -1.3883  0.4556
14434TIP3   OH264716   6.333   2.157   4.536  0.1109 -0.1552 -0.5777
14434TIP3    H164717   6.270   2.119   4.476  1.6534 -1.7038 -1.2831
14434TIP3    H264718   6.418   2.131   4.502  1.1874  2.1455  0.1521
14435TIP3   OH264719   6.588   3.229   4.890  0.4776  0.2380  0.2134
14435TIP3    H164720   6.619   3.316   4.865  2.8052 -0.7557 -0.6543
14435TIP3    H264721   6.567   3.237   4.983  1.6502  1.5019  0.4091
14436TIP3   OH264722   0.543   0.397  16.770 -0.2342 -0.2547 -0.4188
14436TIP3    H164723   0.533   0.358  16.683 -0.7616 -1.3669  0.1183
14436TIP3    H264724   0.621   0.356  16.806 -1.0688 -1.2173  0.3433
14437TIP3   OH264725   6.462   2.472   3.737  0.5691 -1.0031  0.8279
14437TIP3    H164726   6.458   2.407   3.807  1.2058 -1.2520  0.6450
14437TIP3    H264727   6.378   2.463   3.692  0.2476 -1.0012  1.4113
14438TIP3   OH264728   1.533   4.510   5.406 -0.3229  0.2711 -0.1043
14438TIP3    H164729   1.449   4.470   5.382  0.4938 -0.7099 -1.4389
14438TIP3    H264730   1.598   4.459   5.359  1.1760  0.0410  2.0692
14439TIP3   OH264731   4.234   3.638   5.550  0.3048 -0.2927 -0.3237
14439TIP3    H164732   4.231   3.674   5.462  2.4853  2.2371  0.5078
14439TIP3    H264733   4.306   3.575   5.548 -1.0607 -1.9226 -0.8129
14440TIP3   OH264734   1.262   2.902  13.597 -0.1064 -0.2546 -0.5700
14440TIP3    H164735   1.209   2.976  13.568 -0.9407  0.1688  1.7916
14440TIP3    H264736   1.203   2.851  13.653  1.2200 -1.2583 -0.0371
14441TIP3   OH264737   4.671   3.350  17.204  0.0546 -0.3572 -0.1753
14441TIP3    H164738   4.698   3.293  17.275  0.3160 -2.2552 -1.7203
14441TIP3    H264739   4.576   3.337  17.196 -0.0559  0.2207  0.1131
14442TIP3   OH264740   0.658   2.534  13.756  0.5331  0.7776 -0.2857
14442TIP3    H164741   0.588   2.497  13.702  0.1221  0.3077  0.5594
14442TIP3    H264742   0.634   2.513  13.846  2.1787 -0.1282 -0.0164
14443TIP3   OH264743   5.531   3.232  12.768 -0.8182  0.0451 -0.6259
14443TIP3    H164744   5.489   3.266  12.690  0.7394 -0.1463 -1.5950
14443TIP3    H264745   5.594   3.299  12.793 -1.4848  0.2269  0.6591
14444TIP3   OH264746   0.040   3.942   1.597  0.0169 -0.0837 -0.3596
14444TIP3    H164747   0.074   4.032   1.589 -1.4153  0.4338 -0.8464
14444TIP3    H264748   0.110   3.887   1.562  1.7121  0.6505  1.6551
14445TIP3   OH264749   4.723   4.177   0.933 -0.0867  0.4148 -0.1526
14445TIP3    H164750   4.745   4.115   0.863  0.9303  0.6442 -0.0509
14445TIP3    H264751   4.708   4.123   1.010  1.6451  0.3213  0.1494
14446TIP3   OH264752   6.567   4.877   0.805 -0.2774  0.4885  0.4238
14446TIP3    H164753   6.476   4.866   0.779 -0.0339 -1.6870  0.2801
14446TIP3    H264754   6.615   4.883   0.722 -0.5540  6.1463  0.3418
14447TIP3   OH264755   1.221   2.533   4.510  0.2271  0.3312 -0.3587
14447TIP3    H164756   1.140   2.550   4.559  0.0142 -0.2814 -0.4875
14447TIP3    H264757   1.252   2.619   4.485 -0.3212  0.5820 -0.1952
14448TIP3   OH264758   0.483   2.800  14.337 -0.0939  0.0539 -0.0637
14448TIP3    H164759   0.438   2.788  14.420 -1.5830 -0.3054 -0.8851
14448TIP3    H264760   0.566   2.754  14.347 -0.6855 -0.8262  0.8783
14449TIP3   OH264761   0.045   6.355  11.212 -0.1976 -0.0800  0.0027
14449TIP3    H164762   0.073   6.391  11.128 -0.5687 -1.7455 -0.8842
14449TIP3    H264763  -0.028   6.410  11.239  1.6465  2.1930  0.6556
14450TIP3   OH264764   3.389   2.170  12.736  0.0373 -0.4372  0.2208
14450TIP3    H164765   3.470   2.130  12.767  0.1842 -0.0895  0.2949
14450TIP3    H264766   3.320   2.122  12.779  0.2215 -0.4040  0.5548
14451TIP3   OH264767   1.207   1.538  11.326 -0.2228 -0.8970  0.2356
14451TIP3    H164768   1.123   1.562  11.286  0.0412  0.2681  0.3225
14451TIP3    H264769   1.216   1.598  11.401  0.1163 -1.8459  0.9775
14452TIP3   OH264770   6.207   1.760   1.192 -0.3434 -0.1311  0.1904
14452TIP3    H164771   6.251   1.842   1.214 -0.7783  0.2713 -0.4096
14452TIP3    H264772   6.265   1.692   1.226 -0.3759  0.4334  1.4415
14453TIP3   OH264773   2.056   0.218   2.342  0.0594 -0.3784  0.4361
14453TIP3    H164774   2.090   0.140   2.387  3.5909 -0.2092 -1.5174
14453TIP3    H264775   2.030   0.187   2.255 -2.4080  0.0246  0.9696
14454TIP3   OH264776   1.160   2.351  12.148 -0.0590 -0.6041 -0.4405
14454TIP3    H164777   1.212   2.373  12.071 -0.7527 -1.9500 -1.3510
14454TIP3    H264778   1.078   2.316  12.112 -0.6386 -0.7061  0.9178
14455TIP3   OH264779   3.176   0.778   0.265 -0.4566 -0.0980 -0.1974
14455TIP3    H164780   3.158   0.765   0.358 -1.7605 -1.1366 -0.5603
14455TIP3    H264781   3.184   0.690   0.229 -0.3280  0.2745 -1.1331
14456TIP3   OH264782   2.428   6.729  10.925 -0.3616 -0.1775  0.3017
14456TIP3    H164783   2.456   6.704  10.837  1.0265  0.2099  0.6021
14456TIP3    H264784   2.498   6.697  10.982 -0.5098  0.8869  1.1007
14457TIP3   OH264785   6.664   2.906   4.747  0.0964 -0.2225 -0.2325
14457TIP3    H164786   6.745   2.955   4.733  2.5123 -3.8028 -0.0831
14457TIP3    H264787   6.613   2.960   4.807  3.5303  1.0489  1.8035
14458TIP3   OH264788   5.033   4.330  14.891 -0.1930 -0.4620 -0.0436
14458TIP3    H164789   5.079   4.392  14.834  0.7608 -0.9539  0.1733
14458TIP3    H264790   5.102   4.285  14.939 -0.9492 -0.5759  0.9764
14459TIP3   OH264791   2.674   2.845   4.683 -0.4392  0.8859  0.5125
14459TIP3    H164792   2.619   2.803   4.750 -0.0297 -0.6184 -0.0378
14459TIP3    H264793   2.613   2.873   4.615 -0.7994  1.9172  1.2395
14460TIP3   OH264794   5.239   1.252  15.921  0.5644  0.4761 -0.0087
14460TIP3    H164795   5.287   1.170  15.908  1.1103  1.0925 -2.1610
14460TIP3    H264796   5.207   1.246  16.011  1.4592 -1.6353  0.2331
14461TIP3   OH264797   2.834   6.524  13.252  0.0148 -0.2454  0.1482
14461TIP3    H164798   2.891   6.552  13.323 -0.2442  1.9467 -0.4506
14461TIP3    H264799   2.887   6.534  13.173 -0.5312 -0.1493 -0.2169
14462TIP3   OH264800   0.789   0.041   1.826  0.2202  0.1087 -0.3945
14462TIP3    H164801   0.821   0.124   1.791  2.3522 -0.2200  0.5998
14462TIP3    H264802   0.867  -0.002   1.859 -1.1277 -1.3768  1.0271
14463TIP3   OH264803   4.118   5.302  13.771  0.1668 -0.1962 -0.6452
14463TIP3    H164804   4.048   5.363  13.747  0.0200 -0.2842 -0.4453
14463TIP3    H264805   4.162   5.282  13.689  0.7809  0.8684 -0.5911
14464TIP3   OH264806   6.153   6.510   4.691  0.7639 -0.1564 -0.5438
14464TIP3    H164807   6.134   6.572   4.621  0.4907 -0.5787 -0.8523
14464TIP3    H264808   6.074   6.510   4.745  0.5372 -0.6338 -0.8573
14465TIP3   OH264809   2.579   6.571  13.668  0.4219  0.2639  0.0566
14465TIP3    H164810   2.547   6.502  13.726  1.7829 -0.6107 -0.1604
14465TIP3    H264811   2.543   6.548  13.582 -1.4398  1.4555  0.4590
14466TIP3   OH264812   6.341   4.779  13.388 -0.1317  0.5723 -0.4546
14466TIP3    H164813   6.367   4.715  13.453 -2.6466 -0.0157  0.0864
14466TIP3    H264814   6.355   4.735  13.304  1.5857  0.7400 -0.3008
14467TIP3   OH264815   1.827   3.991   4.831  0.1473  0.0757 -0.4097
14467TIP3    H164816   1.784   3.974   4.748  1.7451 -2.0745 -0.8843
14467TIP3    H264817   1.843   3.905   4.869  2.5253  0.7939  0.4605
14468TIP3   OH264818   1.282   0.450  16.599 -0.1993 -0.5513 -0.5001
14468TIP3    H164819   1.232   0.477  16.676 -0.5296 -0.0637 -0.8741
14468TIP3    H264820   1.341   0.524  16.583 -1.8436  0.5143 -2.1691
14469TIP3   OH264821   0.188   2.406   4.122  0.5053  0.4910  0.6580
14469TIP3    H164822   0.218   2.435   4.209  1.4966  2.9245 -0.4098
14469TIP3    H264823   0.100   2.442   4.113  0.7197  0.9421  0.3453
14470TIP3   OH264824   4.456   2.568  11.676 -0.0838 -0.1133  0.8962
14470TIP3    H164825   4.444   2.553  11.770  0.4055 -0.2965  0.9348
14470TIP3    H264826   4.492   2.656  11.671 -1.0718  0.2886  0.8071
14471TIP3   OH264827   4.654   1.806   3.789 -0.3985  0.3990  0.6934
14471TIP3    H164828   4.675   1.744   3.719 -0.2137  1.3723 -0.1392
14471TIP3    H264829   4.709   1.778   3.863  0.2938  0.0593  0.0691
14472TIP3   OH264830   3.085   5.200   3.500  0.0352 -0.3171 -0.1614
14472TIP3    H164831   3.106   5.201   3.593 -0.8875 -1.7662  0.1104
14472TIP3    H264832   3.161   5.158   3.458  1.3753  2.1835 -0.3916
14473TIP3   OH264833   3.124   4.483  15.047 -0.4343  0.1529  0.0441
14473TIP3    H164834   3.173   4.420  14.995 -0.4375 -0.9571  1.3301
14473TIP3    H264835   3.042   4.496  14.999  0.1484  0.2581 -0.9395
14474TIP3   OH264836   0.140   2.504   5.318 -0.4301  0.2675 -0.2338
14474TIP3    H164837   0.213   2.481   5.376 -1.6214 -1.4802  0.6421
14474TIP3    H264838   0.087   2.565   5.370 -0.5681  0.0819 -0.1563
14475TIP3   OH264839   4.751   4.262  13.011 -0.3154 -0.5000  0.0011
14475TIP3    H164840   4.796   4.278  13.094 -1.3270 -0.4385  0.5451
14475TIP3    H264841   4.756   4.168  12.999  1.8136 -0.3207 -1.0252
14476TIP3   OH264842   1.917   3.191   4.145 -0.2278  0.4205  0.5034
14476TIP3    H164843   2.002   3.235   4.137 -0.0155 -0.3996 -3.5624
14476TIP3    H264844   1.853   3.262   4.137 -0.0786  1.0335  3.5191
14477TIP3   OH264845   6.317   2.226   1.521 -0.7005 -0.1666  0.6818
14477TIP3    H164846   6.251   2.277   1.473  1.7119  2.4116 -0.1225
14477TIP3    H264847   6.325   2.271   1.605  0.7596  0.1660  0.3711
14478TIP3   OH264848   1.368   4.605  15.847  0.3885  0.0793 -0.4901
14478TIP3    H164849   1.342   4.685  15.892  1.4489 -0.5844  1.3993
14478TIP3    H264850   1.362   4.627  15.754 -1.3914  1.6681 -0.0668
14479TIP3   OH264851   0.635   3.034   5.689  0.5506 -0.3888  0.0184
14479TIP3    H164852   0.645   3.107   5.750  0.7475 -1.6290  1.5286
14479TIP3    H264853   0.573   2.975   5.732 -0.0420 -0.8623 -1.4366
14480TIP3   OH264854   6.811   6.538  15.342 -0.3008  0.4745 -0.4021
14480TIP3    H164855   6.809   6.561  15.249  2.5758 -0.1296 -0.7046
14480TIP3    H264856   6.842   6.447  15.344 -1.1459  0.1948  1.1282
14481TIP3   OH264857   2.465   5.715  13.241 -0.3962  0.2607  0.4993
14481TIP3    H164858   2.463   5.788  13.304  0.1683  0.1512  0.6465
14481TIP3    H264859   2.554   5.715  13.208 -0.5550 -0.0117  0.0758
14482TIP3   OH264860   2.360   0.197   5.753  0.4459 -1.0710  0.0251
14482TIP3    H164861   2.418   0.248   5.697 -1.0601 -0.5605 -1.1409
14482TIP3    H264862   2.292   0.258   5.781  1.3636 -1.1825  2.8647
14483TIP3   OH264863   3.966   2.704   4.478  0.2069 -0.1443  0.6416
14483TIP3    H164864   3.901   2.715   4.409 -1.5944 -0.4308  2.2244
14483TIP3    H264865   4.043   2.668   4.432 -0.7782  0.0109 -1.2454
14484TIP3   OH264866   5.968   1.645  12.412  0.2501  0.4725 -0.5257
14484TIP3    H164867   5.944   1.621  12.323  0.5361  0.5453 -0.6223
14484TIP3    H264868   5.921   1.583  12.467  1.5283 -0.7903 -0.7910
14485TIP3   OH264869   0.290   1.829  14.426  0.0226 -0.8946  0.0521
14485TIP3    H164870   0.215   1.778  14.394  0.9034 -2.2238  0.0251
14485TIP3    H264871   0.359   1.813  14.361  0.3669  0.2659  0.1078
14486TIP3   OH264872   5.063   4.964   4.689  0.0279  0.6661  0.3271
14486TIP3    H164873   5.104   5.042   4.726  3.1476 -0.3279 -0.7794
14486TIP3    H264874   5.077   4.896   4.755 -1.5078  0.6755  0.7040
14487TIP3   OH264875   1.614   4.203   3.030  0.2463 -0.2502  0.1704
14487TIP3    H164876   1.622   4.295   3.056 -1.6551 -0.0722  0.2061
14487TIP3    H264877   1.521   4.190   3.014  0.4798 -2.1910  0.1643
14488TIP3   OH264878   3.535   3.366  15.568  0.5452  0.1453 -0.3741
14488TIP3    H164879   3.474   3.298  15.539 -0.8460  0.9946  0.4948
14488TIP3    H264880   3.548   3.421  15.490 -0.7662  0.6509 -0.2638
14489TIP3   OH264881   4.717   3.932   1.869 -0.6590  0.5247 -0.1426
14489TIP3    H164882   4.699   3.842   1.895 -0.7238  1.0615  1.8308
14489TIP3    H264883   4.782   3.924   1.799 -1.0096 -1.0570 -0.3210
14490TIP3   OH264884   2.835   4.513   5.645  0.4549 -0.1887 -0.2149
14490TIP3    H164885   2.760   4.454   5.653  0.3536  0.0670  0.8830
14490TIP3    H264886   2.903   4.474   5.699  0.6956  0.2237 -0.2130
14491TIP3   OH264887   1.241   2.367  15.046 -0.5311 -0.3293 -0.1830
14491TIP3    H164888   1.304   2.308  15.005 -0.4600  0.1938 -0.8339
14491TIP3    H264889   1.295   2.429  15.095 -0.5034  0.5266 -1.2850
14492TIP3   OH264890   0.590   4.736   4.411  0.4005  0.0832 -0.1714
14492TIP3    H164891   0.646   4.795   4.361  0.5719 -0.5445 -0.7284
14492TIP3    H264892   0.501   4.758   4.384  0.4646  0.0794 -0.3836
14493TIP3   OH264893   0.228   4.316  17.129  0.1632 -0.3064  0.0706
14493TIP3    H164894   0.191   4.400  17.102 -2.1440 -1.0568  0.7001
14493TIP3    H264895   0.322   4.332  17.135 -0.1491  2.0326 -0.4765
14494TIP3   OH264896   4.558   2.490   4.165  0.0109  0.3873 -0.2237
14494TIP3    H164897   4.588   2.493   4.256  0.4578  0.5029 -0.3743
14494TIP3    H264898   4.525   2.400   4.153 -0.2308  0.4299  0.1064
14495TIP3   OH264899   2.957   2.713  11.823 -0.3287 -0.2911 -0.0404
14495TIP3    H164900   2.885   2.698  11.885 -1.3150  0.4319 -0.9648
14495TIP3    H264901   2.913   2.728  11.739  0.9264 -0.0748 -0.6784
14496TIP3   OH264902   3.515   3.842   5.081  0.0202  0.8875 -0.6539
14496TIP3    H164903   3.580   3.772   5.085 -1.1988 -0.2604 -0.1171
14496TIP3    H264904   3.553   3.913   5.133  1.3911  0.7515 -1.4114
14497TIP3   OH264905   1.608   1.061   0.478 -0.3021  0.6827 -0.5335
14497TIP3    H164906   1.569   1.051   0.391 -0.3797  3.0969 -0.8600
14497TIP3    H264907   1.543   1.024   0.537  0.1447 -1.8198 -1.5011
14498TIP3   OH264908   3.548   3.495   4.532 -0.0870  0.1258 -0.4213
14498TIP3    H164909   3.564   3.582   4.567  0.0140  1.0362 -2.5745
14498TIP3    H264910   3.635   3.463   4.506  0.1500 -1.4148  1.8780
14499TIP3   OH264911   6.722   6.483  16.592 -0.7993 -0.8979  0.2782
14499TIP3    H164912   6.630   6.457  16.588 -0.6135 -1.4610 -0.5546
14499TIP3    H264913   6.769   6.402  16.613 -0.3582 -0.9568 -0.8663
14500TIP3   OH264914   5.070   3.771   4.093  0.3939 -0.6963  0.0657
14500TIP3    H164915   5.163   3.791   4.082 -0.3409  2.3435 -1.8623
14500TIP3    H264916   5.043   3.818   4.171  0.1134  0.1134 -0.5011
14501TIP3   OH264917   4.437   4.541  11.857  0.0854  0.4889  0.7488
14501TIP3    H164918   4.360   4.492  11.888  0.3474 -0.7244 -0.4106
14501TIP3    H264919   4.414   4.633  11.870 -1.6766  0.1620  0.2053
14502TIP3   OH264920   0.388   1.943  13.315  0.2026 -0.2455  0.3234
14502TIP3    H164921   0.374   1.848  13.316 -1.2573 -0.1190 -1.6573
14502TIP3    H264922   0.428   1.960  13.230 -2.0146  1.1543 -0.5179
14503TIP3   OH264923   4.566   5.670   0.896  0.8384  0.0569 -0.9126
14503TIP3    H164924   4.578   5.728   0.821  3.7147 -0.5894 -1.0774
14503TIP3    H264925   4.526   5.726   0.963  0.0374  1.1658 -2.2582
14504TIP3   OH264926   3.924   1.095  14.887  0.1934  0.2944 -0.5499
14504TIP3    H164927   3.953   1.181  14.856  1.4389  0.7261  1.5919
14504TIP3    H264928   4.004   1.043  14.892 -0.1804 -0.2157  0.4312
14505TIP3   OH264929   2.256   4.227  15.829  0.1190  0.0514 -0.0807
14505TIP3    H164930   2.294   4.257  15.912 -0.9936  1.5019 -0.0373
14505TIP3    H264931   2.211   4.145  15.851  1.1893 -0.4219  0.3806
14506TIP3   OH264932   6.597   1.723  16.079  0.3501  0.1875  0.4559
14506TIP3    H164933   6.672   1.767  16.038 -0.2694  2.5243  1.6286
14506TIP3    H264934   6.618   1.722  16.172 -1.3914  1.7409  0.9298
14507TIP3   OH264935   3.525   2.112   1.126  0.1116 -0.3122  0.0978
14507TIP3    H164936   3.554   2.022   1.139  0.8513 -0.3767 -1.7863
14507TIP3    H264937   3.448   2.105   1.070 -0.4063  0.1993  0.7186
14508TIP3   OH264938   3.473   2.229   2.552  0.0932 -0.1687  0.3994
14508TIP3    H164939   3.450   2.283   2.476 -1.7968 -3.8180 -1.8951
14508TIP3    H264940   3.388   2.203   2.588  0.8153 -3.0309  0.1906
14509TIP3   OH264941   6.222   2.685  12.427  0.1039 -0.3326 -0.7498
14509TIP3    H164942   6.312   2.696  12.458 -0.5640  0.4096  1.0645
14509TIP3    H264943   6.173   2.754  12.473 -1.3644 -0.6124 -1.8382
14510TIP3   OH264944   1.956   5.344   5.150 -0.5685  0.3940 -0.2256
14510TIP3    H164945   1.959   5.402   5.225 -1.1942  1.0851 -0.7150
14510TIP3    H264946   2.026   5.281   5.165 -2.1698 -1.0002  2.1603
14511TIP3   OH264947   2.172   0.094   5.423  0.2726  0.3604 -0.0379
14511TIP3    H164948   2.144   0.036   5.494  0.8604 -1.5505 -1.2890
14511TIP3    H264949   2.220   0.164   5.467  1.2846 -1.1640  1.4214
14512TIP3   OH264950   3.113   4.775   3.687  0.0025 -0.5469 -0.2052
14512TIP3    H164951   3.075   4.695   3.652  0.2153 -0.8073  0.1668
14512TIP3    H264952   3.038   4.828   3.713 -0.1038 -1.0701  0.5534
14513TIP3   OH264953   1.144   0.104   6.087  0.0649  0.3866 -0.2447
14513TIP3    H164954   1.136   0.156   6.007  0.9386  0.6039 -0.1997
14513TIP3    H264955   1.238   0.099   6.103 -0.1432  1.5452  1.5644
14514TIP3   OH264956   0.223   6.460   6.260 -0.2935  0.4008 -0.1421
14514TIP3    H164957   0.287   6.529   6.241 -1.5663  2.0547  1.2170
14514TIP3    H264958   0.251   6.424   6.344 -0.5339  0.3771 -0.0722
14515TIP3   OH264959   1.681   6.252  14.691  0.4943 -0.1753  0.2814
14515TIP3    H164960   1.614   6.219  14.631  1.5907  1.0884 -1.7466
14515TIP3    H264961   1.689   6.183  14.757 -2.6136 -0.4630  0.5224
14516TIP3   OH264962   3.304   4.241   5.431 -0.1827 -0.0142 -0.6452
14516TIP3    H164963   3.246   4.304   5.389  0.7143  1.8618  0.8106
14516TIP3    H264964   3.383   4.290   5.452 -0.2011 -1.0502  2.3585
14517TIP3   OH264965   4.898   4.162   5.817 -0.1274  0.1588 -0.4760
14517TIP3    H164966   4.888   4.166   5.722  0.4122  3.0364 -0.5115
14517TIP3    H264967   4.983   4.203   5.834 -0.9174  1.1969  1.3054
14518TIP3   OH264968   3.818   5.991  16.947  0.7893 -0.1786 -0.3331
14518TIP3    H164969   3.882   6.045  16.901  1.0941  0.6411  0.9689
14518TIP3    H264970   3.740   6.047  16.953  1.5584  0.7940  2.2646
14519TIP3   OH264971   1.003   1.088   4.572 -0.2624  0.1119 -0.1724
14519TIP3    H164972   1.008   1.000   4.535 -2.6225 -0.2606  0.2297
14519TIP3    H264973   1.058   1.142   4.515 -0.5858 -1.1874 -1.7702
14520TIP3   OH264974   0.767   1.497  12.040  0.1880 -0.2503  0.4656
14520TIP3    H164975   0.840   1.461  11.988 -0.4219  0.2150 -0.7515
14520TIP3    H264976   0.719   1.419  12.070 -0.0253 -0.5218 -0.5354
14521TIP3   OH264977   0.837   6.272  11.504 -0.3386 -0.0800  0.0977
14521TIP3    H164978   0.792   6.199  11.546  0.0726  0.2844  1.2121
14521TIP3    H264979   0.835   6.342  11.569 -0.0580  0.6585 -0.6599
14522TIP3   OH264980   5.537   1.247   3.987  0.2644  0.6503  0.4218
14522TIP3    H164981   5.627   1.223   4.007 -0.0351 -1.6601 -0.6708
14522TIP3    H264982   5.542   1.337   3.955  2.0422  0.8453  1.1696
14523TIP3   OH264983   1.674   1.754  13.313  0.1000 -0.0698 -0.0414
14523TIP3    H164984   1.671   1.808  13.391  2.2199  0.2644 -0.1421
14523TIP3    H264985   1.618   1.800  13.250 -3.0707 -1.2269  1.6917
14524TIP3   OH264986   6.773   3.727   5.329  0.2886  0.2727  0.1531
14524TIP3    H164987   6.810   3.778   5.401  1.7135 -0.2084 -0.2158
14524TIP3    H264988   6.840   3.729   5.261  1.3607 -3.6709  0.8214
14525TIP3   OH264989   5.791   1.511   3.488  0.2190  0.1648  0.4082
14525TIP3    H164990   5.738   1.590   3.495  0.2733  0.2828 -0.4442
14525TIP3    H264991   5.865   1.537   3.434  2.2199  0.5497  3.1063
14526TIP3   OH264992   6.542   3.261  14.334 -0.3121  0.5279 -0.2776
14526TIP3    H164993   6.635   3.276  14.322 -0.4829  2.6290  0.5399
14526TIP3    H264994   6.536   3.209  14.414  0.1576  0.5947 -0.1962
14527TIP3   OH264995   3.553   4.978   6.013  0.0735 -0.1029 -0.0496
14527TIP3    H164996   3.601   5.048   6.057 -0.5751  0.9728 -1.0009
14527TIP3    H264997   3.479   4.960   6.070  0.1445  0.1044  0.1078
14528TIP3   OH264998   5.431   3.091  13.259  0.3653  0.0320  0.0852
14528TIP3    H164999   5.388   3.126  13.181  2.3815 -0.3012 -1.2531
14528TIP3    H265000   5.445   3.167  13.315  0.2693  0.5534 -0.5856
14529TIP3   OH265001   2.331   1.924  14.190 -0.3156 -0.1926  0.3713
14529TIP3    H165002   2.322   2.013  14.222 -0.7465 -0.3341  0.6550
14529TIP3    H265003   2.395   1.930  14.119  0.7675  0.1012  1.3501
14530TIP3   OH265004   6.549   5.708   1.932  0.3274 -0.0718 -0.1185
14530TIP3    H165005   6.617   5.759   1.889 -0.5536  1.3375  0.0834
14530TIP3    H265006   6.494   5.676   1.861  0.1143  0.4303 -0.1890
14531TIP3   OH265007   5.087   6.341  10.327  0.0301 -0.3821 -0.5216
14531TIP3    H165008   5.164   6.398  10.325  0.7156 -1.2328  0.3160
14531TIP3    H265009   5.088   6.303  10.415 -0.9882 -0.8883 -0.7192
14532TIP3   OH265010   1.314   0.313   3.439  0.0521 -0.0863 -0.0854
14532TIP3    H165011   1.249   0.301   3.370 -0.1171 -0.4893  0.1403
14532TIP3    H265012   1.366   0.388   3.410 -0.1488 -0.1200 -0.5482
14533TIP3   OH265013   1.208   0.712  13.356  0.0800 -0.8863 -0.2161
14533TIP3    H165014   1.115   0.719  13.380 -0.2216 -0.8699 -1.3505
14533TIP3    H265015   1.255   0.732  13.437 -0.8898  0.9481 -0.0480
14534TIP3   OH265016   4.708   6.479   2.344  0.2181  0.1804  0.2817
14534TIP3    H165017   4.801   6.500   2.337  0.2873 -0.1411  0.2387
14534TIP3    H265018   4.674   6.542   2.407  0.3783  0.5810 -0.0277
14535TIP3   OH265019   1.970   4.769   3.765  0.0736 -0.0363 -0.0444
14535TIP3    H165020   2.054   4.794   3.802 -0.4160  2.6553 -0.5684
14535TIP3    H265021   1.991   4.742   3.676  0.2295  3.1653 -1.1139
14536TIP3   OH265022   4.320   2.591  10.934 -0.0426 -0.1088 -0.4471
14536TIP3    H165023   4.389   2.611  10.997 -0.6178  3.5373 -0.7877
14536TIP3    H265024   4.359   2.610  10.849 -0.4539 -1.3906 -0.9571
14537TIP3   OH265025   2.043   6.305  14.451  0.5705 -0.2988  0.2536
14537TIP3    H165026   2.110   6.242  14.426 -0.0728 -0.9723  0.1992
14537TIP3    H265027   1.966   6.252  14.472  0.8634  0.2337  3.1266
14538TIP3   OH265028   4.313   1.143  14.440  0.4886  0.1605 -0.6522
14538TIP3    H165029   4.277   1.132  14.352  0.9881  0.3037 -0.8782
14538TIP3    H265030   4.407   1.154  14.426  0.5076  0.6761 -0.1350
14539TIP3   OH265031   5.888   4.089   3.447 -0.1340  0.4235  0.2603
14539TIP3    H165032   5.856   4.069   3.359  1.9532  0.6245 -0.5959
14539TIP3    H265033   5.835   4.034   3.504 -1.8251  0.5743 -1.0522
14540TIP3   OH265034   2.410   2.381   4.714  0.5543 -0.0437 -0.1290
14540TIP3    H165035   2.484   2.419   4.763  1.2709 -0.0006 -1.2056
14540TIP3    H265036   2.451   2.336   4.641 -0.4442 -0.9167 -0.1643
14541TIP3   OH265037   0.511   3.213  10.497 -0.8081 -0.0133  0.2848
14541TIP3    H165038   0.557   3.274  10.555 -1.3270 -0.6996  1.4378
14541TIP3    H265039   0.541   3.126  10.525 -0.8951 -0.3438 -0.6256
14542TIP3   OH265040   6.219   3.081   5.304  0.2211 -0.2448  0.1719
14542TIP3    H165041   6.138   3.053   5.260  0.6547 -0.9169 -0.2137
14542TIP3    H265042   6.288   3.067   5.239  0.5354  1.3206  0.1149
14543TIP3   OH265043   2.674   0.388  16.640 -0.0600 -0.2129  0.3719
14543TIP3    H165044   2.695   0.445  16.714  0.8016 -2.2145  1.7400
14543TIP3    H265045   2.728   0.310  16.653  2.5059  0.4715 -3.9865
14544TIP3   OH265046   0.251   1.413   1.679  0.0216  0.2856 -0.1799
14544TIP3    H165047   0.164   1.436   1.712 -0.5843 -1.2112 -0.6241
14544TIP3    H265048   0.249   1.436   1.586  0.3323  0.8378 -0.0527
14545TIP3   OH265049   2.442   2.300  12.939  0.2990  0.0597  0.0920
14545TIP3    H165050   2.492   2.270  13.015  1.2452  2.2727  0.4252
14545TIP3    H265051   2.505   2.294  12.866 -0.1138 -0.5689 -0.2203
14546TIP3   OH265052   0.132   0.854  14.621  0.2395 -0.3508  0.3972
14546TIP3    H165053   0.082   0.881  14.699  1.0910 -1.5502  1.4132
14546TIP3    H265054   0.068   0.806  14.568  0.1091 -1.3327  1.3877
14547TIP3   OH265055   1.305   6.634   3.565  0.1694  0.2115  0.2511
14547TIP3    H165056   1.341   6.720   3.587 -0.3160  0.8521 -1.3188
14547TIP3    H265057   1.379   6.574   3.570  1.0978  1.1807 -1.1165
14548TIP3   OH265058   2.181   1.000   0.924  0.8433 -0.5945  0.4382
14548TIP3    H165059   2.104   1.002   0.980  0.0286  1.4605 -0.6327
14548TIP3    H265060   2.150   0.961   0.842  0.9878 -0.0252  0.1030
14549TIP3   OH265061   4.136   4.046  15.405 -0.3301 -0.0845 -0.2197
14549TIP3    H165062   4.087   4.065  15.484 -1.6668 -1.0954 -0.7736
14549TIP3    H265063   4.199   4.119  15.398 -3.2258  2.6000 -0.7050
14550TIP3   OH265064   1.818   5.893   5.478 -0.1893  0.1939  0.8550
14550TIP3    H165065   1.772   5.834   5.418  2.3760  1.2520 -2.4807
14550TIP3    H265066   1.751   5.958   5.503 -1.3366 -0.0862 -1.2144
14551TIP3   OH265067   0.602   6.365   5.334 -0.1068  0.1594 -0.3792
14551TIP3    H165068   0.559   6.395   5.254  0.7883 -0.0212 -0.9461
14551TIP3    H265069   0.683   6.416   5.338  0.2121 -0.3735  0.0117
14552TIP3   OH265070   1.287   1.142  16.057 -0.0931 -0.0329 -0.2986
14552TIP3    H165071   1.375   1.173  16.036  0.6673 -1.5273  0.5516
14552TIP3    H265072   1.289   1.127  16.152 -1.8066  1.5074  0.0374
14553TIP3   OH265073   2.355   4.775  11.367 -0.4882 -0.4891  0.4647
14553TIP3    H165074   2.322   4.733  11.446 -0.8822 -0.6303  0.2259
14553TIP3    H265075   2.444   4.741  11.357 -1.3665 -2.6639 -0.6876
14554TIP3   OH265076   0.308   3.007  16.221  0.6657 -0.1281  0.5051
14554TIP3    H165077   0.281   3.070  16.288  3.3597  1.3033  0.3885
14554TIP3    H265078   0.272   3.041  16.140 -0.7321 -0.6578  0.8644
14555TIP3   OH265079   0.971   5.598   0.973  0.2819  0.2762  0.2528
14555TIP3    H165080   1.025   5.520   0.980  1.1577  0.8615  0.1702
14555TIP3    H265081   1.032   5.671   0.988 -0.4140  0.9641 -0.1959
14556TIP3   OH265082   1.682   6.395   3.391  0.2784  0.4110 -0.1625
14556TIP3    H165083   1.668   6.323   3.330 -1.2423 -0.3431  1.0082
14556TIP3    H265084   1.595   6.433   3.404  1.0380  2.5544 -0.8009
14557TIP3   OH265085   0.198   1.687  16.470  0.1113 -0.2174 -0.1579
14557TIP3    H165086   0.121   1.634  16.448  0.3369 -0.1233 -1.2251
14557TIP3    H265087   0.266   1.622  16.489 -0.7220 -0.3605  2.9301
14558TIP3   OH265088   3.360   5.848  16.416  0.7499  0.1077  0.6082
14558TIP3    H165089   3.365   5.899  16.335 -0.6050  0.2350  0.5837
14558TIP3    H265090   3.449   5.849  16.450  0.7309  2.9551  0.8583
14559TIP3   OH265091   5.025   3.345   0.013 -0.4483  0.0929  0.7154
14559TIP3    H165092   5.104   3.368   0.062 -0.1172 -0.2941  0.3678
14559TIP3    H265093   4.972   3.425   0.016  0.6892  0.9390 -0.4772
14560TIP3   OH265094   1.240   1.601   2.472 -0.0415 -0.5642  0.1756
14560TIP3    H165095   1.151   1.591   2.506  1.1580 -1.5683  3.4104
14560TIP3    H265096   1.285   1.655   2.538  2.3813 -2.1931 -0.0107
14561TIP3   OH265097   6.564   6.295  12.962  0.0459  0.3511  0.2030
14561TIP3    H165098   6.588   6.366  12.904  0.7778  0.6822  0.8938
14561TIP3    H265099   6.469   6.284  12.950 -0.2729  2.1510  0.8739
14562TIP3   OH265100   4.655   2.370  11.617 -0.4214  0.2368  0.0707
14562TIP3    H165101   4.589   2.437  11.635 -0.0094  0.9805 -1.0632
14562TIP3    H265102   4.667   2.373  11.523  0.7209 -0.3879  0.1787
14563TIP3   OH265103   1.583   6.141   1.901 -0.1647 -0.3089  0.2613
14563TIP3    H165104   1.626   6.062   1.868  0.4653 -0.3092  1.0499
14563TIP3    H265105   1.550   6.117   1.987 -0.4137  0.1369  0.2956
14564TIP3   OH265106   6.168   5.096  17.114  0.0668 -0.5669  0.5215
14564TIP3    H165107   6.091   5.047  17.142 -0.6375  0.4987  0.4730
14564TIP3    H265108   6.171   5.172  17.172  1.0815 -0.5901  0.5211
14565TIP3   OH265109   1.511   2.461  14.041 -0.0403  0.2088  0.1075
14565TIP3    H165110   1.506   2.535  14.102 -2.8774 -0.4426  0.8138
14565TIP3    H265111   1.516   2.384  14.098 -0.9226 -0.3125 -0.5106
14566TIP3   OH265112   1.604   4.156   3.603  0.1216 -0.1027  0.0855
14566TIP3    H165113   1.592   4.162   3.698  1.2826  0.2034  0.2313
14566TIP3    H265114   1.557   4.077   3.577  1.3911 -1.2866  1.2208
14567TIP3   OH265115   2.731   3.176  14.762 -0.0697  0.1598  0.1251
14567TIP3    H165116   2.725   3.193  14.856  0.5490  0.6384  0.0885
14567TIP3    H265117   2.787   3.247  14.729 -1.3598  0.7866 -0.8106
14568TIP3   OH265118   5.930   3.580   0.041 -0.1818 -0.1553 -0.2171
14568TIP3    H165119   5.947   3.674   0.049  1.0166 -0.3466 -0.2412
14568TIP3    H265120   5.950   3.544   0.128 -0.6440 -0.3870 -0.2029
14569TIP3   OH265121   4.137   3.896  14.876 -0.1978  0.4191 -0.4751
14569TIP3    H165122   4.110   3.943  14.955 -1.8132  0.3434 -0.9540
14569TIP3    H265123   4.094   3.941  14.804  1.2325  0.4629 -1.3397
14570TIP3   OH265124   1.080   4.289  15.399  0.1052 -0.6771  0.1178
14570TIP3    H165125   1.095   4.244  15.316 -0.6597  0.8020 -0.8580
14570TIP3    H265126   1.009   4.241  15.440  0.6139 -1.5296  0.0290
14571TIP3   OH265127   5.436   2.456   3.252 -0.5005  0.2909  0.5925
14571TIP3    H165128   5.395   2.436   3.336 -0.1664  0.3223  0.7648
14571TIP3    H265129   5.364   2.456   3.190 -0.9749  1.6037  1.0949
14572TIP3   OH265130   5.729   1.185   1.452  0.1584 -0.2486 -0.3757
14572TIP3    H165131   5.728   1.276   1.481 -0.0642 -0.2405 -0.4139
14572TIP3    H265132   5.649   1.174   1.402 -0.4618 -0.8197  0.7004
14573TIP3   OH265133   3.655   0.999   6.141 -0.3011 -0.0120 -0.2757
14573TIP3    H165134   3.696   0.942   6.206  1.3745 -0.0433 -1.2963
14573TIP3    H265135   3.566   1.011   6.172  0.5383  0.2920  2.2319
14574TIP3   OH265136   0.289   0.888  14.896 -0.6637 -0.1613 -0.0502
14574TIP3    H165137   0.313   0.827  14.966  0.6067  1.9033  1.4180
14574TIP3    H265138   0.204   0.856  14.865  0.5073 -3.3803 -0.2742
14575TIP3   OH265139   2.618   3.637  11.565  0.0640  0.7535  0.1724
14575TIP3    H165140   2.592   3.724  11.535 -0.7633  0.2776 -0.5556
14575TIP3    H265141   2.640   3.649  11.657 -0.9564  1.5602  0.3281
14576TIP3   OH265142   1.373   3.981   2.056  0.2834  0.1305 -0.1688
14576TIP3    H165143   1.295   3.946   2.015 -0.3916  1.7629 -0.3317
14576TIP3    H265144   1.434   3.908   2.058 -0.9714 -0.9582 -0.7275
14577TIP3   OH265145   3.357   0.233   3.612  0.2282  0.2410 -0.3129
14577TIP3    H165146   3.362   0.137   3.614  1.2206  0.2959  1.3955
14577TIP3    H265147   3.434   0.259   3.561 -0.7780  0.1412 -1.9802
14578TIP3   OH265148   0.020   3.757   3.393  0.3244  0.3980  0.3702
14578TIP3    H165149   0.115   3.745   3.386  0.4690  1.7136 -0.2931
14578TIP3    H265150  -0.010   3.763   3.303 -0.5237 -0.7868  0.5547
14579TIP3   OH265151   3.554   5.736  13.058  0.3674  0.0942 -0.1189
14579TIP3    H165152   3.554   5.744  13.153 -1.7693 -0.0753 -0.0561
14579TIP3    H265153   3.464   5.755  13.032  1.2086  1.6457 -2.2699
14580TIP3   OH265154   4.415   4.571  15.579 -0.2175 -0.1632 -0.4003
14580TIP3    H165155   4.320   4.563  15.584 -0.3799  0.3333 -2.1905
14580TIP3    H265156   4.442   4.499  15.522  0.4668 -0.1729 -0.0701
14581TIP3   OH265157   0.918   0.740  17.052 -0.5589  0.1716 -0.2747
14581TIP3    H165158   0.941   0.745  17.145 -1.7644  0.6710  0.0259
14581TIP3    H265159   1.002   0.734  17.006  0.1126  1.0541  0.7813
14582TIP3   OH265160   5.623   0.600  16.870  0.2692  0.3642 -0.5775
14582TIP3    H165161   5.543   0.556  16.896 -1.1394  3.2566  0.4490
14582TIP3    H265162   5.617   0.607  16.775 -0.2610 -0.1900 -0.5908
14583TIP3   OH265163   4.400   0.242   6.016  0.1300  0.9672 -0.4054
14583TIP3    H165164   4.320   0.293   6.013 -1.7296 -1.7575 -0.2220
14583TIP3    H265165   4.421   0.235   6.109  0.3021  1.2066 -0.4225
14584TIP3   OH265166   2.350   3.121  15.799  0.5043  0.0605  0.1823
14584TIP3    H165167   2.290   3.148  15.869  2.6631  1.9267  1.4564
14584TIP3    H265168   2.305   3.050  15.755 -2.6710  1.3856  0.9994
14585TIP3   OH265169   6.039   6.383   1.830 -0.0788  0.0101  0.0771
14585TIP3    H165170   6.028   6.445   1.903 -2.4063  0.7122 -0.7698
14585TIP3    H265171   5.954   6.382   1.787  1.0441 -0.8574 -2.2909
14586TIP3   OH265172   4.522   1.406   3.377 -0.3306 -0.1077 -0.0831
14586TIP3    H165173   4.441   1.354   3.381 -1.0452  0.7398 -2.2882
14586TIP3    H265174   4.591   1.342   3.360 -0.9245 -0.5753 -0.8022
14587TIP3   OH265175   2.984   0.855   3.148 -0.1156 -0.0770  0.3077
14587TIP3    H165176   3.064   0.829   3.103 -0.8191  0.5811 -1.4051
14587TIP3    H265177   3.014   0.901   3.226  1.2456  1.8001 -1.2182
14588TIP3   OH265178   6.717   5.000  11.609 -0.1141 -0.4421  0.5115
14588TIP3    H165179   6.703   4.906  11.623 -1.5448 -0.2022  0.7527
14588TIP3    H265180   6.772   5.003  11.530 -0.0826 -1.4809  0.4716
14589TIP3   OH265181   0.186   0.046   5.194  0.5975 -0.1411  0.9164
14589TIP3    H165182   0.153   0.058   5.105 -0.7240  0.6013  1.4721
14589TIP3    H265183   0.251   0.116   5.205  0.6449 -0.1310  0.5928
14590TIP3   OH265184   5.989   2.633   6.451 -0.1024 -0.2149  0.5902
14590TIP3    H165185   6.071   2.607   6.410  0.5134 -0.0331  1.6843
14590TIP3    H265186   5.991   2.729   6.449 -0.1458 -0.2082  0.9110
14591TIP3   OH265187   5.401   0.828  16.649 -0.4145 -0.0222 -0.0223
14591TIP3    H165188   5.345   0.752  16.632 -0.7971  0.5507 -1.5108
14591TIP3    H265189   5.349   0.903  16.620  0.9437  0.5635 -1.0411
14592TIP3   OH265190   2.651   5.726   2.777  0.6971 -0.2602 -0.7387
14592TIP3    H165191   2.593   5.802   2.787  1.4587  0.2355 -0.0118
14592TIP3    H265192   2.592   5.650   2.779  0.2050  0.0754  2.2589
14593TIP3   OH265193   2.791   2.753   3.305  0.1989  0.0100  0.7369
14593TIP3    H165194   2.829   2.668   3.325  0.8342  0.1866  0.3068
14593TIP3    H265195   2.726   2.767   3.375 -1.6218 -1.8358 -0.4630
14594TIP3   OH265196   2.303   6.613   6.611 -0.2348  0.2139  0.3346
14594TIP3    H165197   2.297   6.701   6.575  0.3572  0.5647  1.0610
14594TIP3    H265198   2.348   6.562   6.544 -2.0891  0.0255 -0.8205
14595TIP3   OH265199   6.781   6.069  16.348 -0.3489 -0.1543 -0.0764
14595TIP3    H165200   6.732   5.997  16.389  0.5427 -0.6742  0.0947
14595TIP3    H265201   6.851   6.025  16.299 -0.1042  0.5768 -0.3899
14596TIP3   OH265202   0.862   6.246  16.023 -0.3572 -0.0577 -0.2530
14596TIP3    H165203   0.806   6.172  16.001 -1.2723  0.7950 -0.8752
14596TIP3    H265204   0.806   6.323  16.014  0.8153  0.8034 -0.5660
14597TIP3   OH265205   2.636   0.518  11.534 -0.2982 -0.2746 -0.5011
14597TIP3    H165206   2.578   0.446  11.558  0.6857 -0.1062  2.7885
14597TIP3    H265207   2.724   0.484  11.550  0.3302  0.8500 -1.3967
14598TIP3   OH265208   4.768   5.909   1.452  0.1940  0.0558 -0.0944
14598TIP3    H165209   4.816   5.976   1.403 -0.2707 -0.2044 -0.9109
14598TIP3    H265210   4.720   5.860   1.386 -0.9219  0.0809  0.6759
14599TIP3   OH265211   5.991   5.605  12.794 -0.5910  0.0765  0.5764
14599TIP3    H165212   5.941   5.687  12.798  0.1012  0.5049  0.7858
14599TIP3    H265213   5.946   5.552  12.729 -1.0624  0.6195  0.4519
14600TIP3   OH265214   4.894   5.510   1.414 -0.4260  0.2829 -0.2816
14600TIP3    H165215   4.842   5.438   1.450 -1.4781  0.3731 -1.5216
14600TIP3    H265216   4.888   5.498   1.319  2.0002  0.2124 -0.4858
14601TIP3   OH265217   3.267   6.417   5.160  0.1669  0.2615  0.0865
14601TIP3    H165218   3.332   6.428   5.230  1.2079 -2.0915 -0.4423
14601TIP3    H265219   3.189   6.385   5.205  1.2745 -2.6473  0.1155
14602TIP3   OH265220   5.272   0.017  11.819 -0.0525 -0.0468 -0.0599
14602TIP3    H165221   5.295  -0.060  11.767  1.0983 -1.5655  2.5490
14602TIP3    H265222   5.353   0.068  11.824  0.4829 -0.9954  1.9026
14603TIP3   OH265223   4.163   6.381   5.446  0.1252  0.1732  0.2865
14603TIP3    H165224   4.214   6.327   5.507 -2.4402 -4.6479 -1.3361
14603TIP3    H265225   4.226   6.406   5.378  1.4070 -1.1528  0.9269
14604TIP3   OH265226   0.281   1.740  13.814 -0.0282  0.1757 -0.7906
14604TIP3    H165227   0.248   1.741  13.904 -0.7531  2.8667 -1.0107
14604TIP3    H265228   0.256   1.654  13.780  1.4072 -1.4601  1.9223
14605TIP3   OH265229   0.226   2.065  15.068 -0.1299 -0.3600 -0.1996
14605TIP3    H165230   0.150   2.013  15.094  0.7389 -0.8752  1.4712
14605TIP3    H265231   0.205   2.154  15.094 -0.9192 -0.1546 -1.4862
14606TIP3   OH265232   4.394   4.858   5.239  0.5614  0.1815  0.2952
14606TIP3    H165233   4.366   4.950   5.244  1.1640  0.4148 -0.3830
14606TIP3    H265234   4.367   4.821   5.323  0.3519  0.9910  0.6048
14607TIP3   OH265235   3.815   1.174   1.425  0.2029 -0.5360 -0.3237
14607TIP3    H165236   3.772   1.168   1.510 -0.5081 -0.2468 -0.6503
14607TIP3    H265237   3.759   1.121   1.367  0.6920 -0.7521 -0.6009
14608TIP3   OH265238   3.121   4.755  11.056  0.0843 -0.2420  0.2040
14608TIP3    H165239   3.180   4.700  11.004 -2.9189 -1.2751 -2.5563
14608TIP3    H265240   3.145   4.844  11.034  0.8420 -0.6238 -0.5776
14609TIP3   OH265241   3.554   1.747  11.740  0.2624  0.4349  0.4659
14609TIP3    H165242   3.542   1.659  11.705  1.5981  0.2341  0.4541
14609TIP3    H265243   3.521   1.805  11.672  1.1427 -0.0096 -0.3649
14610TIP3   OH265244   1.977   3.587  12.104  0.3286 -0.6323 -0.0181
14610TIP3    H165245   1.899   3.637  12.129  0.8963  0.0333  0.4525
14610TIP3    H265246   1.960   3.560  12.014 -0.3968 -0.4005  0.0376
14611TIP3   OH265247   4.921   3.769  12.046  0.9525  0.2460  0.4156
14611TIP3    H165248   4.991   3.776  11.981  0.1144  2.4405 -0.3552
14611TIP3    H265249   4.966   3.755  12.129  2.1060 -1.4484 -0.4286
14612TIP3   OH265250   0.607   0.922  14.937  0.5824 -0.2947  0.0329
14612TIP3    H165251   0.700   0.941  14.921  1.3443 -2.4543  1.3783
14612TIP3    H265252   0.598   0.828  14.917 -1.3494 -0.0981 -0.1786
14613TIP3   OH265253   1.799   6.369   2.414  0.7523  0.0563  0.3889
14613TIP3    H165254   1.788   6.274   2.407 -0.4649  0.2268 -0.4226
14613TIP3    H265255   1.827   6.383   2.504  0.9716 -1.0806  0.5126
14614TIP3   OH265256   4.046   5.279   5.416  0.8501 -0.1994  0.1121
14614TIP3    H165257   4.065   5.188   5.439  1.2229 -0.6400 -1.7723
14614TIP3    H265258   4.130   5.324   5.427  0.8264 -0.2157  0.3777
14615TIP3   OH265259   5.769   3.925  12.209 -0.3558 -0.1954 -0.1662
14615TIP3    H165260   5.794   3.890  12.124 -1.4894 -2.3268  0.3218
14615TIP3    H265261   5.777   3.851  12.269  1.0384  1.4088  1.7435
14616TIP3   OH265262   4.314   6.525  17.094  0.0967 -0.7866  0.2557
14616TIP3    H165263   4.349   6.467  17.162  1.6120 -0.0559  0.1422
14616TIP3    H265264   4.260   6.588  17.143  0.3426 -0.8845  0.6610
14617TIP3   OH265265   6.663   2.873   5.400 -0.0226 -0.4780 -0.6454
14617TIP3    H165266   6.666   2.964   5.429  1.3418 -0.5522 -0.5079
14617TIP3    H265267   6.570   2.851   5.400 -0.3080  0.6634  0.0862
14618TIP3   OH265268   4.276   4.868  12.383 -0.0189 -0.0231 -0.1882
14618TIP3    H165269   4.327   4.939  12.345  0.5944  0.1663  0.9404
14618TIP3    H265270   4.295   4.872  12.476 -0.1838 -1.5034 -0.0652
14619TIP3   OH265271   0.512   4.019  14.721 -0.7094 -0.2776 -0.0938
14619TIP3    H165272   0.582   4.036  14.658 -0.4319 -2.0044 -0.3008
14619TIP3    H265273   0.550   3.957  14.783 -1.0552  1.1932  1.6826
14620TIP3   OH265274   3.745   0.876   3.888 -0.1049 -0.3530  0.5917
14620TIP3    H165275   3.762   0.916   3.802  2.6449  0.2722  1.3220
14620TIP3    H265276   3.771   0.785   3.877  1.5777  0.0321  1.0456
14621TIP3   OH265277   6.749   0.329  13.188 -0.3659 -0.8534  0.3039
14621TIP3    H165278   6.845   0.333  13.186 -0.3365 -1.7283 -0.2566
14621TIP3    H265279   6.726   0.333  13.281  0.3032 -2.4144  0.5647
14622TIP3   OH265280   5.569   4.619  14.362  0.8624  0.4393  0.3955
14622TIP3    H165281   5.527   4.540  14.326  2.4243 -1.4749  2.4785
14622TIP3    H265282   5.652   4.625  14.315  2.1639 -1.1096  2.3236
14623TIP3   OH265283   3.023   4.844   3.061 -0.1969 -0.0113 -0.3449
14623TIP3    H165284   3.101   4.893   3.036  0.0964 -0.1936  0.2055
14623TIP3    H265285   2.953   4.910   3.063 -0.0635  0.1504 -0.8377
14624TIP3   OH265286   2.381   5.679   2.914  0.1973  0.1085  0.3403
14624TIP3    H165287   2.290   5.659   2.935  0.0694  0.6603  0.3187
14624TIP3    H265288   2.396   5.637   2.829 -0.4141  1.0696 -0.2581
14625TIP3   OH265289   4.687   1.177   4.239  0.1857 -0.0702 -0.0297
14625TIP3    H165290   4.662   1.160   4.330 -0.6782  0.1023 -0.2283
14625TIP3    H265291   4.692   1.090   4.199 -4.9776 -0.1014 -1.2493
14626TIP3   OH265292   6.262   1.723   2.500  0.2950 -0.0303  0.3396
14626TIP3    H165293   6.205   1.777   2.445 -3.5567 -1.0966  2.8847
14626TIP3    H265294   6.303   1.785   2.560 -2.6483  0.4569  2.0344
14627TIP3   OH265295   4.440   0.298  10.574  0.1880 -0.0897 -0.5089
14627TIP3    H165296   4.482   0.248  10.504  1.6299  0.0220  0.2352
14627TIP3    H265297   4.502   0.367  10.594 -1.3094  1.4006 -0.7882
14628TIP3   OH265298   1.162   3.375   5.561  0.2163 -0.3000 -0.2036
14628TIP3    H165299   1.069   3.362   5.546  0.3004 -1.7496  0.3480
14628TIP3    H265300   1.169   3.464   5.596 -1.1080 -0.6190  0.9718
14629TIP3   OH265301   5.091   2.885   6.239  0.3886  0.2219 -0.3676
14629TIP3    H165302   5.145   2.915   6.165  0.1538  1.0874 -0.1993
14629TIP3    H265303   5.001   2.891   6.206  0.3633 -0.9106 -0.5394
14630TIP3   OH265304   6.285   2.097   4.825  0.9142  0.3283 -0.4290
14630TIP3    H165305   6.208   2.147   4.852  0.4636 -0.3651 -0.3967
14630TIP3    H265306   6.291   2.111   4.730  0.5536  0.1293 -0.4835
14631TIP3   OH265307   2.841   0.150  16.225 -0.4148  0.2839 -0.2792
14631TIP3    H165308   2.918   0.126  16.278  0.4295  0.3019 -1.4625
14631TIP3    H265309   2.773   0.089  16.253  0.3377 -0.4307  0.0429
14632TIP3   OH265310   1.701   5.226  14.684  0.0912  0.0960 -0.6963
14632TIP3    H165311   1.765   5.155  14.681 -0.8801 -0.7801 -1.6123
14632TIP3    H265312   1.626   5.193  14.634 -1.1023  1.0736  0.3858
14633TIP3   OH265313   5.647   0.263   1.002 -0.0419  0.9204 -0.1038
14633TIP3    H165314   5.551   0.270   1.001 -0.1651 -0.4024  0.5738
14633TIP3    H265315   5.677   0.350   0.977 -1.4131  1.6800  0.7496
14634TIP3   OH265316   5.343   3.505  16.189 -0.0263  0.4875  0.9508
14634TIP3    H165317   5.337   3.445  16.263 -0.0283  0.2779  0.7812
14634TIP3    H265318   5.252   3.523  16.166 -0.0278  0.0936  0.6319
14635TIP3   OH265319   0.944   1.963   4.803 -0.4668 -0.4622  0.2247
14635TIP3    H165320   0.982   2.037   4.756  0.1746 -2.1741 -2.1551
14635TIP3    H265321   1.018   1.925   4.851 -1.0343  1.0292  2.4449
14636TIP3   OH265322   1.287   5.517   6.233  0.1389 -0.2433 -0.3918
14636TIP3    H165323   1.321   5.570   6.304 -0.6506 -1.4728  0.9634
14636TIP3    H265324   1.201   5.555   6.214 -0.9894 -1.6808  1.4432
14637TIP3   OH265325   1.190   1.541  13.888  0.0434 -0.2637 -0.1444
14637TIP3    H165326   1.277   1.511  13.861  0.7320  1.1654  0.4029
14637TIP3    H265327   1.203   1.631  13.918 -1.4059 -0.4209  1.1111
14638TIP3   OH265328   3.926   5.135  16.587  0.1166  0.5650 -0.2067
14638TIP3    H165329   3.894   5.203  16.647 -1.2943  0.7053 -1.0527
14638TIP3    H265330   4.003   5.174  16.545  0.5616  0.8175  0.8277
14639TIP3   OH265331   1.337   1.481  16.015 -0.7354  0.5420 -0.3506
14639TIP3    H165332   1.320   1.563  15.970  1.1708  0.6286 -0.9693
14639TIP3    H265333   1.308   1.413  15.953 -1.5391  0.7086 -0.1726
14640TIP3   OH265334   3.244   2.031  16.734 -0.7899  0.0511  0.2166
14640TIP3    H165335   3.283   1.979  16.664 -2.5600 -0.4066 -0.5002
14640TIP3    H265336   3.288   2.116  16.727 -0.4778 -0.1848 -1.0552
14641TIP3   OH265337   6.123   4.500  13.152  0.6345 -0.5240 -0.3871
14641TIP3    H165338   6.128   4.433  13.221  1.3038  0.0170  0.1042
14641TIP3    H265339   6.037   4.486  13.112  0.3806 -1.0779  0.3224
14642TIP3   OH265340   3.095   5.067   4.126 -0.0440 -0.1742 -0.4401
14642TIP3    H165341   3.002   5.075   4.106 -0.1703  1.5189  0.6210
14642TIP3    H265342   3.101   4.991   4.183 -0.6752 -0.6324 -0.9653
14643TIP3   OH265343   4.332   6.550   0.574 -0.3644 -0.1602 -0.1453
14643TIP3    H165344   4.388   6.614   0.619 -1.3193  0.9940 -0.5421
14643TIP3    H265345   4.249   6.552   0.623 -0.8134 -0.1904 -0.8918
14644TIP3   OH265346   6.659   3.308  11.420  0.3447 -0.2628 -0.1699
14644TIP3    H165347   6.729   3.369  11.446  0.3690 -0.3600 -0.0080
14644TIP3    H265348   6.579   3.350  11.451  0.2397  0.2691 -1.1028
14645TIP3   OH265349   0.980   2.833   0.082  0.6086 -0.1432  0.3354
14645TIP3    H165350   0.983   2.854   0.175  1.3843 -1.9605  0.7680
14645TIP3    H265351   0.977   2.918   0.038  0.6998  0.7595  1.9870
14646TIP3   OH265352   0.164   1.200   2.399 -0.2542 -0.1832  0.0193
14646TIP3    H165353   0.120   1.265   2.454 -0.8815 -1.2254  0.7871
14646TIP3    H265354   0.149   1.231   2.309 -0.6122  0.6801  0.3617
14647TIP3   OH265355   4.161   3.171  17.070  0.3426  0.2738  0.4176
14647TIP3    H165356   4.066   3.173  17.072  0.3032 -0.5540 -0.0372
14647TIP3    H265357   4.182   3.087  17.029  1.2652 -0.5950  2.5025
14648TIP3   OH265358   4.510   4.570   3.632  0.3900  0.2650  0.1647
14648TIP3    H165359   4.477   4.485   3.602 -0.1882  1.1894 -2.0850
14648TIP3    H265360   4.525   4.559   3.725  0.7720 -2.4408 -0.1415
14649TIP3   OH265361   6.781   1.093   0.383 -0.1584  0.1397 -0.6191
14649TIP3    H165362   6.781   1.153   0.457 -0.7402 -0.8047  0.1737
14649TIP3    H265363   6.801   1.148   0.307 -0.5880  1.3078  0.0879
14650TIP3   OH265364   6.168   0.574   2.409  0.0451 -0.7910  0.4987
14650TIP3    H165365   6.132   0.647   2.358 -0.8508 -0.9376  0.9047
14650TIP3    H265366   6.176   0.608   2.498  0.2262 -0.9877  0.5579
14651TIP3   OH265367   4.575   0.107   0.459  0.0570  0.5614  0.2001
14651TIP3    H165368   4.485   0.122   0.431 -0.9992 -1.5000  2.1675
14651TIP3    H265369   4.600   0.187   0.504 -0.7792  1.1359 -0.3286
14652TIP3   OH265370   5.128   5.628   3.596  0.3805  0.0702  0.0987
14652TIP3    H165371   5.193   5.587   3.539  0.7729  0.8238 -0.0052
14652TIP3    H265372   5.109   5.561   3.662  1.7952  0.0814  0.5456
14653TIP3   OH265373   6.652   0.346   5.960  0.1993  0.0538  0.6948
14653TIP3    H165374   6.716   0.415   5.979  0.7029 -0.4091  0.7146
14653TIP3    H265375   6.594   0.345   6.037  1.0730 -0.5210  1.3648
14654TIP3   OH265376   6.573   3.829  15.507 -0.2063  0.4292  0.1670
14654TIP3    H165377   6.527   3.776  15.572 -0.5465  1.2541  0.6170
14654TIP3    H265378   6.508   3.895  15.480 -0.3929 -0.4634 -1.7170
14655TIP3   OH265379   1.850   3.532  11.876  0.2816  0.0710  0.1181
14655TIP3    H165380   1.767   3.510  11.833 -0.1559  1.4115  0.2418
14655TIP3    H265381   1.837   3.620  11.910  0.2861 -1.2121  3.8238
14656TIP3   OH265382   0.726   2.646  15.283 -0.1316  0.2239 -0.1862
14656TIP3    H165383   0.807   2.687  15.252  0.6900  0.1535  1.6978
14656TIP3    H265384   0.668   2.646  15.207  0.7709  2.4618 -0.9630
14657TIP3   OH265385   0.462   4.377  15.712  0.1211  0.0257 -0.1858
14657TIP3    H165386   0.418   4.410  15.634 -0.2033  1.5504  0.6064
14657TIP3    H265387   0.393   4.375  15.779  0.6612 -0.0876  0.3724
14658TIP3   OH265388   1.946   0.419  12.780  0.1633  0.2522  0.3065
14658TIP3    H165389   1.864   0.373  12.766 -0.9466  2.8649 -2.9043
14658TIP3    H265390   1.922   0.500  12.824  1.4064  0.0655  1.4133
14659TIP3   OH265391   2.505   2.604  11.947  0.0337 -0.1442 -0.3356
14659TIP3    H165392   2.422   2.647  11.924  0.5800  0.6863 -0.7991
14659TIP3    H265393   2.566   2.676  11.961  0.3835 -0.7138  1.2261
14660TIP3   OH265394   5.667   4.232  11.215 -0.3970  0.4373  0.3231
14660TIP3    H165395   5.657   4.217  11.121  1.2215 -0.4591  0.2695
14660TIP3    H265396   5.735   4.298  11.222 -1.1423  1.1767  0.8692
14661TIP3   OH265397   3.814   3.257  11.783 -0.1457 -0.0240  0.1962
14661TIP3    H165398   3.904   3.291  11.782 -0.4117  0.7318  0.9760
14661TIP3    H265399   3.773   3.301  11.857 -0.0416 -3.2815  2.4079
14662TIP3   OH265400   1.030   1.297   5.794 -0.3258 -0.5570 -0.2823
14662TIP3    H165401   1.090   1.305   5.868 -0.1674 -0.1079 -0.4558
14662TIP3    H265402   0.956   1.353   5.817 -0.4261 -0.6743 -0.3176
14663TIP3   OH265403   5.872   6.628  14.109  0.0108  0.7207  0.0185
14663TIP3    H165404   5.835   6.649  14.024  1.5768 -1.4126 -1.2851
14663TIP3    H265405   5.963   6.658  14.104  0.4123 -0.3601  0.5117
14664TIP3   OH265406   5.151   3.918  11.079 -0.6444 -0.6583 -0.2108
14664TIP3    H165407   5.106   3.964  11.008  1.7713  1.3088 -0.5883
14664TIP3    H265408   5.169   3.831  11.043 -0.0293  0.0914 -1.8075
14665TIP3   OH265409   2.631   3.969  14.517  0.0363  0.7000  0.1413
14665TIP3    H165410   2.609   3.923  14.436  0.0443 -0.2556  0.6625
14665TIP3    H265411   2.668   4.052  14.488 -0.2953  0.5245 -0.8243
14666TIP3   OH265412   4.484   5.579  12.428 -0.5793 -0.1598 -0.0092
14666TIP3    H165413   4.417   5.631  12.472 -1.1141 -0.1319 -0.8427
14666TIP3    H265414   4.562   5.634  12.429 -1.0647  0.5705 -0.6486
14667TIP3   OH265415   1.309   3.215  11.661  0.2451  0.1376 -0.1280
14667TIP3    H165416   1.248   3.141  11.651  0.0706  0.3084 -0.3591
14667TIP3    H265417   1.266   3.272  11.724 -0.3991  0.8168 -1.1411
14668TIP3   OH265418   5.940   0.649  15.969 -0.1935 -0.0906 -0.6415
14668TIP3    H165419   5.941   0.553  15.968 -0.6238 -0.0919 -0.9931
14668TIP3    H265420   5.848   0.672  15.955 -0.5920  0.3350  2.0524
14669TIP3   OH265421   2.384   1.936   4.183 -0.3376  0.4509  0.2003
14669TIP3    H165422   2.318   2.004   4.172 -0.1472  0.3967 -1.3976
14669TIP3    H265423   2.373   1.878   4.108 -0.5280 -1.3515  1.5398
14670TIP3   OH265424   3.091   3.908  14.757 -0.2451  0.2329 -0.1654
14670TIP3    H165425   3.137   3.845  14.811 -0.1472 -1.3506 -1.9862
14670TIP3    H265426   3.138   3.907  14.674 -2.8780 -0.7073 -1.7780
14671TIP3   OH265427   3.774   6.210  16.646  0.1240  0.0290  0.0041
14671TIP3    H165428   3.710   6.200  16.717  0.3068 -1.0436  0.0354
14671TIP3    H265429   3.748   6.144  16.581  1.0899 -0.3089 -0.0571
14672TIP3   OH265430   1.355   5.739  12.296 -0.2299  0.2315 -0.3039
14672TIP3    H165431   1.388   5.758  12.208  0.2530 -0.4646 -0.2855
14672TIP3    H265432   1.351   5.824  12.339  1.1360  0.3937 -0.4557
14673TIP3   OH265433   2.395   2.806   5.384 -0.1920 -0.2038  0.1329
14673TIP3    H165434   2.346   2.874   5.337  1.6478  0.7662 -0.4788
14673TIP3    H265435   2.468   2.853   5.425 -0.3631 -1.4286  1.9325
14674TIP3   OH265436   1.387   0.269   3.999 -0.0035  0.3903  0.1953
14674TIP3    H165437   1.358   0.264   4.090 -0.2539 -1.2438  0.0642
14674TIP3    H265438   1.467   0.215   3.996 -0.0292  0.3797 -0.5498
14675TIP3   OH265439   0.906   0.356  11.509  0.0959 -0.1840  0.3139
14675TIP3    H165440   0.892   0.403  11.427 -1.5855 -0.6341  0.3189
14675TIP3    H265441   0.871   0.269  11.493 -1.7975  0.2053  2.0080
14676TIP3   OH265442   0.971   1.921   1.857  0.0358  0.7401  0.4795
14676TIP3    H165443   0.968   1.971   1.775  0.3483 -3.4973 -2.3975
14676TIP3    H265444   1.063   1.919   1.881  0.2674 -0.0019 -0.4546
14677TIP3   OH265445   2.980   1.617   2.196  0.0939 -0.1119 -0.0260
14677TIP3    H165446   3.051   1.556   2.213 -1.6378 -1.8632  1.3867
14677TIP3    H265447   2.935   1.581   2.120  0.7371  1.0561 -0.9903
14678TIP3   OH265448   2.068   0.250  11.444 -0.1789 -0.0817  0.8211
14678TIP3    H165449   2.043   0.253  11.351 -1.0478 -1.1905  0.9888
14678TIP3    H265450   2.143   0.308  11.451  0.3311 -0.5105 -0.7188
14679TIP3   OH265451   1.488   2.302   5.835 -0.6192  0.0494 -0.2078
14679TIP3    H165452   1.533   2.362   5.894 -0.3125 -0.0547 -0.3302
14679TIP3    H265453   1.483   2.220   5.884 -1.1088  0.1914 -0.0101
14680TIP3   OH265454   1.043   4.536  15.314  0.3000 -0.2691 -0.0664
14680TIP3    H165455   1.117   4.581  15.274  2.5772  0.7503  4.5958
14680TIP3    H265456   1.075   4.447  15.330  0.0073 -0.2517  0.6738
14681TIP3   OH265457   5.444   1.410  14.567 -0.3168 -0.1540  0.2739
14681TIP3    H165458   5.400   1.393  14.650 -0.5517  1.4497  0.5056
14681TIP3    H265459   5.533   1.378  14.580  0.0088  1.1953  1.6114
14682TIP3   OH265460   6.432   3.063   4.728  0.2190 -0.0260  0.1425
14682TIP3    H165461   6.485   3.095   4.655  1.6497 -0.9472  0.7473
14682TIP3    H265462   6.466   3.109   4.805  1.4845 -2.0074  0.8305
14683TIP3   OH265463   2.024   6.102  16.837 -0.3998 -0.0185 -0.3997
14683TIP3    H165464   2.012   6.008  16.829  0.2157  0.0373 -3.0019
14683TIP3    H265465   2.043   6.117  16.930 -1.8884 -2.2475  0.3180
14684TIP3   OH265466   2.709   3.684  13.466 -0.2866  0.8041 -0.4181
14684TIP3    H165467   2.635   3.623  13.463 -0.8323  1.5004 -1.8629
14684TIP3    H265468   2.775   3.639  13.518 -0.4217 -1.3080 -1.9507
14685TIP3   OH265469   1.599   4.687  11.071  0.2341 -0.0043  0.2652
14685TIP3    H165470   1.618   4.598  11.040  2.2363 -0.1569  1.7434
14685TIP3    H265471   1.618   4.743  10.995 -0.6840 -0.7848 -0.5635
14686TIP3   OH265472   5.099   6.198  15.652  0.1611  0.5558  0.5380
14686TIP3    H165473   5.060   6.174  15.736 -2.5642 -0.0170 -0.7678
14686TIP3    H265474   5.168   6.133  15.638 -0.4060 -0.3165  1.6285
14687TIP3   OH265475   6.696   1.437   0.949  0.6109 -0.2094 -0.2118
14687TIP3    H165476   6.762   1.416   0.882  0.6266 -1.1763  0.0934
14687TIP3    H265477   6.656   1.353   0.970  0.4216  0.1307  0.8100
14688TIP3   OH265478   6.283   4.654  16.991 -0.6828 -0.0462 -0.1636
14688TIP3    H165479   6.295   4.716  17.063 -1.5031  1.9020 -1.6574
14688TIP3    H265480   6.198   4.613  17.008 -0.3678 -0.4422  0.5405
14689TIP3   OH265481   3.076   6.788   5.058  0.3176  0.2178 -0.3344
14689TIP3    H165482   3.025   6.739   5.123 -0.1298  1.1933  0.0619
14689TIP3    H265483   3.071   6.734   4.979 -1.0306  0.1071 -0.2037
14690TIP3   OH265484   0.744   5.196   0.777  0.4016 -0.3326 -0.0103
14690TIP3    H165485   0.734   5.109   0.739 -0.3202  0.2783 -1.3246
14690TIP3    H265486   0.654   5.228   0.786  0.5591 -0.3336  2.0315
14691TIP3   OH265487   1.802   6.716  16.269  0.6471 -0.2204 -0.0419
14691TIP3    H165488   1.882   6.680  16.308  1.0620  0.7262  0.0245
14691TIP3    H265489   1.793   6.802  16.311 -0.7017 -0.5324  0.3433
14692TIP3   OH265490   5.811   0.464   2.137  0.4427 -0.2161  0.9005
14692TIP3    H165491   5.846   0.550   2.113 -1.9867  0.5265 -0.3673
14692TIP3    H265492   5.784   0.474   2.229  2.1543 -0.3558  1.4373
14693TIP3   OH265493   4.705   2.189  16.423  0.3830  0.1772  0.0952
14693TIP3    H165494   4.704   2.191  16.519 -2.5216  0.2887  0.1616
14693TIP3    H265495   4.629   2.242  16.398  0.9419 -0.0428 -2.2750
14694TIP3   OH265496   6.263   5.161  16.518  0.0266 -0.1642 -0.3085
14694TIP3    H165497   6.309   5.099  16.461 -1.1684 -0.5418 -0.8849
14694TIP3    H265498   6.243   5.235  16.461 -1.2129 -0.5640 -0.4340
14695TIP3   OH265499   0.712   5.463  13.990  0.3703  0.3581  0.0635
14695TIP3    H165500   0.661   5.543  13.980  1.1440  0.8148 -0.3460
14695TIP3    H265501   0.739   5.440  13.901  1.9389  0.8527  0.3706
14696TIP3   OH265502   2.443   0.454  12.843 -0.2451  0.0456 -0.0640
14696TIP3    H165503   2.430   0.401  12.764 -1.6618 -0.7457  0.6638
14696TIP3    H265504   2.365   0.509  12.849 -0.7331 -0.7385  1.3810
14697TIP3   OH265505   2.203   5.707   0.555  0.8018 -0.2030  0.1381
14697TIP3    H165506   2.221   5.664   0.638  0.0324  1.4733  1.2116
14697TIP3    H265507   2.285   5.751   0.532  1.0501 -0.7636 -0.0785
14698TIP3   OH265508   6.526   4.607  13.558  0.4869  0.5785  0.5601
14698TIP3    H165509   6.538   4.514  13.577 -0.3469  0.1743 -0.7833
14698TIP3    H265510   6.540   4.650  13.642  0.3464 -0.8096  1.3262
14699TIP3   OH265511   6.031   4.520  16.205  0.4196 -0.5406  0.1652
14699TIP3    H165512   6.063   4.553  16.122 -0.1407 -0.7632 -0.1468
14699TIP3    H265513   5.946   4.481  16.184  0.7306 -1.5195  0.6554
14700TIP3   OH265514   0.676   3.588   3.915  0.4013 -0.7451 -0.7055
14700TIP3    H165515   0.617   3.640   3.860 -0.1904 -0.9779 -0.3100
14700TIP3    H265516   0.729   3.652   3.963 -0.4714 -0.4845 -0.0583
14701TIP3   OH265517   0.809   2.387   3.536 -0.1176  0.2053  0.0538
14701TIP3    H165518   0.805   2.356   3.626 -2.1586  0.1415 -0.0197
14701TIP3    H265519   0.751   2.463   3.534  0.2006  0.4370 -1.1291
14702TIP3   OH265520   1.472   1.355   2.398 -0.0725  0.0552 -0.6951
14702TIP3    H165521   1.405   1.322   2.459 -0.3274  2.2122  0.2967
14702TIP3    H265522   1.422   1.386   2.323  0.1841 -1.9219 -1.7302
14703TIP3   OH265523   3.112   5.070   2.297  0.0535  0.0613  0.3037
14703TIP3    H165524   3.142   5.072   2.206  1.0615 -0.8711  0.5943
14703TIP3    H265525   3.019   5.094   2.293 -0.1068 -0.7112 -1.0500
14704TIP3   OH265526   3.137   4.216  10.966  0.7670  0.2720  0.2066
14704TIP3    H165527   3.230   4.235  10.974  0.3854  1.2732  4.4408
14704TIP3    H265528   3.095   4.301  10.954  0.2504  0.1389  0.9740
14705TIP3   OH265529   2.386   0.948   3.744 -0.2907 -0.0571 -0.0580
14705TIP3    H165530   2.316   0.959   3.679 -0.1294 -1.4806 -0.5282
14705TIP3    H265531   2.349   0.888   3.809  0.2736 -0.3561 -0.0009
14706TIP3   OH265532   2.866   5.997  14.522 -0.1663 -0.4317 -0.6658
14706TIP3    H165533   2.816   5.962  14.595  0.6012 -0.8958 -0.3570
14706TIP3    H265534   2.867   6.092  14.536 -0.5596 -0.4644 -0.4262
14707TIP3   OH265535   3.952   6.458  11.575 -0.0959 -0.0092  0.0350
14707TIP3    H165536   3.975   6.404  11.500 -1.3755 -0.9587  0.2830
14707TIP3    H265537   3.905   6.532  11.537 -0.4949 -0.3455 -0.1427
14708TIP3   OH265538   0.551   3.899   2.500  0.2955 -0.0368  0.0538
14708TIP3    H165539   0.644   3.913   2.516  0.7039 -0.0591 -1.9697
14708TIP3    H265540   0.516   3.872   2.584  2.2457 -0.6810  0.7186
14709TIP3   OH265541   6.334   2.623  15.927 -0.2870  0.2234  0.1973
14709TIP3    H165542   6.424   2.591  15.919 -0.6463 -1.0488  0.9462
14709TIP3    H265543   6.288   2.583  15.853  0.1566  2.5272 -1.4321
14710TIP3   OH265544   2.236   6.242  11.644  0.1585 -0.6597 -0.1188
14710TIP3    H165545   2.167   6.294  11.685  1.7809 -1.3046  3.9313
14710TIP3    H265546   2.301   6.306  11.615  0.9026 -0.1556  2.3776
14711TIP3   OH265547   2.785   4.049   5.130  0.6223  0.0995  0.4414
14711TIP3    H165548   2.824   3.961   5.138 -0.3093 -0.4345 -0.6315
14711TIP3    H265549   2.827   4.086   5.053 -0.0439  0.0170  0.0337
14712TIP3   OH265550   4.811   0.787  13.298  0.1874  0.7372 -0.4650
14712TIP3    H165551   4.827   0.713  13.356  2.2202  0.5882 -1.1026
14712TIP3    H265552   4.868   0.857  13.332 -0.4617  1.4639 -0.8328
14713TIP3   OH265553   4.243   1.435   5.875  0.5754 -0.1329  0.0039
14713TIP3    H165554   4.298   1.403   5.947 -0.2721  3.0096  2.2712
14713TIP3    H265555   4.174   1.485   5.918 -1.5423 -0.2457 -2.9496
14714TIP3   OH265556   1.202   4.861  13.105  0.4738  0.5842 -0.1732
14714TIP3    H165557   1.285   4.886  13.143  0.7475  0.5532 -0.7389
14714TIP3    H265558   1.196   4.912  13.024  0.4669 -0.2443 -0.7081
14715TIP3   OH265559   0.755   2.829   4.342  0.1200 -0.0520 -0.0819
14715TIP3    H165560   0.827   2.801   4.399  0.0682 -0.9008 -0.4159
14715TIP3    H265561   0.676   2.810   4.393 -0.0343 -2.6535 -1.1167
14716TIP3   OH265562   1.079   3.572  11.264 -0.4258 -0.0183 -0.0850
14716TIP3    H165563   1.110   3.496  11.313 -2.2379 -1.5594 -1.2035
14716TIP3    H265564   1.156   3.604  11.217  1.1909  1.0272  2.9927
14717TIP3   OH265565   1.646   2.469   4.183  0.2225 -0.1001  0.5301
14717TIP3    H165566   1.636   2.510   4.269  1.2975 -0.7818  0.9980
14717TIP3    H265567   1.661   2.377   4.201 -3.4832 -1.0774 -0.5575
14718TIP3   OH265568   1.102   5.405   3.627  0.5224 -0.1051  0.2096
14718TIP3    H165569   1.065   5.492   3.615 -1.1246 -0.8559 -0.6072
14718TIP3    H265570   1.189   5.409   3.586  0.3246  1.0477 -0.1247
14719TIP3   OH265571   2.460   4.541   1.225  0.4322 -0.3793  0.1301
14719TIP3    H165572   2.532   4.569   1.282  2.9089 -3.6626 -1.0353
14719TIP3    H265573   2.503   4.491   1.155 -2.9851 -2.3299 -0.8093
14720TIP3   OH265574   5.393   0.899   2.798 -1.0389 -0.2690 -0.4796
14720TIP3    H165575   5.362   0.816   2.762  0.0029 -0.5308 -0.7955
14720TIP3    H265576   5.313   0.952   2.806 -1.8960 -1.6825  0.8330
14721TIP3   OH265577   5.201   5.451  13.761  0.5267  0.0701  0.0696
14721TIP3    H165578   5.108   5.431  13.758  0.5528 -0.0358 -0.0589
14721TIP3    H265579   5.214   5.498  13.843  0.5516 -0.8828  0.6208
14722TIP3   OH265580   3.969   6.518   3.649 -0.3976  0.2543 -0.2185
14722TIP3    H165581   4.022   6.593   3.675  0.2635 -0.4776  0.5818
14722TIP3    H265582   3.972   6.519   3.554 -1.5127  2.0222 -0.2978
14723TIP3   OH265583   0.135   3.743   0.380  0.1496  0.2504 -0.6111
14723TIP3    H165584   0.064   3.790   0.422 -0.1142 -0.0764 -0.6923
14723TIP3    H265585   0.093   3.693   0.309  0.4811  0.2070 -0.7798
14724TIP3   OH265586   5.128   5.741  16.739  0.2083  0.0721  0.0481
14724TIP3    H165587   5.194   5.672  16.750  0.4410 -0.0315 -1.7456
14724TIP3    H265588   5.173   5.822  16.764  0.3733 -0.2479  0.7965
14725TIP3   OH265589   4.953   6.201   3.430  0.2424 -0.1635 -0.5511
14725TIP3    H165590   4.877   6.201   3.488  1.0274  1.9373  0.5958
14725TIP3    H265591   4.918   6.224   3.344 -0.5546 -0.3600 -0.2852
14726TIP3   OH265592   5.721   5.726  12.110  0.6033  0.8251 -0.2472
14726TIP3    H165593   5.771   5.649  12.139 -2.1394 -1.2254 -0.5761
14726TIP3    H265594   5.767   5.757  12.032  1.6141 -0.6948 -0.2978
14727TIP3   OH265595   4.607   6.187  11.202  0.4719  1.1136  0.2410
14727TIP3    H165596   4.662   6.171  11.278  1.0246  1.4281 -0.0857
14727TIP3    H265597   4.641   6.128  11.135  0.0704  0.9309  0.1905
14728TIP3   OH265598   4.045   0.086   0.764 -0.1787  0.1881 -0.2564
14728TIP3    H165599   3.972   0.029   0.741 -0.3045 -0.3219  1.2696
14728TIP3    H265600   4.044   0.155   0.697 -0.4938 -1.1541 -1.6899
14729TIP3   OH265601   5.860   3.669   1.610  0.3647  0.1796 -0.0442
14729TIP3    H165602   5.880   3.577   1.628 -0.5484 -0.0674 -0.2500
14729TIP3    H265603   5.893   3.685   1.522 -0.9241 -0.4139 -0.6526
14730TIP3   OH265604   4.724   6.232   0.355  0.5062 -0.2954  0.5183
14730TIP3    H165605   4.638   6.272   0.344  0.5007 -0.9164 -2.7162
14730TIP3    H265606   4.721   6.152   0.301  3.4524  0.3592 -0.8546
14731TIP3   OH265607   3.488   5.363  17.159 -0.6482 -0.6674  0.5357
14731TIP3    H165608   3.536   5.443  17.182 -0.6607 -0.6640  0.5486
14731TIP3    H265609   3.496   5.308  17.237  1.0701 -1.4967 -0.1613
14732TIP3   OH265610   4.584   2.200   0.773  0.1859 -0.9651  0.2745
14732TIP3    H165611   4.521   2.149   0.721 -0.2016 -1.9365  1.6303
14732TIP3    H265612   4.647   2.135   0.805  0.7341 -0.3020  0.5620
14733TIP3   OH265613   1.173   2.681  15.357 -0.3926  0.0357  0.0267
14733TIP3    H165614   1.221   2.675  15.274 -0.7295 -0.3789 -0.1442
14733TIP3    H265615   1.106   2.748  15.341 -0.2927  0.1396  0.0465
14734TIP3   OH265616   2.493   1.567  12.232 -0.0203 -0.1511  0.1774
14734TIP3    H165617   2.564   1.616  12.274 -0.3989 -1.0788  2.0035
14734TIP3    H265618   2.488   1.603  12.144  2.8338 -0.1748 -0.0856
14735TIP3   OH265619   3.176   5.241   4.816  0.2382 -0.4540 -0.0075
14735TIP3    H165620   3.124   5.247   4.896  0.8257  0.2323  0.3374
14735TIP3    H265621   3.143   5.163   4.771 -1.3354  0.1616  0.0149
14736TIP3   OH265622   3.141   5.043   1.310 -0.2271 -0.8019  0.2761
14736TIP3    H165623   3.067   5.030   1.369 -1.3325  0.2695 -0.8237
14736TIP3    H265624   3.134   4.972   1.246 -0.6686 -0.3542 -0.1781
14737TIP3   OH265625   4.093   4.583  16.424 -0.3463  0.0210  0.3220
14737TIP3    H165626   4.129   4.665  16.458 -0.2230  0.6642 -1.2592
14737TIP3    H265627   4.170   4.534  16.393 -0.5299 -0.0263 -0.0738
14738TIP3   OH265628   6.447   6.502  13.779 -0.1119 -0.5412 -0.0739
14738TIP3    H165629   6.493   6.429  13.819  1.4297  1.0029  1.1327
14738TIP3    H265630   6.502   6.528  13.705  0.3227  0.5321  0.6136
14739TIP3   OH265631   1.022   5.498   2.650 -0.8332  0.3930  0.0887
14739TIP3    H165632   1.112   5.529   2.660  0.2837 -1.3569 -3.1099
14739TIP3    H265633   0.997   5.468   2.738  0.7048  3.1833  1.6009
14740TIP3   OH265634   3.847   6.253  13.485 -0.5439  0.7121 -0.3549
14740TIP3    H165635   3.780   6.253  13.417 -0.1971  0.7890 -0.6978
14740TIP3    H265636   3.916   6.308  13.451  0.9832 -1.6487 -1.2881
14741TIP3   OH265637   4.634   6.037  13.331  0.0361  0.2786  0.0720
14741TIP3    H165638   4.717   6.069  13.296  0.6450  0.9085  1.9895
14741TIP3    H265639   4.604   6.105  13.391 -0.8013 -0.8584  1.0069
14742TIP3   OH265640   0.429   5.335   5.626 -0.5301 -0.5718 -0.2199
14742TIP3    H165641   0.442   5.350   5.532 -0.1264 -2.1677 -0.4498
14742TIP3    H265642   0.351   5.279   5.630 -0.3074 -0.8467  0.3670
14743TIP3   OH265643   4.228   2.322  13.458 -0.7672 -0.2499 -0.3731
14743TIP3    H165644   4.315   2.282  13.461 -1.0783 -0.9741 -0.7287
14743TIP3    H265645   4.232   2.394  13.522  0.6916  0.9609 -1.7160
14744TIP3   OH265646   6.398   5.520  16.378  0.1508 -0.2999  0.2012
14744TIP3    H165647   6.487   5.507  16.412  0.5887 -1.5811 -1.2757
14744TIP3    H265648   6.364   5.431  16.367 -0.3975  0.0807 -1.4895
14745TIP3   OH265649   3.032   2.125   2.700 -0.0445 -0.1031 -0.0278
14745TIP3    H165650   2.956   2.078   2.732 -0.0525 -1.1412 -1.4909
14745TIP3    H265651   2.996   2.201   2.653 -0.2816 -1.1312 -1.5954
14746TIP3   OH265652   1.462   3.692   1.165  0.3615  0.1893 -0.0856
14746TIP3    H165653   1.393   3.699   1.099  1.7268 -0.0552 -1.5998
14746TIP3    H265654   1.473   3.782   1.197 -1.9147 -0.0403  1.6020
14747TIP3   OH265655   1.811   2.202   2.475  1.2819 -0.2160 -0.7285
14747TIP3    H165656   1.807   2.159   2.389  1.0611 -2.1738  0.2004
14747TIP3    H265657   1.813   2.129   2.538  0.1067  1.1510  0.9881
14748TIP3   OH265658   4.726   4.594  11.380 -0.4826  0.1095  0.2312
14748TIP3    H165659   4.731   4.689  11.388 -1.5323  0.4295 -2.0979
14748TIP3    H265660   4.719   4.578  11.286 -1.2803 -2.2280  0.6195
14749TIP3   OH265661   2.344   0.073  16.232 -0.4613  0.3705  0.1502
14749TIP3    H165662   2.290   0.047  16.306 -2.5709  0.2822 -1.3374
14749TIP3    H265663   2.283   0.079  16.158  1.5616  0.3302 -1.6255
14750TIP3   OH265664   3.683   6.472   2.739  0.5287  0.6901  0.1945
14750TIP3    H165665   3.666   6.487   2.832 -0.9145  0.0609  0.0508
14750TIP3    H265666   3.757   6.529   2.719  1.3281  0.3132  1.8878
14751TIP3   OH265667   0.938   5.099  12.797  0.1013  0.1895 -0.3000
14751TIP3    H165668   0.975   5.152  12.727  1.7256 -1.3117 -0.6726
14751TIP3    H265669   0.865   5.053  12.757  0.8291 -0.4247 -0.9738
14752TIP3   OH265670   1.066   1.676   6.179 -0.3487  0.0350 -0.0473
14752TIP3    H165671   1.158   1.656   6.160 -0.6261 -0.9467 -0.4578
14752TIP3    H265672   1.017   1.621   6.118 -1.2077  1.9514 -1.1664
14753TIP3   OH265673   3.959   4.595   2.134  0.6777 -0.3462 -0.2161
14753TIP3    H165674   3.946   4.545   2.054  1.7440 -1.1519  0.0889
14753TIP3    H265675   3.965   4.686   2.105 -0.1505 -0.4992 -0.9068
14754TIP3   OH265676   5.110   1.754   5.985 -0.4107  0.6969 -0.1047
14754TIP3    H165677   5.075   1.836   5.950  0.2567  1.0763  0.0918
14754TIP3    H265678   5.184   1.782   6.040 -0.9575  0.0602  0.9739
14755TIP3   OH265679   5.996   1.987   5.360 -0.1174 -0.4625 -0.2412
14755TIP3    H165680   6.029   2.069   5.326  0.7744 -0.1728  1.2545
14755TIP3    H265681   5.985   1.931   5.282 -2.2349  1.5065 -1.4936
14756TIP3   OH265682   6.790   3.216   1.253  0.6724  0.1482  0.3901
14756TIP3    H165683   6.829   3.266   1.181 -1.8188  2.1335  0.2720
14756TIP3    H265684   6.817   3.262   1.332  0.6688 -0.0217  0.4920
14757TIP3   OH265685   2.220   4.869   3.409 -0.5953  0.4180 -0.2513
14757TIP3    H165686   2.159   4.938   3.383 -0.6570  0.1813 -0.7451
14757TIP3    H265687   2.164   4.799   3.443 -0.5852  0.2961 -0.4835
14758TIP3   OH265688   2.969   2.892  12.182  0.2424  0.5584  0.1861
14758TIP3    H165689   2.974   2.823  12.249 -0.9988 -0.3737 -0.6325
14758TIP3    H265690   3.024   2.860  12.111 -3.6977 -2.0088 -2.1554
14759TIP3   OH265691   4.396   6.397  13.530  0.5156  0.5520 -0.4272
14759TIP3    H165692   4.351   6.461  13.584 -0.3639  0.2142 -0.7398
14759TIP3    H265693   4.397   6.435  13.442 -1.2376 -0.4111 -0.9191
14760TIP3   OH265694   5.909   1.905   4.365  0.1425  0.3470 -0.2936
14760TIP3    H165695   5.853   1.954   4.425  1.4955  0.8115  0.6423
14760TIP3    H265696   5.885   1.938   4.278 -1.1475  0.3912  0.0675
14761TIP3   OH265697   2.619   6.097   0.031 -0.1379  0.3170 -0.4114
14761TIP3    H165698   2.536   6.124  -0.007 -0.5266  0.2350  0.3661
14761TIP3    H265699   2.603   6.008   0.062  0.4179  0.0807 -0.7751
14762TIP3   OH265700   1.498   1.639   0.719  0.1024  0.7710  0.5555
14762TIP3    H165701   1.443   1.690   0.658 -2.0516 -0.3904  1.4174
14762TIP3    H265702   1.468   1.549   0.709 -0.6554  0.5745  3.5979
14763TIP3   OH265703   4.211   4.077  12.201  0.1627  0.1914  0.3935
14763TIP3    H165704   4.303   4.051  12.210 -0.2553 -1.0651  1.3056
14763TIP3    H265705   4.166   4.029  12.270 -1.7107 -1.8112 -2.0212
14764TIP3   OH265706   0.244   1.381  10.285 -0.0748 -0.1670 -0.2364
14764TIP3    H165707   0.337   1.405  10.280 -0.2019  0.0365 -2.1511
14764TIP3    H265708   0.211   1.429  10.361  1.5280 -0.8084  0.9200
14765TIP3   OH265709   0.082   6.449  10.712 -0.6459  0.1630 -0.6392
14765TIP3    H165710  -0.003   6.409  10.693 -0.3429 -0.0585 -1.5857
14765TIP3    H265711   0.146   6.390  10.672 -0.0270  0.2408  0.2116
14766TIP3   OH265712   3.064   5.283  13.796  0.2217 -0.2201 -0.5972
14766TIP3    H165713   3.072   5.232  13.877  0.5464 -0.6530 -0.8952
14766TIP3    H265714   3.017   5.225  13.737 -2.0588  0.9365 -0.0213
14767TIP3   OH265715   3.688   1.339  14.200 -0.1010  0.2039 -0.1132
14767TIP3    H165716   3.674   1.246  14.186  0.5597 -0.0565  0.8851
14767TIP3    H265717   3.661   1.355  14.290 -2.6633  1.5230 -0.9988
14768TIP3   OH265718   2.947   6.648  16.164 -0.0318  0.5155 -0.2294
14768TIP3    H165719   2.942   6.655  16.260 -0.0974 -0.7263 -0.1305
14768TIP3    H265720   3.030   6.691  16.142  0.6473 -0.3724  0.5317
14769TIP3   OH265721   6.005   6.449   2.561  0.4330 -0.7739 -0.2290
14769TIP3    H165722   6.077   6.411   2.510  0.7964 -1.6285  0.8820
14769TIP3    H265723   5.936   6.464   2.496  0.6310 -2.4392 -0.8949
14770TIP3   OH265724   5.564   3.702  14.218  0.1109  0.6099  0.0105
14770TIP3    H165725   5.515   3.620  14.209  0.3645  0.4052  0.4178
14770TIP3    H265726   5.654   3.678  14.196  0.0575  0.9484 -0.5843
14771TIP3   OH265727   0.507   5.963   3.937 -0.1693  0.7483 -0.5366
14771TIP3    H165728   0.587   5.933   3.894 -0.6256  0.9573 -1.5520
14771TIP3    H265729   0.537   6.003   4.019  0.5268 -1.8862  0.6081
14772TIP3   OH265730   0.995   2.115   5.769 -0.3436  0.1868 -0.6460
14772TIP3    H165731   0.972   2.153   5.853  0.1230  1.3505 -1.0257
14772TIP3    H265732   0.914   2.075   5.737 -0.5035 -0.3421  0.3740
14773TIP3   OH265733   3.293   1.855  14.284  0.1598 -0.3564 -0.4238
14773TIP3    H165734   3.229   1.926  14.281  1.1818  0.5706 -1.0354
14773TIP3    H265735   3.254   1.789  14.341  0.5730  2.0927  2.9411
14774TIP3   OH265736   5.134   6.602   2.497  0.1368 -0.1129 -0.5164
14774TIP3    H165737   5.175   6.518   2.517  1.0934  0.3023 -0.6498
14774TIP3    H265738   5.103   6.635   2.581  1.7090  0.3806 -0.0920
14775TIP3   OH265739   0.456   5.713   5.445  0.4260  0.5250 -0.3026
14775TIP3    H165740   0.413   5.775   5.387 -2.1263 -1.3490 -0.5644
14775TIP3    H265741   0.531   5.761   5.481 -0.9508  3.4339 -1.1012
14776TIP3   OH265742   4.392   6.487   5.093 -0.2429  0.0705 -0.2406
14776TIP3    H165743   4.398   6.458   5.003  1.0669  0.6554 -0.3704
14776TIP3    H265744   4.462   6.552   5.102  0.5759 -0.9875  1.5612
14777TIP3   OH265745   1.943   2.255   1.372 -0.3486 -1.0390  0.2888
14777TIP3    H165746   1.995   2.332   1.351  0.5399 -1.7120 -0.0492
14777TIP3    H265747   1.970   2.190   1.307 -1.5407 -1.4378  0.1720
14778TIP3   OH265748   6.027   3.446  13.616  0.4024 -0.2406 -0.7665
14778TIP3    H165749   5.966   3.394  13.668  0.4449  0.1270 -0.3391
14778TIP3    H265750   6.114   3.412  13.640  0.4356  0.0952 -0.4093
14779TIP3   OH265751   1.421   5.836   1.940  0.2430 -0.1670 -0.4895
14779TIP3    H165752   1.359   5.908   1.929  0.1342 -0.2145 -0.2018
14779TIP3    H265753   1.426   5.823   2.035  1.5928  0.6261 -0.4217
14780TIP3   OH265754   0.079   1.436  14.450  0.3340  0.2205  0.3919
14780TIP3    H165755   0.095   1.530  14.439 -0.5326  0.4277  0.8361
14780TIP3    H265756  -0.009   1.423  14.415  0.9130 -0.6649 -0.8315
14781TIP3   OH265757   2.929   5.569   2.833  1.0752  0.6330  0.0823
14781TIP3    H165758   2.881   5.504   2.884  0.2973 -0.7503 -2.2835
14781TIP3    H265759   2.900   5.653   2.868 -1.3913 -0.2064  0.2281
14782TIP3   OH265760   4.108   1.508   2.992 -0.3421 -0.5257 -0.2612
14782TIP3    H165761   4.172   1.577   2.976  1.2553 -0.8600  3.6783
14782TIP3    H265762   4.149   1.429   2.956 -0.5079 -0.1026 -1.4447
14783TIP3   OH265763   1.885   3.663  14.665  0.0841  0.5816  0.3134
14783TIP3    H165764   1.859   3.681  14.575  2.2833 -0.5745 -0.6304
14783TIP3    H265765   1.880   3.747  14.709 -0.9060  1.1944 -0.9198
14784TIP3   OH265766   1.452   4.874  13.704 -0.3036 -0.6734 -0.2834
14784TIP3    H165767   1.420   4.869  13.794 -1.4346 -1.5766 -0.7018
14784TIP3    H265768   1.473   4.784  13.681  0.2510 -0.4115 -0.8383
14785TIP3   OH265769   0.837   4.494   3.899 -0.1860 -0.3966 -0.1421
14785TIP3    H165770   0.779   4.540   3.838 -2.3594 -1.9892  0.5720
14785TIP3    H265771   0.884   4.430   3.844  0.5208  0.5331 -0.6464
14786TIP3   OH265772   5.114   5.682   1.349 -0.2983 -0.5114 -0.2014
14786TIP3    H165773   5.053   5.610   1.367  0.5265 -1.5827 -1.5711
14786TIP3    H265774   5.130   5.677   1.255 -0.2127  1.4795 -0.3327
14787TIP3   OH265775   4.633   1.115   4.492  0.6025 -0.0225 -0.3321
14787TIP3    H165776   4.549   1.071   4.506  1.1085 -0.6190  0.9228
14787TIP3    H265777   4.619   1.204   4.525  0.1978  0.1594 -0.9750
14788TIP3   OH265778   4.108   6.430   4.115 -0.1396  0.2650  0.1085
14788TIP3    H165779   4.188   6.379   4.112  0.5474  1.2225  1.2612
14788TIP3    H265780   4.127   6.508   4.063 -1.6382 -1.1472 -2.8228
14789TIP3   OH265781   4.874   2.253  12.725  0.4012 -0.1411 -0.3845
14789TIP3    H165782   4.933   2.238  12.651 -1.7529 -0.1143 -2.2235
14789TIP3    H265783   4.815   2.177  12.724 -1.5795  1.3400 -0.6744
14790TIP3   OH265784   1.248   5.605   2.787  0.1237 -0.3079 -0.2488
14790TIP3    H165785   1.338   5.608   2.818  0.3747  2.5912 -0.9559
14790TIP3    H265786   1.195   5.628   2.864 -0.0334 -1.6098  0.0631
14791TIP3   OH265787   1.210   0.223  11.993 -0.1486 -0.2326  0.3404
14791TIP3    H165788   1.248   0.255  12.075  0.4121 -0.4355  0.1663
14791TIP3    H265789   1.194   0.303  11.942  0.7755 -0.1760  0.1116
14792TIP3   OH265790   1.687   6.798  11.699  0.2686  0.3058 -0.3687
14792TIP3    H165791   1.765   6.831  11.653 -0.8247  2.3865 -0.8420
14792TIP3    H265792   1.679   6.853  11.776 -1.3239  0.8805 -0.8993
14793TIP3   OH265793   5.456   6.746  16.552  0.1151  0.0118  0.5418
14793TIP3    H165794   5.417   6.801  16.484  1.0522 -1.0271 -0.8679
14793TIP3    H265795   5.520   6.802  16.595  0.9212  0.1008 -0.7487
14794TIP3   OH265796   1.250   5.143   4.787  0.0099 -0.1191  0.4008
14794TIP3    H165797   1.256   5.050   4.808  0.9968 -0.6579 -1.9634
14794TIP3    H265798   1.339   5.168   4.761 -0.7419  0.7990 -1.4916
14795TIP3   OH265799   2.780   6.396  12.201 -0.4931  0.0156  0.2039
14795TIP3    H165800   2.760   6.306  12.226 -2.2024  1.1391  3.4531
14795TIP3    H265801   2.758   6.401  12.108  1.7837 -3.3931 -0.7153
14796TIP3   OH265802   6.733   6.437   4.628  0.5922 -0.4040  0.5512
14796TIP3    H165803   6.801   6.375   4.605 -0.6796 -1.3890 -0.7358
14796TIP3    H265804   6.707   6.413   4.717 -0.8199 -2.6902 -0.3882
14797TIP3   OH265805   6.295   6.409  12.732 -0.1155 -0.4454  0.3027
14797TIP3    H165806   6.304   6.464  12.810  0.8930 -0.0778 -0.0607
14797TIP3    H265807   6.316   6.321  12.763  0.8112 -0.2186  0.3482
14798TIP3   OH265808   2.223   3.172  11.775  0.4973  0.4176 -0.4610
14798TIP3    H165809   2.186   3.234  11.712 -0.5470 -0.5397 -0.8196
14798TIP3    H265810   2.160   3.101  11.778  0.2075  0.6992  2.1540
14799TIP3   OH265811   6.108   2.925  13.892  0.6275 -0.4111 -0.8474
14799TIP3    H165812   6.032   2.953  13.841  0.2977 -0.5545 -0.4337
14799TIP3    H265813   6.092   2.961  13.979  1.5082  0.4098 -0.9992
14800TIP3   OH265814   1.622   1.628   1.163  0.5519 -0.0599 -0.0304
14800TIP3    H165815   1.590   1.684   1.234 -1.6279 -2.5022  1.1153
14800TIP3    H265816   1.565   1.648   1.089  0.4614  0.0071  0.0570
14801TIP3   OH265817   4.879   0.483   0.599 -0.1420 -0.3296  0.7863
14801TIP3    H165818   4.888   0.577   0.617 -0.4187 -0.0398 -0.4750
14801TIP3    H265819   4.950   0.443   0.649  0.2969  0.6108  0.9587
14802TIP3   OH265820   1.639   5.741   2.546  0.9390  0.2299  0.3373
14802TIP3    H165821   1.568   5.678   2.536  1.2062  0.0854 -0.7656
14802TIP3    H265822   1.637   5.792   2.466  0.4866  1.9024  1.3612
14803TIP3   OH265823   4.810   4.713   5.678  0.1234 -0.1821 -0.2312
14803TIP3    H165824   4.828   4.778   5.610 -1.4308 -0.5340 -1.0083
14803TIP3    H265825   4.830   4.759   5.760  3.3927 -0.1974 -0.8701
14804TIP3   OH265826   4.828   0.199  15.799  0.0895 -0.3534  0.2088
14804TIP3    H165827   4.906   0.196  15.745 -1.5281  0.3291 -2.3657
14804TIP3    H265828   4.798   0.108  15.803  0.0314 -0.3661 -0.3886
14805TIP3   OH265829   3.653   0.060   4.825  0.4207  0.8749  0.9095
14805TIP3    H165830   3.603   0.141   4.834  0.0325  0.7007  0.3476
14805TIP3    H265831   3.703   0.072   4.744 -0.2100  0.2556  0.4166
14806TIP3   OH265832   3.293   5.774  13.329 -0.1454 -0.1672  0.3296
14806TIP3    H165833   3.313   5.686  13.299  0.7946 -0.0391  0.5396
14806TIP3    H265834   3.367   5.827  13.301 -1.3263  0.8600 -1.0251
14807TIP3   OH265835   2.281   6.636  15.523 -0.2301 -0.1732 -0.2139
14807TIP3    H165836   2.322   6.635  15.437 -0.5145  1.9562 -0.4260
14807TIP3    H265837   2.199   6.587  15.512 -1.7334  2.5282 -2.0051
14808TIP3   OH265838   5.339   6.192  14.465  0.4531 -0.0854 -0.0327
14808TIP3    H165839   5.385   6.264  14.509  0.4197 -0.3587  0.4509
14808TIP3    H265840   5.398   6.165  14.395  1.7734 -1.5002  1.5621
14809TIP3   OH265841   4.713   1.875  11.466  0.0915 -0.1174 -0.0294
14809TIP3    H165842   4.675   1.858  11.552  0.2324 -0.1266  0.0318
14809TIP3    H265843   4.671   1.956  11.437  0.3941  0.1516  0.2621
14810TIP3   OH265844   0.580   0.094   2.393 -0.3676 -0.1520 -0.6756
14810TIP3    H165845   0.531   0.145   2.329  0.2280  1.0505 -0.2082
14810TIP3    H265846   0.524   0.019   2.414 -0.5374 -0.6092 -2.6404
14811TIP3   OH265847   5.777   3.539  12.087  0.5007  0.6587 -0.0697
14811TIP3    H165848   5.768   3.472  12.155 -1.0204 -0.0375 -0.8983
14811TIP3    H265849   5.867   3.571  12.096  0.5888 -0.0011  1.7086
14812TIP3   OH265850   1.548   4.151  14.700  0.9741  0.0865  0.0105
14812TIP3    H165851   1.576   4.189  14.617 -0.2933 -0.0421 -0.5033
14812TIP3    H265852   1.568   4.219  14.765  0.1454  1.0393 -0.6843
14813TIP3   OH265853   0.577   0.219   6.643  1.0193  0.1167  0.1154
14813TIP3    H165854   0.642   0.180   6.701  1.5355 -0.9788 -1.1597
14813TIP3    H265855   0.496   0.172   6.662  0.6697  1.1354  1.3382
14814TIP3   OH265856   6.273   5.549  12.664  0.6678 -0.1510 -0.3286
14814TIP3    H165857   6.190   5.585  12.697  1.0297  0.0706  0.3704
14814TIP3    H265858   6.248   5.496  12.588 -0.1010  0.0054 -0.1936
14815TIP3   OH265859   2.098   0.620  12.142  0.3047 -0.4808 -0.6867
14815TIP3    H165860   2.165   0.555  12.121 -0.3206 -1.4748  0.2787
14815TIP3    H265861   2.027   0.603  12.080  0.2517 -0.5660 -0.6046
14816TIP3   OH265862   5.897   3.828  15.268 -0.0486  0.3344 -0.5944
14816TIP3    H165863   5.867   3.887  15.337 -1.6153  1.5263 -2.2121
14816TIP3    H265864   5.983   3.861  15.244 -0.1794  0.8913 -0.2965
14817TIP3   OH265865   2.288   2.567  13.623 -0.4916  0.2262 -0.3486
14817TIP3    H165866   2.239   2.642  13.657  0.1841  0.7342 -0.4776
14817TIP3    H265867   2.271   2.497  13.686 -0.5780  0.6849  0.1454
14818TIP3   OH265868   6.225   4.516   4.865 -0.1010  0.3650  0.2483
14818TIP3    H165869   6.154   4.455   4.844  0.4397 -0.1025 -0.2805
14818TIP3    H265870   6.271   4.474   4.937  1.0644 -0.5414 -0.9669
14819TIP3   OH265871   6.763   5.027   5.742  0.0079 -0.3702 -0.2842
14819TIP3    H165872   6.775   4.953   5.802  0.1533  0.0170  0.1679
14819TIP3    H265873   6.674   5.015   5.707 -0.5517  0.0398  0.9192
14820TIP3   OH265874   5.588   0.592  16.566  0.0737  0.5704  0.7458
14820TIP3    H165875   5.679   0.567  16.552  0.0084 -0.2290  1.6876
14820TIP3    H265876   5.590   0.688  16.566  0.9505  0.5655  0.9936
14821TIP3   OH265877   6.063   2.342  16.658  0.6187 -1.0137  0.1652
14821TIP3    H165878   6.130   2.395  16.615 -1.9176  1.7132 -0.7682
14821TIP3    H265879   5.999   2.324  16.589 -1.3828 -0.3563  1.7532
14822TIP3   OH265880   2.014   1.586   3.577  0.4778 -0.1109  0.3920
14822TIP3    H165881   1.961   1.558   3.503  0.2908  0.8317  0.1529
14822TIP3    H265882   1.955   1.580   3.652 -0.1445  1.3810  0.0562
14823TIP3   OH265883   1.649   6.591   5.632  0.8746 -0.0150 -0.3136
14823TIP3    H165884   1.626   6.625   5.719 -0.0008  1.5037 -1.1057
14823TIP3    H265885   1.633   6.497   5.638  1.4454 -0.0434  1.3558
14824TIP3   OH265886   4.033   4.518   5.501 -0.3098  0.3106 -0.1599
14824TIP3    H165887   4.030   4.435   5.549 -1.4522  0.4476  0.0436
14824TIP3    H265888   4.009   4.495   5.412  1.0004  0.1870 -0.5051
14825TIP3   OH265889   0.673   5.599  16.085  0.2298  0.2036  0.0630
14825TIP3    H165890   0.728   5.606  16.008 -1.5878  0.5089 -1.2732
14825TIP3    H265891   0.734   5.581  16.157  1.8802 -1.1325 -1.5786
14826TIP3   OH265892   6.036   6.221  11.726 -0.1910 -0.8913  0.5175
14826TIP3    H165893   5.974   6.224  11.652 -1.6908  2.3728  1.7291
14826TIP3    H265894   6.115   6.184  11.688 -0.9631  0.3854 -2.7240
14827TIP3   OH265895   5.726   3.650  16.046 -0.3104  0.3950 -0.0949
14827TIP3    H165896   5.670   3.640  15.970  0.0533 -0.5377 -0.2538
14827TIP3    H265897   5.667   3.678  16.116 -0.5768  1.6923 -0.8075
14828TIP3   OH265898   4.753   1.880  15.926  0.1211 -0.2088  0.1226
14828TIP3    H165899   4.841   1.913  15.949 -1.1616  2.4619  1.7627
14828TIP3    H265900   4.757   1.786  15.943  2.6242 -0.1370  0.2834
14829TIP3   OH265901   3.802   2.972   4.635 -0.0442 -1.0006 -0.0526
14829TIP3    H165902   3.720   2.942   4.597 -0.5563  0.2959 -0.0065
14829TIP3    H265903   3.865   2.966   4.563 -0.9371  1.1596 -1.0946
14830TIP3   OH265904   1.340   3.216   0.699 -0.4396 -0.7226 -0.4398
14830TIP3    H165905   1.360   3.124   0.716  2.0410  0.0982  1.6499
14830TIP3    H265906   1.340   3.257   0.785  1.6591  1.7694 -1.4941
14831TIP3   OH265907   2.138   6.503   1.559 -0.2764 -0.5356  0.1087
14831TIP3    H165908   2.101   6.487   1.471 -0.5618 -2.8592  0.5748
14831TIP3    H265909   2.134   6.417   1.602  0.1471  0.4824  2.3048
14832TIP3   OH265910   2.590   4.289   2.846 -0.0826  0.2695  0.1212
14832TIP3    H165911   2.648   4.357   2.812 -0.5244  1.9868  2.5785
14832TIP3    H265912   2.612   4.211   2.794  2.7466  1.4262 -0.6004
14833TIP3   OH265913   1.954   0.180  15.886  0.4839  0.5359  0.3059
14833TIP3    H165914   1.951   0.275  15.899  0.6824  0.6708 -0.6106
14833TIP3    H265915   2.030   0.151  15.937 -0.7142  0.5843  2.2136
14834TIP3   OH265916   3.507   6.057  15.251 -0.5775  0.1799  0.0922
14834TIP3    H165917   3.541   6.105  15.175 -0.0778  0.2237  0.3392
14834TIP3    H265918   3.430   6.107  15.278 -0.4176  0.4967 -0.0278
14835TIP3   OH265919   1.291   4.856  17.115 -0.1165  0.5115  0.4970
14835TIP3    H165920   1.209   4.862  17.066  0.1862 -2.8350 -0.7499
14835TIP3    H265921   1.267   4.877  17.205 -2.2145  0.2672  0.0535
14836TIP3   OH265922   2.441   0.546   3.506  0.3901  0.0425  0.2173
14836TIP3    H165923   2.486   0.585   3.431  2.7169 -3.9724 -0.7349
14836TIP3    H265924   2.483   0.586   3.583  3.5791 -1.3174 -0.6758
14837TIP3   OH265925   2.097   3.752   2.941 -0.3205 -0.0139 -0.4271
14837TIP3    H165926   2.068   3.806   2.868 -1.2629 -1.0360 -0.8466
14837TIP3    H265927   2.032   3.681   2.945  0.5185 -0.7536  0.4985
14838TIP3   OH265928   3.119   0.444  16.704 -0.2891  0.0603  0.3633
14838TIP3    H165929   3.156   0.528  16.677 -3.3446  1.4142 -0.0658
14838TIP3    H265930   3.054   0.424  16.637 -0.2437 -2.2519  0.9180
14839TIP3   OH265931   1.315   6.629   0.820  0.1805 -0.1416 -0.1219
14839TIP3    H165932   1.232   6.648   0.864 -0.6911 -1.7938 -0.9468
14839TIP3    H265933   1.291   6.622   0.728  0.7453 -2.9166 -0.1339
14840TIP3   OH265934   6.017   3.908  14.281 -0.2630  0.0142  0.1854
14840TIP3    H165935   6.092   3.944  14.235 -0.4687  0.8542  0.4950
14840TIP3    H265936   6.045   3.819  14.305  0.2803 -0.0113 -0.5002
14841TIP3   OH265937   2.162   6.168   3.437 -0.6008  0.4935  0.3151
14841TIP3    H165938   2.171   6.235   3.369 -0.3243 -1.8070 -2.0967
14841TIP3    H265939   2.068   6.168   3.458 -0.6883  1.2589 -0.0554
14842TIP3   OH265940   4.343   3.938   5.233  0.2328  0.7092 -0.0564
14842TIP3    H165941   4.280   3.994   5.188 -0.8630 -1.3103 -1.1704
14842TIP3    H265942   4.423   3.946   5.180 -0.1277  0.6841 -0.6164
14843TIP3   OH265943   3.598   1.097  11.539  0.1008 -0.2212  0.1551
14843TIP3    H165944   3.668   1.157  11.515  1.5975 -0.7870  2.6957
14843TIP3    H265945   3.520   1.152  11.547  0.4695  0.6079 -1.6258
14844TIP3   OH265946   0.701   5.712   0.235  0.0664  0.2696  0.0693
14844TIP3    H165947   0.794   5.728   0.219 -0.1656 -1.0235 -3.7527
14844TIP3    H265948   0.660   5.798   0.225  0.7229  0.6746  0.7605
14845TIP3   OH265949   0.515   2.567  15.652  0.3667 -0.1981  0.1338
14845TIP3    H165950   0.563   2.627  15.595  2.5364  0.2107  2.2171
14845TIP3    H265951   0.425   2.600  15.652  0.3297 -0.0639 -2.7393
14846TIP3   OH265952   4.014   3.496   5.590 -0.2995  0.0705  0.2928
14846TIP3    H165953   4.051   3.410   5.612  0.4560 -0.6024 -2.9623
14846TIP3    H265954   4.090   3.553   5.580 -0.6031  0.4066 -0.1247
14847TIP3   OH265955   1.752   5.375   4.454  0.2003 -0.5106  0.0066
14847TIP3    H165956   1.757   5.318   4.377  0.8617 -2.2238  1.2428
14847TIP3    H265957   1.659   5.376   4.477  0.2691 -1.9181  0.4917
14848TIP3   OH265958   1.813   1.692  16.927 -0.8841 -0.0214 -0.4469
14848TIP3    H165959   1.755   1.650  16.991  0.1016 -0.3006  0.2971
14848TIP3    H265960   1.879   1.626  16.909 -1.2665 -0.0145 -1.9414
14849TIP3   OH265961   2.752   6.049  12.619 -0.4761 -0.6055 -0.0974
14849TIP3    H165962   2.694   6.124  12.609  1.0252  0.5100 -0.7902
14849TIP3    H265963   2.765   6.041  12.713  2.4007  2.5403 -0.0446
14850TIP3   OH265964   2.663   5.486   1.926  0.4446 -0.3379 -0.0438
14850TIP3    H165965   2.628   5.422   1.988  0.9791 -0.5026  0.0964
14850TIP3    H265966   2.677   5.565   1.978  1.9863 -0.8263  0.3334
14851TIP3   OH265967   4.803   0.212  12.603  0.3052 -0.1734  0.4223
14851TIP3    H165968   4.895   0.188  12.593  0.5021  1.2607 -1.9517
14851TIP3    H265969   4.774   0.165  12.682  2.5978 -1.9604  0.2912
14852TIP3   OH265970   6.523   3.838   3.264  0.3768  0.2875 -0.4075
14852TIP3    H165971   6.548   3.924   3.296  1.1059  0.1885 -0.6884
14852TIP3    H265972   6.584   3.820   3.192 -0.9562  0.3261 -1.5795
14853TIP3   OH265973   5.759   4.879  16.815  0.2318  0.2364  0.5788
14853TIP3    H165974   5.777   4.804  16.759 -0.2815 -0.5136  1.4072
14853TIP3    H265975   5.670   4.866  16.846  0.1540  1.1642  0.7694
14854TIP3   OH265976   3.924   5.429  12.895 -0.1218  0.5421 -0.0565
14854TIP3    H165977   3.837   5.419  12.933 -1.4420  0.7145 -2.7760
14854TIP3    H265978   3.931   5.522  12.874 -0.0654  0.2528 -1.4393
14855TIP3   OH265979   6.645   4.934   4.938 -0.2116 -0.0612 -0.2680
14855TIP3    H165980   6.723   4.891   4.972  1.5115  0.9534 -2.6719
14855TIP3    H265981   6.574   4.871   4.954  1.4024 -1.8365  0.3121
14856TIP3   OH265982   5.591   5.946   1.604 -0.3636  0.0145  0.0761
14856TIP3    H165983   5.563   5.902   1.684 -0.5629  0.4988  0.2755
14856TIP3    H265984   5.628   5.876   1.550 -1.2774 -0.5176  0.1151
14857TIP3   OH265985   0.683   1.282   2.176 -0.3287  0.1267  0.7116
14857TIP3    H165986   0.688   1.296   2.081 -1.2069 -1.0133  0.4715
14857TIP3    H265987   0.654   1.366   2.211  1.6656  1.0786  0.1808
14858TIP3   OH265988   1.761   2.209   0.148  0.0150 -0.7741  0.3193
14858TIP3    H165989   1.706   2.284   0.128 -0.4058 -1.2259 -0.2578
14858TIP3    H265990   1.762   2.158   0.067  1.8273 -0.4495  0.0845
14859TIP3   OH265991   5.181   3.108  15.135 -0.1969  0.1392 -0.5053
14859TIP3    H165992   5.146   3.180  15.082  0.9342  2.3624  1.5737
14859TIP3    H265993   5.202   3.148  15.220  0.2754 -2.7194  0.8593
14860TIP3   OH265994   6.440   0.021   5.734 -0.2385  0.1073 -0.0915
14860TIP3    H165995   6.350   0.013   5.703 -0.8454  0.2448  1.5018
14860TIP3    H265996   6.455  -0.059   5.785  0.7710 -0.2039 -0.8407
14861TIP3   OH265997   0.703   3.146   4.099 -0.3560  0.2516  0.3797
14861TIP3    H165998   0.650   3.223   4.079 -1.1314 -0.2969  0.2710
14861TIP3    H265999   0.743   3.166   4.183 -1.1243  0.4828  0.7010
14862TIP3   OH266000   2.232   1.137   4.724 -0.0571 -0.0244  0.1738
14862TIP3    H166001   2.285   1.217   4.729  0.6405 -0.4195 -0.7123
14862TIP3    H266002   2.257   1.087   4.801 -2.2327  1.6071  2.0919
14863TIP3   OH266003   1.022   5.887   3.436 -0.1441 -0.0926 -0.5983
14863TIP3    H166004   1.031   5.898   3.342  2.0189 -1.0336 -0.5561
14863TIP3    H266005   1.094   5.938   3.474 -0.2311 -0.7154  0.4505
14864TIP3   OH266006   5.257   4.446   0.368  0.0943 -0.2293  0.2019
14864TIP3    H166007   5.184   4.429   0.308 -0.4962 -0.2586  0.9110
14864TIP3    H266008   5.332   4.462   0.311 -0.8104  1.4565 -0.5916
14865TIP3   OH266009   3.497   3.069   4.619 -0.0772 -0.7343  0.6416
14865TIP3    H166010   3.456   2.998   4.570 -0.9636 -0.2736  0.6953
14865TIP3    H266011   3.503   3.141   4.556 -0.1475 -0.5154  0.8848
14866TIP3   OH266012   3.472   5.754  16.845  0.1391  0.4899  0.1934
14866TIP3    H166013   3.424   5.755  16.928  1.2307  0.6180  0.8506
14866TIP3    H266014   3.560   5.784  16.868  1.0323 -1.2902 -0.6504
14867TIP3   OH266015   3.102   2.078  14.324  0.1091  0.3370 -0.6459
14867TIP3    H166016   3.181   2.133  14.327 -0.0710  0.6371 -1.2414
14867TIP3    H266017   3.039   2.124  14.380  0.3940  0.0342 -0.0729
14868TIP3   OH266018   3.939   6.373  10.890 -0.1359 -0.5412  0.5872
14868TIP3    H166019   3.911   6.337  10.807 -1.2510  0.7822  0.3532
14868TIP3    H266020   3.867   6.356  10.950  0.2301 -0.5795  1.0289
14869TIP3   OH266021   0.412   0.421  14.176  0.4596 -0.2970 -0.7352
14869TIP3    H166022   0.443   0.417  14.267  0.0581  0.5399 -0.5511
14869TIP3    H266023   0.488   0.394  14.124  1.5954  1.7843 -0.2967
14870TIP3   OH266024   0.002   6.755   1.418 -0.1558  0.4698  0.1806
14870TIP3    H166025   0.063   6.797   1.480  0.0363  0.4064  0.0363
14870TIP3    H266026   0.027   6.663   1.418 -1.2322  0.1525  1.2614
14871TIP3   OH266027   1.231   1.101  17.021 -0.2662 -0.4596 -0.4115
14871TIP3    H166028   1.298   1.127  16.958 -0.5212 -0.5186 -0.7118
14871TIP3    H266029   1.164   1.058  16.968  1.3338 -4.2493  0.3529
14872TIP3   OH266030   3.713   1.881  15.136  0.8772  0.5134  0.1117
14872TIP3    H166031   3.671   1.868  15.221  0.6703  1.0352  0.0916
14872TIP3    H266032   3.661   1.828  15.075  0.3462  1.0060  0.1205
14873TIP3   OH266033   6.439   5.295  12.749  0.0860 -0.2777 -0.2209
14873TIP3    H166034   6.454   5.327  12.837 -1.6633  0.2414 -0.0745
14873TIP3    H266035   6.368   5.231  12.758 -0.5874  0.2749 -1.3172
14874TIP3   OH266036   3.121   3.100   1.760 -0.2689  0.0139 -0.0839
14874TIP3    H166037   3.209   3.061   1.760 -0.4434 -0.3858 -0.1423
14874TIP3    H266038   3.062   3.025   1.747 -0.6356  0.2350  0.2998
14875TIP3   OH266039   6.292   3.891  13.232 -0.0850  0.1557  0.6573
14875TIP3    H166040   6.270   3.853  13.147 -0.3424 -1.0948  1.2554
14875TIP3    H266041   6.211   3.930  13.263  0.7540  3.8700 -1.1696
14876TIP3   OH266042   0.963   1.652   4.348  0.5175  0.4654  0.3595
14876TIP3    H166043   0.955   1.561   4.376  2.8816  0.5173  1.4418
14876TIP3    H266044   1.010   1.647   4.264 -0.1333  0.6583 -0.0212
14877TIP3   OH266045   0.223   1.471   0.962  0.2123 -0.2932 -0.0174
14877TIP3    H166046   0.291   1.415   0.924  0.9740  0.6598 -0.0854
14877TIP3    H266047   0.222   1.548   0.905  1.9146  1.5313  2.2345
14878TIP3   OH266048   2.430   3.453   5.362 -0.2226 -0.3062  0.4488
14878TIP3    H166049   2.406   3.370   5.322 -1.6325  0.2616  0.0371
14878TIP3    H266050   2.423   3.438   5.456 -2.8807 -0.0505  0.3684
14879TIP3   OH266051   2.866   0.319  13.138  0.0855 -0.2720 -1.0726
14879TIP3    H166052   2.903   0.382  13.199 -2.3525 -1.7424  2.2609
14879TIP3    H266053   2.790   0.363  13.101 -0.8835 -0.7087  0.2975
14880TIP3   OH266054   5.615   2.626  10.585  0.0756 -0.0695 -0.0940
14880TIP3    H166055   5.668   2.666  10.653 -0.3828  1.2690 -0.4890
14880TIP3    H266056   5.525   2.636  10.616 -0.0003 -2.4186  0.6308
14881TIP3   OH266057   3.124   1.196  16.512 -0.2177 -0.3291 -0.9911
14881TIP3    H166058   3.182   1.221  16.439 -0.8924  0.9109 -1.1358
14881TIP3    H266059   3.049   1.255  16.504 -0.1898  0.0248  0.8658
14882TIP3   OH266060   0.055   1.532   4.439  0.3431 -0.1064 -0.9533
14882TIP3    H166061   0.121   1.512   4.372  0.9985 -0.6491 -0.1596
14882TIP3    H266062  -0.027   1.540   4.390  0.5634 -1.8225 -1.6847
14883TIP3   OH266063   0.617   0.904  15.958  0.1453 -0.2964 -0.2883
14883TIP3    H166064   0.583   0.913  16.047  0.9173 -1.2017  0.1149
14883TIP3    H266065   0.711   0.922  15.966 -0.0241  1.2032 -1.2129
14884TIP3   OH266066   3.392   1.547  12.381 -0.0510  0.1284 -0.3124
14884TIP3    H166067   3.439   1.465  12.371  1.6466  0.9968  0.1601
14884TIP3    H266068   3.314   1.524  12.431  0.7100 -1.0965  0.3460
14885TIP3   OH266069   0.264   1.618   0.742 -0.1185  0.2109  0.2877
14885TIP3    H166070   0.330   1.640   0.676 -0.2922  0.1466  0.0927
14885TIP3    H266071   0.191   1.677   0.724 -0.5630 -0.4794 -0.2033
14886TIP3   OH266072   0.136   3.269  17.226  0.2043 -0.1409 -0.2598
14886TIP3    H166073   0.164   3.200  17.286  0.4903 -0.9325 -1.2784
14886TIP3    H266074   0.129   3.226  17.141 -1.9367  0.5415 -0.4946
14887TIP3   OH266075   4.953   2.958  12.770  0.1576  0.2805  0.6396
14887TIP3    H166076   4.997   2.949  12.855 -0.2813  1.1324  0.9708
14887TIP3    H266077   4.877   3.013  12.788 -0.1372  0.1749 -0.2412
14888TIP3   OH266078   6.541   1.145  15.669 -0.2894  0.1435  0.1614
14888TIP3    H166079   6.614   1.088  15.695 -0.8807 -1.3013 -1.2191
14888TIP3    H266080   6.490   1.092  15.608 -1.8394  1.5665  0.1747
14889TIP3   OH266081   5.681   3.433   1.276  0.1004 -0.0918 -0.3697
14889TIP3    H166082   5.725   3.363   1.227  0.3703 -0.5630  0.5235
14889TIP3    H266083   5.747   3.463   1.338 -1.1806 -1.6675  1.8643
14890TIP3   OH266084   5.920   0.212   5.381 -0.3236 -0.2843  0.5621
14890TIP3    H166085   5.873   0.150   5.326  0.9681  0.7466 -1.8446
14890TIP3    H266086   6.012   0.203   5.354 -0.1636  3.1292 -0.4194
14891TIP3   OH266087   3.867   2.421   2.478 -0.3098  0.3369 -0.1968
14891TIP3    H166088   3.817   2.344   2.450 -0.2001 -0.6552  2.0726
14891TIP3    H266089   3.824   2.449   2.559  1.9838  0.2593  1.1167
14892TIP3   OH266090   2.448   5.049  16.723  0.1112  0.1571 -0.4469
14892TIP3    H166091   2.483   5.034  16.635 -0.7695 -0.8397 -0.6508
14892TIP3    H266092   2.354   5.061  16.709  0.0814  0.8781  0.2848
14893TIP3   OH266093   3.920   4.167   5.337 -0.0342  0.0839  0.2553
14893TIP3    H166094   3.942   4.174   5.430  2.1047 -1.8421 -0.0205
14893TIP3    H266095   3.865   4.089   5.331 -0.7975  0.6350 -0.0118
14894TIP3   OH266096   2.731   6.448   0.036  0.1260  0.4269  0.2217
14894TIP3    H166097   2.706   6.393  -0.038  1.1994 -0.5316  0.5515
14894TIP3    H266098   2.814   6.488   0.010  0.3518  0.3294  0.7714
14895TIP3   OH266099   2.357   1.809   1.680  0.0317 -0.0827  0.2454
14895TIP3    H166100   2.342   1.896   1.717  0.9056  0.1830 -0.0211
14895TIP3    H266101   2.450   1.807   1.658  0.0059 -1.0578  0.1755
14896TIP3   OH266102   3.071   6.489  11.956 -0.0178 -0.3188  0.3333
14896TIP3    H166103   3.144   6.433  11.983 -0.8197 -1.2805  0.5860
14896TIP3    H266104   3.057   6.547  12.030  2.4189  2.0014 -0.8566
14897TIP3   OH266105   1.362   5.213   4.303 -0.1337 -0.4890 -0.0679
14897TIP3    H166106   1.274   5.198   4.336 -0.0071 -0.9551  0.0713
14897TIP3    H266107   1.420   5.172   4.368  0.2019  0.0848  0.0047
14898TIP3   OH266108   6.537   0.283  16.114  0.1443  0.2815 -0.0077
14898TIP3    H166109   6.442   0.266  16.114  0.0276  0.7317  1.5997
14898TIP3    H266110   6.548   0.354  16.050 -1.1064  2.4209  1.9672
14899TIP3   OH266111   2.029   6.463  15.871 -0.5583 -0.0916 -0.2491
14899TIP3    H166112   1.992   6.377  15.853  2.6835 -1.1609 -2.4939
14899TIP3    H266113   2.055   6.459  15.963 -0.6158 -1.4507 -0.2720
14900TIP3   OH266114   2.568   3.881  13.313  0.0660  0.1606  0.1919
14900TIP3    H166115   2.495   3.829  13.281 -0.5483  1.2483 -0.2294
14900TIP3    H266116   2.635   3.817  13.336 -0.3083 -0.7608 -1.1894
14901TIP3   OH266117   3.636   3.808   3.239 -0.9713  0.2845  0.8840
14901TIP3    H166118   3.657   3.898   3.266 -2.3626  1.4908 -1.6785
14901TIP3    H266119   3.688   3.794   3.160  0.1474 -1.6901  1.8973
14902TIP3   OH266120   2.026   4.518  14.652 -0.9221 -0.1774  0.1479
14902TIP3    H166121   2.104   4.513  14.597 -2.0813 -0.5472 -1.5445
14902TIP3    H266122   1.991   4.606  14.636  0.6816  1.1663  3.2090
14903TIP3   OH266123   1.095   1.059  14.151  0.2283  0.1535 -0.5978
14903TIP3    H166124   1.034   0.989  14.129  0.2563 -0.2309  0.4671
14903TIP3    H266125   1.131   1.087  14.067  1.4210 -2.2190 -0.9793
14904TIP3   OH266126   0.784   5.930   3.846  0.0996  0.2016 -0.5910
14904TIP3    H166127   0.776   5.885   3.762 -0.0817  0.2019 -0.5735
14904TIP3    H266128   0.839   6.007   3.827  0.3558  0.0082 -0.6332
14905TIP3   OH266129   5.979   3.893  12.950  0.7952 -0.1827 -0.2691
14905TIP3    H166130   5.893   3.903  12.910  0.1261 -1.5219  0.7349
14905TIP3    H266131   6.039   3.885  12.876  0.1136  0.9814 -0.9894
14906TIP3   OH266132   4.522   2.354   6.488  0.0388 -0.1908 -0.2286
14906TIP3    H166133   4.589   2.408   6.531  0.7000 -0.4326 -0.9348
14906TIP3    H266134   4.440   2.379   6.531  0.5477  0.2804  0.4890
14907TIP3   OH266135   2.312   5.916   0.975  0.3303  0.0626 -0.8103
14907TIP3    H166136   2.222   5.936   0.949  0.7231 -0.6802 -2.8775
14907TIP3    H266137   2.302   5.873   1.061 -1.1141  1.4994 -0.1950
14908TIP3   OH266138   1.598   5.228   0.490  0.2423  0.4807 -0.3323
14908TIP3    H166139   1.523   5.256   0.543  0.7465 -0.5024  0.9290
14908TIP3    H266140   1.654   5.305   0.485 -0.2210  0.8355 -0.1869
14909TIP3   OH266141   3.157   6.774   3.995 -0.2019 -0.4896 -0.2465
14909TIP3    H166142   3.163   6.860   3.954  0.5556 -0.6168 -0.4153
14909TIP3    H266143   3.070   6.772   4.033 -0.6134 -0.0381 -1.1201
14910TIP3   OH266144   1.033   6.613   5.832  0.0417 -0.1703 -0.2753
14910TIP3    H166145   0.989   6.627   5.915  1.3791  0.6957  0.3210
14910TIP3    H266146   1.116   6.572   5.855  0.2286 -0.3434 -1.2207
14911TIP3   OH266147   1.145   2.916  14.732 -0.2003  0.3221  0.0447
14911TIP3    H166148   1.231   2.930  14.693 -0.1267 -2.4528 -0.9503
14911TIP3    H266149   1.084   2.958  14.671  0.3612  2.0535  0.6142
14912TIP3   OH266150   1.240   4.098  10.264 -0.0853  0.1395 -0.6401
14912TIP3    H166151   1.273   4.184  10.236 -2.5735  1.2011 -0.5585
14912TIP3    H266152   1.176   4.074  10.197  0.1657 -1.4443 -0.3623
14913TIP3   OH266153   2.887   3.545   1.936  0.3033 -0.7955  0.2459
14913TIP3    H166154   2.849   3.473   1.987  1.4331 -0.9253  0.9261
14913TIP3    H266155   2.962   3.507   1.892 -0.1156 -0.4477 -0.8035
14914TIP3   OH266156   6.722   4.728   2.295 -0.2786 -0.0566  0.4289
14914TIP3    H166157   6.742   4.759   2.207  0.4382  1.1527  0.9899
14914TIP3    H266158   6.752   4.638   2.297 -0.9752 -0.3374 -0.7828
14915TIP3   OH266159   2.585   2.972   0.570  0.4754 -0.3334  0.1735
14915TIP3    H166160   2.598   2.885   0.607 -1.8924 -2.1519 -2.7890
14915TIP3    H266161   2.490   2.984   0.571  0.6136  1.3116 -1.3091
14916TIP3   OH266162   3.216   3.555  15.313 -0.2231  0.2988 -0.2751
14916TIP3    H166163   3.264   3.529  15.392 -0.2093  1.0898 -0.0195
14916TIP3    H266164   3.266   3.516  15.241  2.2227  2.9950 -0.2109
14917TIP3   OH266165   4.824   2.060   2.170 -0.1279 -0.2387  0.2316
14917TIP3    H166166   4.807   2.114   2.093 -0.7103  0.9388  1.1499
14917TIP3    H266167   4.796   2.115   2.244 -0.6126 -1.7464  1.2111
14918TIP3   OH266168   6.402   5.041   2.052 -0.3259  0.0743 -0.4759
14918TIP3    H166169   6.432   4.989   2.126 -0.5794  1.0130  0.3003
14918TIP3    H266170   6.481   5.061   2.002 -0.4302 -2.8920 -2.0656
14919TIP3   OH266171   5.082   4.168  12.740  0.2448 -0.2307 -0.2572
14919TIP3    H166172   5.174   4.186  12.755  0.7892 -2.0558 -1.0575
14919TIP3    H266173   5.080   4.120  12.657 -1.4916  0.3150 -0.5777
14920TIP3   OH266174   1.941   6.128  13.741 -0.4268  0.0834  0.0487
14920TIP3    H166175   1.847   6.113  13.740 -0.2205 -1.5038  0.7597
14920TIP3    H266176   1.958   6.184  13.665 -1.7125 -1.1968 -1.2427
14921TIP3   OH266177   1.337   2.949   1.446  0.2082  0.5475  0.2772
14921TIP3    H166178   1.354   2.902   1.527 -0.7827  1.6934  1.2063
14921TIP3    H266179   1.417   2.940   1.395  0.3457 -1.3811  0.7671
14922TIP3   OH266180   4.844   0.989  14.360 -0.8663  0.6991 -0.2689
14922TIP3    H166181   4.928   1.025  14.330 -1.0820  2.3107  0.9892
14922TIP3    H266182   4.806   0.950  14.281 -0.1413  2.3270 -1.4871
14923TIP3   OH266183   3.809   5.456   1.503 -0.3199  0.3489  0.0283
14923TIP3    H166184   3.752   5.450   1.427  0.8143  0.5148 -0.8568
14923TIP3    H266185   3.761   5.511   1.565 -1.2924  0.1430 -0.5269
14924TIP3   OH266186   3.281   5.807   3.117  0.2615 -0.4929 -0.2365
14924TIP3    H166187   3.242   5.720   3.126  0.1829 -0.4330  0.0199
14924TIP3    H266188   3.374   5.790   3.106  0.0082 -0.7106 -2.4056
14925TIP3   OH266189   3.115   3.593  11.952  0.3434  0.1218  0.4602
14925TIP3    H166190   3.192   3.572  12.005 -0.0432 -0.4159  0.8148
14925TIP3    H266191   3.144   3.665  11.896  0.8205  0.5696  1.2563
14926TIP3   OH266192   3.335   6.731   4.790 -0.2543  0.3910  0.0128
14926TIP3    H166193   3.323   6.698   4.701  2.3656  1.3646 -0.7885
14926TIP3    H266194   3.346   6.653   4.844  1.5846 -0.1872 -1.1297
14927TIP3   OH266195   2.412   0.044  16.624  0.3212 -0.1379  0.1680
14927TIP3    H166196   2.342   0.065  16.685  1.1186  0.1287  1.0115
14927TIP3    H266197   2.425   0.124  16.573 -0.5791 -0.4686 -0.6165
14928TIP3   OH266198   1.713   5.843   1.095  0.2711  0.2979 -0.0923
14928TIP3    H166199   1.674   5.756   1.105 -0.5058  0.7444  0.8687
14928TIP3    H266200   1.761   5.857   1.177  1.4087  0.2898 -0.7355
14929TIP3   OH266201   6.280   5.737  15.900 -0.2418  0.1374  0.1056
14929TIP3    H166202   6.262   5.682  15.824 -0.7153  0.6262 -0.1462
14929TIP3    H266203   6.223   5.813  15.889 -1.9402 -0.7553  2.0240
14930TIP3   OH266204   5.791   1.776   2.900 -0.0142 -0.1590 -0.2163
14930TIP3    H166205   5.724   1.736   2.845  0.2833  1.2517 -1.6858
14930TIP3    H266206   5.872   1.765   2.850  0.4684  0.1127  0.4984
14931TIP3   OH266207   4.848   0.436  15.948 -0.4372  0.0506 -0.4337
14931TIP3    H166208   4.826   0.345  15.926 -3.1246  0.5588 -0.2166
14931TIP3    H266209   4.837   0.441  16.043  2.4862 -0.0213 -0.0289
14932TIP3   OH266210   3.738   0.971  10.874  0.1934  0.0761  0.2933
14932TIP3    H166211   3.740   0.895  10.932  1.4795 -0.7881 -0.8201
14932TIP3    H266212   3.645   0.981  10.850 -0.3043  0.2065  2.1116
14933TIP3   OH266213   6.313   6.542   2.335 -0.0962  0.0909 -0.1215
14933TIP3    H166214   6.298   6.637   2.333  0.5999  0.2417  0.8921
14933TIP3    H266215   6.226   6.504   2.327 -0.4513  0.8281  0.1222
14934TIP3   OH266216   2.328   4.631  15.059  0.4576 -0.3351 -0.4115
14934TIP3    H166217   2.361   4.541  15.067  0.8122 -0.2102 -0.4339
14934TIP3    H266218   2.279   4.631  14.976 -0.7765 -0.8780  0.2954
14935TIP3   OH266219   1.696   2.101  16.631 -0.0333 -0.3773  0.2862
14935TIP3    H166220   1.626   2.161  16.606 -0.2403 -0.5182  0.5283
14935TIP3    H266221   1.682   2.024  16.575  0.5192 -0.0181 -0.3718
14936TIP3   OH266222   1.388   0.663  15.890 -0.5708 -0.1903  0.1540
14936TIP3    H166223   1.302   0.627  15.869 -0.1611 -1.5921  0.8178
14936TIP3    H266224   1.450   0.596  15.862  0.3396  0.8444 -0.4050
14937TIP3   OH266225   5.898   0.057  14.889  0.0958 -0.0062  0.3569
14937TIP3    H166226   5.862  -0.030  14.871  0.2249  0.6032 -3.7215
14937TIP3    H266227   5.823   0.115  14.884 -0.1813  0.2193  4.0998
14938TIP3   OH266228   4.455   2.622  15.773 -0.1491  0.1851  0.5491
14938TIP3    H166229   4.462   2.684  15.846  1.0775  1.2153 -0.3994
14938TIP3    H266230   4.362   2.623  15.751 -0.5152  0.0043  1.9459
14939TIP3   OH266231   5.802   5.224   3.101 -0.1207 -0.3863  0.1812
14939TIP3    H166232   5.728   5.260   3.151 -0.4600 -0.3943 -0.3085
14939TIP3    H266233   5.870   5.290   3.108  0.4360 -1.0818  2.0092
14940TIP3   OH266234   6.781   5.121   6.481  0.3396  0.0762 -0.2643
14940TIP3    H166235   6.717   5.159   6.422 -0.4229  0.0432  0.5158
14940TIP3    H266236   6.839   5.194   6.505 -0.4281  0.5127  0.3318
14941TIP3   OH266237   6.094   3.276   3.606 -0.1241 -0.5494 -0.2022
14941TIP3    H166238   6.019   3.282   3.547 -0.8592 -0.7073  0.7020
14941TIP3    H266239   6.170   3.289   3.549 -0.9059  1.7661 -0.8249
14942TIP3   OH266240   0.594   2.143   5.981  0.0504  0.2369  0.1079
14942TIP3    H166241   0.553   2.136   6.068  0.8146  1.2371  0.5821
14942TIP3    H266242   0.534   2.199   5.931  0.3536  0.9207  0.4955
14943TIP3   OH266243   3.213   2.756   1.568 -0.2820 -0.2141  0.5630
14943TIP3    H166244   3.140   2.782   1.624 -0.6775 -1.4131  0.6291
14943TIP3    H266245   3.171   2.716   1.492  0.2964 -0.2543  0.2641
14944TIP3   OH266246   2.785   3.341  15.744 -0.1634  0.3037  0.4007
14944TIP3    H166247   2.768   3.380  15.659 -0.3338  0.7658  0.6450
14944TIP3    H266248   2.711   3.282  15.758  0.6625 -0.9888 -0.4716
14945TIP3   OH266249   0.303   6.605   0.049  0.3645 -0.0606  0.4010
14945TIP3    H166250   0.288   6.625   0.142 -0.5554  1.2137  0.0010
14945TIP3    H266251   0.269   6.681   0.002 -0.3603 -1.2359 -1.0628
14946TIP3   OH266252   4.924   2.153  13.219  0.7452 -0.2382  0.2766
14946TIP3    H166253   4.849   2.116  13.172  2.0843 -1.4173 -1.0136
14946TIP3    H266254   4.996   2.148  13.157  1.8875  0.9546  1.4646
14947TIP3   OH266255   1.658   3.889  13.886  0.2467  0.3263  0.3902
14947TIP3    H166256   1.675   3.799  13.913  0.4948  1.0594  2.9192
14947TIP3    H266257   1.562   3.896  13.886  0.1969 -0.1785 -0.7884
14948TIP3   OH266258   1.143   5.816  14.615 -0.2490 -0.6080  0.4270
14948TIP3    H166259   1.163   5.738  14.564  0.3879 -0.6853  0.7729
14948TIP3    H266260   1.096   5.873  14.555  0.0978 -0.8763 -0.1077
14949TIP3   OH266261   4.960   0.419  12.440 -0.6258 -0.0511 -0.2117
14949TIP3    H166262   4.923   0.422  12.352 -1.6557  2.8543  0.2440
14949TIP3    H266263   4.907   0.353  12.486 -2.2732  0.7739 -0.8543
14950TIP3   OH266264   4.267   5.051  12.602  0.0224  0.3953 -0.1149
14950TIP3    H166265   4.327   4.978  12.618 -0.4130 -0.7294 -2.9895
14950TIP3    H266266   4.320   5.129  12.620  1.5284 -0.5958 -0.0210
14951TIP3   OH266267   1.972   4.830   5.936 -0.7471  0.1905 -0.0665
14951TIP3    H166268   1.879   4.831   5.917 -0.7416  0.9286 -0.0779
14951TIP3    H266269   1.977   4.807   6.029 -0.8033 -2.6137 -0.6634
14952TIP3   OH266270   3.396   3.907   0.608 -0.0726  0.3290 -0.4420
14952TIP3    H166271   3.405   3.872   0.697  1.5114  2.6967  0.4401
14952TIP3    H266272   3.441   3.843   0.552  1.7292  0.3187  0.9204
14953TIP3   OH266273   3.508   3.192  14.989 -0.5987 -0.2659 -0.1634
14953TIP3    H166274   3.572   3.263  14.998 -1.3855  0.3818  0.5175
14953TIP3    H266275   3.493   3.185  14.895 -0.7159  0.6843 -0.2254
14954TIP3   OH266276   1.925   3.191  16.486 -0.4364  0.4924  0.2402
14954TIP3    H166277   1.866   3.224  16.418  1.2871  0.0896 -1.5382
14954TIP3    H266278   1.889   3.105  16.509 -0.1992 -0.0634 -1.3392
14955TIP3   OH266279   1.578   4.103  11.883  0.2429  0.2891  0.3553
14955TIP3    H166280   1.652   4.102  11.823  1.2911 -0.8791  1.5953
14955TIP3    H266281   1.615   4.077  11.968 -1.6668 -0.8382  0.9185
14956TIP3   OH266282   0.475   3.264  16.993 -0.1064  0.2924  0.1462
14956TIP3    H166283   0.526   3.334  16.953 -1.2194  1.4939  0.7533
14956TIP3    H266284   0.384   3.289  16.978 -0.5296 -0.5628  1.1725
14957TIP3   OH266285   2.371   6.434  15.721  0.1146 -0.2393 -0.6885
14957TIP3    H166286   2.304   6.369  15.699 -0.7571  0.1680  0.6409
14957TIP3    H266287   2.403   6.465  15.636  1.3008 -3.0783 -1.4018
14958TIP3   OH266288   1.607   6.538  11.986 -0.5198  0.2500  0.7575
14958TIP3    H166289   1.603   6.474  12.056 -1.0403 -0.6287 -0.0520
14958TIP3    H266290   1.699   6.566  11.984  0.9531 -3.7947 -1.6987
14959TIP3   OH266291   3.809   0.947  14.427 -0.3048  0.0472  0.6975
14959TIP3    H166292   3.836   0.947  14.335  1.8492  0.9127  1.2674
14959TIP3    H266293   3.767   0.862  14.440 -1.6814  0.3576 -1.3234
14960TIP3   OH266294   1.197   5.431   0.976 -0.1154 -0.2365  0.2312
14960TIP3    H166295   1.230   5.365   0.914  0.6133 -1.5306  1.9339
14960TIP3    H266296   1.174   5.381   1.054 -2.3942  1.1770  0.5415
14961TIP3   OH266297   3.924   1.084  11.556 -0.1743 -0.0435  0.3659
14961TIP3    H166298   3.918   1.153  11.490  0.0854 -0.2937  0.0752
14961TIP3    H266299   3.882   1.009  11.515 -0.6853  0.0173  0.7847
14962TIP3   OH266300   5.543   4.185   4.699  0.3280  0.2261 -0.0948
14962TIP3    H166301   5.568   4.259   4.645 -1.1707  0.0634 -1.0607
14962TIP3    H266302   5.543   4.110   4.639 -0.0805 -0.1984  0.4221
14963TIP3   OH266303   2.203   0.173  16.990 -0.3825 -0.0223 -0.8421
14963TIP3    H166304   2.147   0.095  16.988 -1.2549  0.5189  0.7761
14963TIP3    H266305   2.272   0.151  17.053 -0.9524  0.6739  0.0626
14964TIP3   OH266306   5.035   6.719  16.321  0.1930  0.0878  0.2860
14964TIP3    H166307   4.987   6.784  16.371 -2.2293  0.6915 -2.5176
14964TIP3    H266308   4.978   6.642  16.320  1.3543 -0.8158  0.5069
14965TIP3   OH266309   3.374   2.899   5.833  0.1689  0.0766  0.0263
14965TIP3    H166310   3.428   2.903   5.912 -2.4994  0.2195  2.0023
14965TIP3    H266311   3.373   2.989   5.800 -0.1331  0.4185  0.9271
14966TIP3   OH266312   3.436   5.640   0.036  0.9251  0.1616  0.5325
14966TIP3    H166313   3.457   5.570   0.098 -1.0841  0.1662  1.2969
14966TIP3    H266314   3.419   5.716   0.091 -3.4829 -0.4544  0.3675
14967TIP3   OH266315   5.338   0.944  14.162  0.8878 -0.0329 -0.7815
14967TIP3    H166316   5.361   0.928  14.070  1.4087 -0.1090 -0.6424
14967TIP3    H266317   5.317   0.858  14.198 -1.6694  0.2482 -1.4265
14968TIP3   OH266318   1.054   5.049   1.864 -0.6241  0.3828  0.0846
14968TIP3    H166319   1.130   5.096   1.899  0.4589 -0.2938 -1.2589
14968TIP3    H266320   1.009   5.016   1.942  0.7610  0.3527  0.9089
14969TIP3   OH266321   6.203   5.211   2.645  0.2555 -0.0574  0.4858
14969TIP3    H166322   6.249   5.292   2.622 -0.2215 -0.0772 -0.5775
14969TIP3    H266323   6.237   5.189   2.732  1.3063  0.6101  0.2688
14970TIP3   OH266324   0.711   2.334  10.939  0.2171  0.4595 -0.2168
14970TIP3    H166325   0.712   2.386  10.859 -1.5598 -1.1471 -1.3787
14970TIP3    H266326   0.638   2.369  10.989 -0.6700 -0.5311 -0.7782
14971TIP3   OH266327   5.850   4.130   4.314  0.0036 -0.2022 -0.0619
14971TIP3    H166328   5.791   4.192   4.270  0.7906  0.4652 -0.1961
14971TIP3    H266329   5.822   4.044   4.281 -0.6996  0.1255 -0.3523
14972TIP3   OH266330   4.992   5.424  13.022  0.4714 -0.1507  0.0575
14972TIP3    H166331   4.991   5.359  12.952 -0.2164 -1.4486  1.2265
14972TIP3    H266332   5.060   5.393  13.082 -0.1380 -0.0350  0.8249
14973TIP3   OH266333   0.626   5.048  16.228 -0.8465  0.5277  0.3895
14973TIP3    H166334   0.640   4.955  16.211 -2.0662 -0.1228  2.5056
14973TIP3    H266335   0.579   5.080  16.151 -0.1764 -0.5336 -0.4764
14974TIP3   OH266336   4.870   2.147   4.942 -0.0655 -0.1062  0.2369
14974TIP3    H166337   4.809   2.084   4.903  0.1745 -1.0721  1.3804
14974TIP3    H266338   4.953   2.129   4.899 -0.4359  0.9055 -0.9909
14975TIP3   OH266339   6.535   3.700   5.551 -0.3316  0.2393  0.1114
14975TIP3    H166340   6.470   3.689   5.622 -0.3424  1.0267  0.2379
14975TIP3    H266341   6.534   3.794   5.534  1.0532  0.3142  0.3668
14976TIP3   OH266342   6.668   0.941   5.142  0.0749 -0.4683 -0.3494
14976TIP3    H166343   6.636   0.878   5.206  2.4521  0.4439  1.8844
14976TIP3    H266344   6.714   1.007   5.193  0.2654  1.5095 -2.8463
14977TIP3   OH266345   1.136   3.396  16.903 -0.0704  0.0411 -0.1449
14977TIP3    H166346   1.071   3.466  16.912  0.6380  0.5630  1.4092
14977TIP3    H266347   1.154   3.370  16.994  2.5084  0.5349 -0.4395
14978TIP3   OH266348   4.375   0.620  14.651  0.4329 -0.6513 -0.2326
14978TIP3    H166349   4.379   0.694  14.712 -0.1808 -1.2956  0.6183
14978TIP3    H266350   4.282   0.599  14.644  0.5278 -0.8129 -1.1330
14979TIP3   OH266351   6.655   3.021   4.300  0.2203 -0.5877 -0.1231
14979TIP3    H166352   6.595   3.061   4.237  1.1402  0.4552 -0.3548
14979TIP3    H266353   6.738   3.066   4.288  0.5039 -0.5464  1.6488
14980TIP3   OH266354   0.237   2.165   2.401  0.0869  0.2911 -0.0799
14980TIP3    H166355   0.286   2.139   2.323  3.1366  0.8942  1.4693
14980TIP3    H266356   0.277   2.115   2.472  0.2428  2.6919  1.6583
14981TIP3   OH266357   3.848   1.613  15.664 -0.5069  0.4988  0.2284
14981TIP3    H166358   3.838   1.518  15.652  0.7086  0.3980 -0.1036
14981TIP3    H266359   3.890   1.622  15.750 -1.0426  0.7658  0.4669
14982TIP3   OH266360   1.068   0.440  12.809  0.1453 -0.7603 -0.4266
14982TIP3    H166361   1.119   0.420  12.887  0.2293  0.7090 -0.0669
14982TIP3    H266362   1.122   0.502  12.759 -1.0684  0.5157 -0.2349
14983TIP3   OH266363   5.663   4.297  13.740 -0.5403 -0.1521 -0.8001
14983TIP3    H166364   5.678   4.218  13.794  2.0258  1.3388  0.9127
14983TIP3    H266365   5.640   4.263  13.654 -3.1043 -2.6974  0.6972
14984TIP3   OH266366   1.186   4.632  11.406  0.8380 -0.1759  0.6542
14984TIP3    H166367   1.247   4.586  11.348  0.3174 -0.4242  0.2936
14984TIP3    H266368   1.102   4.628  11.360  0.4790 -0.1203  1.2947
14985TIP3   OH266369   1.575   4.399  16.308  0.0125  0.1258  0.5587
14985TIP3    H166370   1.524   4.328  16.269  0.4862  1.2011 -2.3086
14985TIP3    H266371   1.511   4.453  16.354 -0.6560 -1.0562  1.0591
14986TIP3   OH266372   1.555   5.807   6.358 -0.1451  0.2621  0.6382
14986TIP3    H166373   1.644   5.784   6.332 -0.3492 -0.3878  0.4874
14986TIP3    H266374   1.511   5.827   6.275 -0.3438 -0.1773  0.6335
14987TIP3   OH266375   1.775   4.161  17.085  0.5926  0.1779 -0.0519
14987TIP3    H166376   1.815   4.103  17.150  2.2875 -0.6471 -1.7429
14987TIP3    H266377   1.845   4.221  17.060 -0.2553  0.9846 -0.5821
14988TIP3   OH266378   2.763   6.337   2.597  0.1829  0.7140 -0.3749
14988TIP3    H166379   2.787   6.355   2.688  0.4053  0.1049 -0.3093
14988TIP3    H266380   2.846   6.319   2.553 -0.1254 -1.9269 -0.0374
14989TIP3   OH266381   1.165   2.434  11.870  0.4528  0.4585 -0.9491
14989TIP3    H166382   1.071   2.430  11.851  0.5969 -0.4510 -1.5230
14989TIP3    H266383   1.207   2.431  11.785  1.0805 -2.7992 -0.6490
14990TIP3   OH266384   5.641   2.388  11.595  0.1042  0.0142 -0.2865
14990TIP3    H166385   5.670   2.355  11.510 -0.9301 -0.9603 -0.2788
14990TIP3    H266386   5.712   2.446  11.624  2.0827 -2.2462 -0.2741
14991TIP3   OH266387   5.666   5.634  13.596  0.3820 -0.2491 -0.2422
14991TIP3    H166388   5.701   5.705  13.543 -0.2214 -0.0311 -0.3514
14991TIP3    H266389   5.691   5.554  13.549  2.7584 -0.2350  0.8633
14992TIP3   OH266390   6.767   5.119   2.989 -0.3742  0.9664  0.1074
14992TIP3    H166391   6.812   5.049   2.943 -0.1406  1.5600 -0.5847
14992TIP3    H266392   6.811   5.124   3.074 -0.2892  0.3868  0.1007
14993TIP3   OH266393   3.219   3.346  11.519  0.0551  0.0327  0.2725
14993TIP3    H166394   3.203   3.376  11.608 -0.0609  0.1287  0.2198
14993TIP3    H266395   3.151   3.389  11.467  0.7453  0.7898 -0.0194
14994TIP3   OH266396   5.650   5.696   1.143 -0.1295 -0.1098  0.1677
14994TIP3    H166397   5.725   5.735   1.189  0.4423  0.5826 -1.3037
14994TIP3    H266398   5.684   5.670   1.058 -1.5947  0.3836 -0.6016
14995TIP3   OH266399   3.448   0.819  13.185 -0.0869 -0.5112  0.1752
14995TIP3    H166400   3.498   0.809  13.266  2.6611  0.7670 -1.2217
14995TIP3    H266401   3.425   0.911  13.182  0.6501 -0.3429 -0.8915
14996TIP3   OH266402   3.016   2.354   4.498  0.2012  0.3201  0.2686
14996TIP3    H166403   3.029   2.447   4.480  0.8051  0.7241  2.5001
14996TIP3    H266404   3.095   2.327   4.545 -0.4328 -1.0519  0.6166
14997TIP3   OH266405   2.408   4.847   2.625 -0.4611  0.1647 -0.4082
14997TIP3    H166406   2.385   4.775   2.683 -2.1596  0.0881 -1.1127
14997TIP3    H266407   2.435   4.918   2.683  1.7191 -1.1534  0.2809
14998TIP3   OH266408   1.934   5.881  15.770 -0.0133  0.4215 -0.0626
14998TIP3    H166409   1.999   5.889  15.840 -0.6798  0.1031  0.6014
14998TIP3    H266410   1.928   5.969  15.734  0.0922  0.6712  0.5089
14999TIP3   OH266411   2.950   1.403  16.501  0.3486  0.0012 -0.8694
14999TIP3    H166412   2.908   1.349  16.434  0.2711  0.3664 -1.1163
14999TIP3    H266413   2.955   1.490  16.462  2.5155 -0.2990 -1.3653
15000TIP3   OH266414   5.133   3.111  12.610  0.0304  0.3988 -0.3101
15000TIP3    H166415   5.185   3.033  12.591  1.0089  0.6959  1.0227
15000TIP3    H266416   5.060   3.079  12.662 -0.8894  0.0532 -1.7655
15001TIP3   OH266417   2.817   1.099   5.355 -0.3120 -0.7320 -0.3636
15001TIP3    H166418   2.861   1.037   5.297 -0.2324 -0.1454 -0.9409
15001TIP3    H266419   2.808   1.178   5.303 -0.8968 -0.4280  0.1860
15002TIP3   OH266420   3.874   4.387   0.955  0.1139 -0.1720 -0.3755
15002TIP3    H166421   3.785   4.370   0.986  0.3139 -0.7304 -0.0998
15002TIP3    H266422   3.862   4.434   0.872 -0.4696 -1.8196 -1.2850
15003TIP3   OH266423   0.261   5.311  12.855 -0.2536  0.6594  0.5528
15003TIP3    H166424   0.221   5.381  12.907 -1.5436 -0.2056  0.7715
15003TIP3    H266425   0.195   5.241  12.854  0.8254 -0.3907 -0.0162
15004TIP3   OH266426   3.013   1.085  15.099 -0.3523  0.2762  0.3811
15004TIP3    H166427   2.943   1.141  15.065  0.6824  1.6241  0.3722
15004TIP3    H266428   3.029   1.117  15.187  1.3502  1.1169 -0.1823
15005TIP3   OH266429   2.195   2.224   6.561  0.6639 -0.3271  0.0205
15005TIP3    H166430   2.162   2.146   6.517  1.0841  0.5878 -2.0512
15005TIP3    H266431   2.278   2.197   6.599  1.4851 -0.6159 -1.8604
15006TIP3   OH266432   1.427   2.304   3.667 -0.1799 -0.2144  0.1913
15006TIP3    H166433   1.452   2.309   3.759  0.4151 -2.2314  0.1967
15006TIP3    H266434   1.510   2.305   3.620 -0.4625  0.2870 -0.3027
15007TIP3   OH266435   1.762   2.444  14.903 -0.5780 -0.0816 -0.7201
15007TIP3    H166436   1.827   2.468  14.837 -0.3070 -1.1982 -0.8785
15007TIP3    H266437   1.789   2.492  14.981 -0.3085  0.4609 -1.1396
15008TIP3   OH266438   2.041   4.341   4.754 -0.3341 -0.4143  0.6598
15008TIP3    H166439   2.003   4.427   4.775  0.8281  0.1310  0.5800
15008TIP3    H266440   2.059   4.302   4.840 -0.5370 -0.4300  0.6957
15009TIP3   OH266441   5.822   3.191   4.974  0.4532 -0.0147  0.6445
15009TIP3    H166442   5.836   3.136   5.051 -0.3347 -1.3156 -0.0931
15009TIP3    H266443   5.755   3.254   5.001 -0.2360 -0.8228  0.8713
15010TIP3   OH266444   4.987   2.562   1.992  0.2401 -0.1346  0.5534
15010TIP3    H166445   4.982   2.658   1.990  0.8401 -0.1083 -0.7433
15010TIP3    H266446   4.908   2.534   2.038 -0.0569  0.9795  0.7398
15011TIP3   OH266447   6.316   1.422   1.712 -0.6641 -0.0582  0.1832
15011TIP3    H166448   6.263   1.358   1.759 -0.7781  0.7235  1.1459
15011TIP3    H266449   6.254   1.491   1.686 -0.2221  0.6178  0.8824
15012TIP3   OH266450   3.430   5.468   2.305 -0.0554  0.4153 -0.0603
15012TIP3    H166451   3.493   5.450   2.235 -0.1368  0.4955 -0.1526
15012TIP3    H266452   3.425   5.385   2.353 -0.4451  0.1818 -0.4988
15013TIP3   OH266453   4.718   0.270  13.589  0.1642  0.0589 -0.1715
15013TIP3    H166454   4.652   0.331  13.620  0.6927  0.2873  0.5362
15013TIP3    H266455   4.669   0.191  13.566 -0.4878  0.6434 -0.8367
15014TIP3   OH266456   1.681   2.449   2.540 -0.2535 -0.2560  0.2795
15014TIP3    H166457   1.727   2.367   2.522  2.6949  1.1702  0.6834
15014TIP3    H266458   1.687   2.498   2.459  0.6345  0.6686  0.8764
15015TIP3   OH266459   0.217   1.828   2.919 -0.2068  0.2014 -0.2350
15015TIP3    H166460   0.310   1.815   2.938 -0.0470  1.0821 -0.3715
15015TIP3    H266461   0.173   1.756   2.964  0.4930  0.1067  0.3122
15016TIP3   OH266462   0.751   3.270  12.665  0.0199  0.1665  0.4202
15016TIP3    H166463   0.792   3.356  12.666  0.6075  0.0900 -3.0678
15016TIP3    H266464   0.822   3.210  12.689  0.6593  0.4395 -0.6698
15017TIP3   OH266465   5.946   2.707   2.800  0.4311 -0.1607 -0.0825
15017TIP3    H166466   5.941   2.638   2.866  0.6406  0.5537  0.7046
15017TIP3    H266467   5.923   2.664   2.718 -1.0433 -0.8176  0.6433
15018TIP3   OH266468   0.646   5.204  11.661 -0.1493  0.5973 -0.1690
15018TIP3    H166469   0.589   5.179  11.588  0.0108  2.2464 -0.9060
15018TIP3    H266470   0.634   5.136  11.726 -2.9244  0.8511 -0.3222
15019TIP3   OH266471   5.578   4.238  15.001 -0.1297 -0.2195 -0.1377
15019TIP3    H166472   5.523   4.244  15.080 -1.1595 -1.5011 -0.7086
15019TIP3    H266473   5.515   4.233  14.929  0.7094 -1.8731 -0.8106
15020TIP3   OH266474   6.770   6.121   5.649  0.4315  0.2723 -0.1534
15020TIP3    H166475   6.842   6.140   5.710 -1.4948  0.6365  2.1468
15020TIP3    H266476   6.753   6.204   5.605  0.1972  0.6759  0.6857
15021TIP3   OH266477   2.237   2.944  12.492 -0.2580 -0.3055  0.1760
15021TIP3    H166478   2.264   2.928  12.583 -2.4274 -1.2195  0.7325
15021TIP3    H266479   2.239   3.039  12.482 -0.1290 -0.1881  1.2420
15022TIP3   OH266480   2.245   2.192  16.525 -0.0355  0.4524  0.0692
15022TIP3    H166481   2.153   2.176  16.503  0.5754 -0.4497 -2.0122
15022TIP3    H266482   2.276   2.108  16.558  0.8782 -0.3211 -2.5139
15023TIP3   OH266483   4.251   0.077  12.613 -0.3933 -0.6178  0.2162
15023TIP3    H166484   4.272   0.160  12.572 -0.4794 -0.6376  0.1325
15023TIP3    H266485   4.333   0.026  12.607 -0.1476 -0.3081  0.8366
15024TIP3   OH266486   0.566   1.171   5.638  0.5662  0.3859 -0.1021
15024TIP3    H166487   0.543   1.108   5.570 -1.0956  0.9478 -0.1007
15024TIP3    H266488   0.655   1.199   5.615 -0.1392  0.9845 -2.3849
15025TIP3   OH266489   2.084   6.487  13.309  0.2729  0.7022  0.3308
15025TIP3    H166490   2.065   6.393  13.319  1.8691  0.3997  0.8646
15025TIP3    H266491   2.146   6.506  13.379  2.3753  1.4260 -1.6209
15026TIP3   OH266492   5.284   1.096   5.812 -0.5367  0.1726 -0.3881
15026TIP3    H166493   5.232   1.022   5.782 -1.0340 -0.6966  2.3620
15026TIP3    H266494   5.373   1.062   5.818 -0.5654  0.1246 -0.2202
15027TIP3   OH266495   4.687   1.087   0.951  0.1892 -0.5592  0.1876
15027TIP3    H166496   4.774   1.123   0.970 -0.3964 -0.3019  2.5731
15027TIP3    H266497   4.634   1.163   0.927  0.4454 -0.6529 -0.7394
15028TIP3   OH266498   5.569   1.346  15.630 -0.0742  0.2937 -0.4185
15028TIP3    H166499   5.646   1.291  15.617 -0.8065 -0.8588  0.0304
15028TIP3    H266500   5.605   1.431  15.656  1.0529 -0.0952 -0.6505
15029TIP3   OH266501   2.818   2.413   0.563 -0.1395 -0.1271  0.8006
15029TIP3    H166502   2.777   2.392   0.479  0.8209 -0.4414  0.3885
15029TIP3    H266503   2.752   2.392   0.629  0.0664 -2.6438  0.2974
15030TIP3   OH266504   0.828   4.282  16.147 -0.0660  0.1204 -0.0445
15030TIP3    H166505   0.759   4.276  16.213  0.5064 -1.1331  0.4740
15030TIP3    H266506   0.784   4.262  16.065 -0.4044 -0.2710  0.2244
15031TIP3   OH266507   6.692   3.189  11.846 -0.5974 -0.4729 -0.4532
15031TIP3    H166508   6.596   3.190  11.840 -0.5089  0.1388 -2.0579
15031TIP3    H266509   6.721   3.152  11.763  0.5944  0.9882 -0.7212
15032TIP3   OH266510   4.670   4.938  16.932 -0.5903 -0.3481  0.1749
15032TIP3    H166511   4.617   4.908  17.005 -0.7760  0.9237  0.5713
15032TIP3    H266512   4.760   4.935  16.965 -0.6878  0.3738  0.5082
15033TIP3   OH266513   3.428   6.451   0.670 -0.6366  0.2164  0.4667
15033TIP3    H166514   3.469   6.483   0.589 -0.0266  1.0469  1.0847
15033TIP3    H266515   3.435   6.525   0.731  0.4999 -0.9885  1.8531
15034TIP3   OH266516   6.123   4.367  10.987  0.2555 -0.0719  0.2115
15034TIP3    H166517   6.117   4.437  11.052  2.7528 -0.3973  0.8935
15034TIP3    H266518   6.154   4.411  10.908 -2.2777  0.2337 -0.7035
15035TIP3   OH266519   4.571   3.654  10.574  0.0606 -0.1583 -0.0669
15035TIP3    H166520   4.632   3.623  10.641  0.6068 -1.8948 -1.2881
15035TIP3    H266521   4.533   3.574  10.537 -0.3312  0.7329 -1.7040
15036TIP3   OH266522   2.159   0.032   2.848  0.2973  0.2352 -0.5101
15036TIP3    H166523   2.183   0.113   2.804  0.8107 -0.3788 -1.4101
15036TIP3    H266524   2.237   0.008   2.899 -0.6131  1.4267  1.5493
15037TIP3   OH266525   3.671   2.969  11.129 -0.1115 -0.2198  0.4661
15037TIP3    H166526   3.669   2.887  11.080 -0.1674  0.0831 -0.0421
15037TIP3    H266527   3.623   3.031  11.075  1.1163  0.5148  0.1655
15038TIP3   OH266528   1.533   3.297   1.768 -0.2662  0.0928  0.6079
15038TIP3    H166529   1.509   3.302   1.861 -0.8774 -0.2082  0.4718
15038TIP3    H266530   1.613   3.348   1.761 -0.8689  1.1404  1.0777
15039TIP3   OH266531   4.102   2.366  14.177  0.2300  0.3486 -0.5053
15039TIP3    H166532   4.157   2.290  14.157  0.1515 -0.1798  1.1466
15039TIP3    H266533   4.017   2.328  14.203  0.0869  1.0034  0.0202
15040TIP3   OH266534   0.846   5.298   1.166  0.3778  0.2110 -0.1355
15040TIP3    H166535   0.839   5.209   1.201  0.6810 -0.2508 -1.2110
15040TIP3    H266536   0.889   5.287   1.081  1.3516  1.4922  0.1519
15041TIP3   OH266537   5.894   6.091  11.910  0.1152  0.1790 -0.3096
15041TIP3    H166538   5.905   6.158  11.977 -0.1764  1.0001 -1.0466
15041TIP3    H266539   5.952   6.120  11.839 -0.5282  0.0247 -0.9043
15042TIP3   OH266540   5.294   0.119  14.445 -0.5634  0.1081 -0.0342
15042TIP3    H166541   5.384   0.090  14.434 -0.8494 -0.6325 -0.4677
15042TIP3    H266542   5.258   0.062  14.512 -1.1702 -0.6573 -0.9881
15043TIP3   OH266543   4.936   1.770  13.879  0.0228 -0.0667 -0.5751
15043TIP3    H166544   4.904   1.852  13.917 -0.4804 -0.2327 -0.6387
15043TIP3    H266545   4.857   1.721  13.856  0.3140 -0.6112 -0.4519
15044TIP3   OH266546   1.627   2.523   1.351  0.5087 -0.2175 -0.0398
15044TIP3    H166547   1.717   2.541   1.376  0.5616 -0.5778  0.0341
15044TIP3    H266548   1.631   2.441   1.301  0.3193  0.1538 -0.6794
15045TIP3   OH266549   3.185   3.640  14.565 -0.5982 -0.0333  0.1122
15045TIP3    H166550   3.206   3.630  14.658 -0.7677  1.3744  0.3211
15045TIP3    H266551   3.089   3.638  14.561 -0.6074  0.4374  0.0415
15046TIP3   OH266552   5.303   3.902   4.768  0.4212 -0.0977  0.1533
15046TIP3    H166553   5.312   3.905   4.673 -1.5106  0.5988 -0.0592
15046TIP3    H266554   5.236   3.836   4.784  2.5821 -2.1419  1.2577
15047TIP3   OH266555   1.177   6.455  10.598  0.0879 -0.7023 -0.1097
15047TIP3    H166556   1.139   6.372  10.627  0.2831 -0.7756 -0.0598
15047TIP3    H266557   1.251   6.429  10.543  0.9054 -0.5698  0.8919
15048TIP3   OH266558   4.575   5.974   3.692 -0.7487  0.3801 -0.2133
15048TIP3    H166559   4.507   5.960   3.626  0.0987  0.9539 -1.2316
15048TIP3    H266560   4.533   6.031   3.758 -2.1349 -1.5420  0.6547
15049TIP3   OH266561   0.311   2.690  14.018  0.7367  0.0416 -0.4710
15049TIP3    H166562   0.262   2.624  14.067  2.2253 -0.7346  0.0369
15049TIP3    H266563   0.276   2.774  14.049  1.0594 -0.4428  1.3518
15050TIP3   OH266564   6.072   4.923   6.670 -0.2266 -0.1137 -0.0793
15050TIP3    H166565   6.060   5.017   6.679  0.1186 -0.0459 -0.3265
15050TIP3    H266566   6.143   4.901   6.730 -0.0446 -0.1547 -0.3088
15051TIP3   OH266567   0.275   4.322  12.208 -0.8308 -0.1778  0.4349
15051TIP3    H166568   0.292   4.370  12.289 -3.5943  0.9269  0.4702
15051TIP3    H266569   0.255   4.389  12.144 -0.2943 -1.1112 -0.7445
15052TIP3   OH266570   6.137   1.113   4.519  0.3275 -0.3837  0.9486
15052TIP3    H166571   6.152   1.022   4.494  0.9957  0.0336 -0.2205
15052TIP3    H266572   6.146   1.163   4.438  2.4217  0.9998  1.9417
15053TIP3   OH266573   5.190   6.166   1.583  0.4872 -0.0345 -0.0970
15053TIP3    H166574   5.204   6.098   1.517  0.6928  0.8399 -0.9788
15053TIP3    H266575   5.275   6.206   1.595 -0.0023  1.3532 -1.0488
15054TIP3   OH266576   1.566   6.132  15.584  0.2717  0.3428 -0.7910
15054TIP3    H166577   1.491   6.159  15.637 -0.4953  0.1063 -1.7288
15054TIP3    H266578   1.547   6.041  15.560 -0.0238  0.8317 -2.5188
15055TIP3   OH266579   3.299   4.503   0.319 -0.2374  0.1712 -0.2943
15055TIP3    H166580   3.332   4.475   0.404  1.0997  0.7550 -0.5992
15055TIP3    H266581   3.241   4.433   0.291 -2.3240  0.8462  1.9823
15056TIP3   OH266582   2.254   5.681  16.014 -0.1166 -0.2099 -0.3104
15056TIP3    H166583   2.269   5.683  15.919  1.9307 -3.5809 -0.2372
15056TIP3    H266584   2.257   5.588  16.037 -2.4124  0.3273  2.8826
15057TIP3   OH266585   2.379   6.293   5.846 -0.5014  0.3998 -0.5044
15057TIP3    H166586   2.448   6.321   5.907  0.4551  0.3140 -1.5135
15057TIP3    H266587   2.377   6.198   5.855 -1.1778  0.4764  0.2323
15058TIP3   OH266588   1.223   3.067   3.763 -0.6253  0.4733 -0.0569
15058TIP3    H166589   1.246   3.076   3.856 -2.1045  1.2700  0.2682
15058TIP3    H266590   1.137   3.109   3.756 -0.3152  0.8819 -1.8989
15059TIP3   OH266591   2.615   3.835   6.100  0.1704  0.0365 -0.5114
15059TIP3    H166592   2.554   3.901   6.132  0.0084 -0.9421  1.3621
15059TIP3    H266593   2.620   3.771   6.171  0.5603 -1.8026 -2.1104
15060TIP3   OH266594   0.255   2.873  11.915 -0.0734 -0.4531  0.1929
15060TIP3    H166595   0.318   2.809  11.946  2.9469  1.9634 -0.4516
15060TIP3    H266596   0.303   2.926  11.852 -2.4846  2.1808  0.3299
15061TIP3   OH266597   3.775   6.775  16.546 -0.1486  0.3453  0.0305
15061TIP3    H166598   3.701   6.770  16.607  0.8697 -0.6827  1.2417
15061TIP3    H266599   3.832   6.703  16.573  0.7776  0.4418 -1.5823
15062TIP3   OH266600   5.808   4.990  13.205  0.1508 -0.5836 -0.2006
15062TIP3    H166601   5.833   4.995  13.113 -1.7527 -0.7216 -0.7597
15062TIP3    H266602   5.884   5.025  13.252  0.6272  0.8125 -1.9025
15063TIP3   OH266603   4.032   0.561  10.629  0.1780  0.2712 -0.1502
15063TIP3    H166604   4.067   0.493  10.686  3.2676  0.7177 -1.3269
15063TIP3    H266605   4.083   0.639  10.650 -2.2605  1.8852  0.1242
15064TIP3   OH266606   0.375   5.833   0.878  0.4112 -0.3973  0.0435
15064TIP3    H166607   0.447   5.776   0.851  1.0679 -0.0033  0.9246
15064TIP3    H266608   0.369   5.821   0.973  0.4347  0.8492  0.2126
15065TIP3   OH266609   2.119   3.924   0.372 -0.0942  0.3497  0.0272
15065TIP3    H166610   2.099   4.018   0.370 -0.4526  0.2755  0.0849
15065TIP3    H266611   2.210   3.920   0.400 -0.0102  0.6908 -0.1854
15066TIP3   OH266612   2.403   1.160   0.955 -0.4354  0.1740  0.1796
15066TIP3    H166613   2.376   1.249   0.934  0.6620  0.5344  0.2455
15066TIP3    H266614   2.329   1.106   0.928 -1.0403  1.0857 -0.0310
15067TIP3   OH266615   0.552   3.266   1.074  0.9667 -0.4878 -0.1809
15067TIP3    H166616   0.524   3.264   0.982 -0.6960 -0.5921  0.2902
15067TIP3    H266617   0.629   3.210   1.077 -0.9374 -3.3772 -0.9431
15068TIP3   OH266618   0.123   0.946  13.875  0.2791  0.6410 -0.2931
15068TIP3    H166619   0.168   0.867  13.847 -0.8493 -0.3700  0.6368
15068TIP3    H266620   0.189   0.995  13.924  1.0376  0.3840 -1.0374
15069TIP3   OH266621   3.226   5.438  13.604  0.9979 -0.0567  0.2565
15069TIP3    H166622   3.290   5.374  13.574  0.2306  0.0942 -1.9282
15069TIP3    H266623   3.165   5.389  13.658  0.4941 -1.2034 -1.2851
15070TIP3   OH266624   3.746   6.703   0.127 -0.2154  0.1673  0.2448
15070TIP3    H166625   3.686   6.694   0.054 -0.4263 -1.2908  0.5499
15070TIP3    H266626   3.833   6.706   0.087 -0.4291  1.5159 -0.1538
15071TIP3   OH266627   3.559   6.225  12.406 -0.0753  0.5369 -0.4610
15071TIP3    H166628   3.596   6.310  12.383  0.7122  0.2173 -0.3812
15071TIP3    H266629   3.583   6.213  12.498  2.4411 -1.1064 -1.2520
15072TIP3   OH266630   5.059   5.498   2.491 -0.0336 -0.2231  0.3427
15072TIP3    H166631   5.094   5.546   2.565  0.6793 -0.3132  0.0682
15072TIP3    H266632   5.055   5.562   2.419 -3.2713  0.6248  1.1176
15073TIP3   OH266633   1.831   5.820   3.563  0.3244  0.6241  0.3823
15073TIP3    H166634   1.837   5.735   3.606  0.9595  0.8041  0.6662
15073TIP3    H266635   1.814   5.882   3.634 -1.6926  0.5739  0.0072
15074TIP3   OH266636   3.184   4.039  12.912  0.0523  0.2966  0.4447
15074TIP3    H166637   3.235   4.000  12.841 -2.9125  0.4537 -1.9905
15074TIP3    H266638   3.158   4.125  12.879 -2.5972 -0.1927  0.9881
15075TIP3   OH266639   5.039   4.159   4.362  0.1674 -0.2671  0.6351
15075TIP3    H166640   5.057   4.231   4.301 -0.4557 -1.1046 -0.5754
15075TIP3    H266641   5.112   4.160   4.423  0.1837  1.3733  0.6318
15076TIP3   OH266642   0.280   1.840   6.043  0.2221 -0.4426 -0.3081
15076TIP3    H166643   0.297   1.920   5.994 -0.1449  0.4069  0.8889
15076TIP3    H266644   0.363   1.820   6.086 -0.1199  0.3060  0.7616
15077TIP3   OH266645   5.465   5.843   1.822 -0.1432  0.3661  0.3145
15077TIP3    H166646   5.375   5.836   1.788  0.3194 -1.0977 -0.7147
15077TIP3    H266647   5.474   5.768   1.880  0.4366  0.4851  0.3771
15078TIP3   OH266648   4.806   0.967  12.301  0.4332 -0.2227  0.3529
15078TIP3    H166649   4.863   0.932  12.233  0.2440  1.0005 -0.4576
15078TIP3    H266650   4.779   0.890  12.351  0.5592 -1.1551 -0.9638
15079TIP3   OH266651   2.922   3.877   6.239 -0.2820 -0.2145  0.4187
15079TIP3    H166652   2.833   3.853   6.214 -0.2284 -0.6950  0.6841
15079TIP3    H266653   2.947   3.945   6.176 -0.2602 -1.1567 -0.6146
15080TIP3   OH266654   5.241   5.040  14.205  0.4528  0.1748  0.1159
15080TIP3    H166655   5.146   5.026  14.204  0.4681 -0.0858 -1.5529
15080TIP3    H266656   5.255   5.118  14.152  1.2289 -0.3360 -0.4637
15081TIP3   OH266657   6.195   3.819   3.410  0.1013 -0.4130  0.0210
15081TIP3    H166658   6.116   3.864   3.436  0.5179  0.3858 -0.0707
15081TIP3    H266659   6.266   3.868   3.451  0.4463 -2.6511  2.3458
15082TIP3   OH266660   4.502   1.616   1.242 -0.0242 -0.3441 -0.4818
15082TIP3    H166661   4.549   1.591   1.162 -0.3356 -0.8547 -0.5074
15082TIP3    H266662   4.425   1.662   1.212 -0.1850 -0.6098 -0.4841
15083TIP3   OH266663   2.865   6.000  17.052 -0.3988  0.5920 -0.3787
15083TIP3    H166664   2.877   6.062  17.124 -2.5990 -1.4561  2.0161
15083TIP3    H266665   2.944   5.946  17.053  0.6433  2.0620 -1.1530
15084TIP3   OH266666   5.285   5.933   4.929 -0.2078  0.3652  0.1911
15084TIP3    H166667   5.242   5.986   4.996  0.6447  0.8380  0.3678
15084TIP3    H266668   5.372   5.915   4.963 -0.4456 -1.1307  0.1123
15085TIP3   OH266669   5.289   0.876  11.420 -0.5724 -0.2714  0.0634
15085TIP3    H166670   5.366   0.819  11.425 -0.6544 -0.3964 -0.0667
15085TIP3    H266671   5.323   0.964  11.437 -0.0075 -0.0071 -2.0828
15086TIP3   OH266672   6.139   5.587  10.421  0.2504 -0.1996 -0.0390
15086TIP3    H166673   6.188   5.661  10.457  0.9131 -0.3023 -0.7089
15086TIP3    H266674   6.051   5.621  10.408  0.5826  0.5290 -0.4807
15087TIP3   OH266675   0.771   6.615   0.116  0.4331 -0.3406  0.0599
15087TIP3    H166676   0.761   6.690   0.173 -0.1123 -0.1349 -0.2993
15087TIP3    H266677   0.704   6.627   0.048  2.1611  0.3364 -1.6289
15088TIP3   OH266678   0.016   4.044   3.917 -0.4156 -0.7017 -0.4582
15088TIP3    H166679   0.080   4.043   3.846 -0.2188 -0.4591 -0.2832
15088TIP3    H266680  -0.067   4.020   3.874 -0.1863 -1.1441 -0.6578
15089TIP3   OH266681   3.621   5.093  13.848  0.2616  0.1151  0.3529
15089TIP3    H166682   3.664   5.161  13.796 -2.1532  2.2406  0.9411
15089TIP3    H266683   3.582   5.035  13.783  1.3140 -0.0244 -0.1739
15090TIP3   OH266684   3.514   6.424   2.294  0.2202  0.6296 -0.2758
15090TIP3    H166685   3.508   6.362   2.222 -0.8957  1.6131 -1.0818
15090TIP3    H266686   3.582   6.389   2.351 -1.4579 -2.2201  0.1812
15091TIP3   OH266687   5.526   0.229  10.482 -0.3178 -0.5566 -0.1693
15091TIP3    H166688   5.456   0.173  10.449  0.5116 -1.6438 -0.1703
15091TIP3    H266689   5.538   0.201  10.573  1.4700 -1.8814 -0.7419
15092TIP3   OH266690   4.745   3.983   0.062 -0.3625  0.2657  0.6118
15092TIP3    H166691   4.802   3.924   0.012  0.1967  1.7206 -0.5204
15092TIP3    H266692   4.805   4.045   0.103 -1.0997  2.0467 -0.8867
15093TIP3   OH266693   2.642   2.753  13.541 -0.4299  0.0397 -0.6413
15093TIP3    H166694   2.684   2.838  13.531  0.4302 -0.2833  0.0774
15093TIP3    H266695   2.564   2.771  13.593  0.6699  0.1680  1.0445
15094TIP3   OH266696   4.226   2.522   4.358 -0.5005 -0.1871  0.1935
15094TIP3    H166697   4.292   2.494   4.421  1.2394 -1.1051 -1.9115
15094TIP3    H266698   4.249   2.612   4.337 -0.5412 -0.1754  0.1988
15095TIP3   OH266699   5.768   3.593   2.759  0.0062 -0.2042 -0.0727
15095TIP3    H166700   5.719   3.606   2.840 -2.0012 -0.7260 -1.1306
15095TIP3    H266701   5.768   3.498   2.746 -0.9981 -0.0694 -1.3727
15096TIP3   OH266702   5.823   2.217   0.519  0.2802  0.1350 -0.4806
15096TIP3    H166703   5.856   2.307   0.511  0.1452  0.0801 -1.7755
15096TIP3    H266704   5.902   2.163   0.525  0.3601  0.3948  1.2410
15097TIP3   OH266705   6.015   3.198  17.010 -0.2314  0.1484  0.1187
15097TIP3    H166706   6.058   3.253  16.944 -1.3754  1.6505  0.5565
15097TIP3    H266707   5.923   3.222  17.004 -0.3307  0.5812  2.4553
15098TIP3   OH266708   2.010   0.316  17.129  0.2375 -0.3869 -0.1816
15098TIP3    H166709   2.012   0.410  17.113 -0.5385 -0.3833 -0.2929
15098TIP3    H266710   2.089   0.283  17.087  1.7825  0.5045  1.8973
15099TIP3   OH266711   2.012   0.333   0.187 -0.3443 -0.4801  0.5421
15099TIP3    H166712   2.079   0.268   0.207 -1.4612 -1.6826  0.5596
15099TIP3    H266713   1.987   0.314   0.097 -0.4484  0.1532  0.4357
15100TIP3   OH266714   4.477   6.414  11.195  0.3782  0.4864  0.0302
15100TIP3    H166715   4.433   6.412  11.110  1.8768 -0.4912 -0.7471
15100TIP3    H266716   4.525   6.331  11.200 -0.9310 -0.2393  2.5327
15101TIP3   OH266717   5.958   5.187   1.212 -0.2694 -0.6071  0.0860
15101TIP3    H166718   5.868   5.194   1.181 -0.5263 -0.1028  0.9055
15101TIP3    H266719   5.955   5.117   1.278  0.2094 -1.4715 -0.7844
15102TIP3   OH266720   6.085   6.475   3.099 -0.3769 -0.0810  0.1468
15102TIP3    H166721   6.139   6.399   3.119 -0.3102  0.0004  0.2775
15102TIP3    H266722   6.014   6.440   3.046  0.5234  0.0369 -1.1735
15103TIP3   OH266723   6.301   0.477  15.850  0.2837 -0.6232  0.3630
15103TIP3    H166724   6.334   0.387  15.854  0.6376 -0.5644 -0.9320
15103TIP3    H266725   6.288   0.502  15.942  0.9829 -1.7040  0.7697
15104TIP3   OH266726   1.050   0.094  11.652  0.6621 -0.4042 -0.1523
15104TIP3    H166727   1.077   0.174  11.608  0.4007 -1.4465 -2.3267
15104TIP3    H266728   0.978   0.120  11.709  0.8564  0.9535 -0.4979
15105TIP3   OH266729   5.767   6.627   3.651  0.3492 -0.5007  0.0134
15105TIP3    H166730   5.844   6.630   3.708  0.7014 -1.4724 -0.3803
15105TIP3    H266731   5.791   6.678   3.575 -0.6819  2.1087  1.3301
15106TIP3   OH266732   1.225   4.858   2.219 -0.4457 -0.1366  0.6327
15106TIP3    H166733   1.220   4.900   2.305  0.0905  1.6720 -0.1554
15106TIP3    H266734   1.248   4.930   2.159 -0.6920 -1.3629 -1.0023
15107TIP3   OH266735   2.546   3.918   2.060 -0.2478  0.0336  0.2304
15107TIP3    H166736   2.534   3.823   2.061  1.6978 -0.2610  1.0108
15107TIP3    H266737   2.630   3.932   2.104  0.7878  1.9173 -2.1058
15108TIP3   OH266738   2.326   3.525   0.063 -0.0983  0.0509  0.7924
15108TIP3    H166739   2.417   3.507   0.087 -0.3611  0.2151  1.9766
15108TIP3    H266740   2.284   3.439   0.063  0.1369 -0.0823 -0.2017
15109TIP3   OH266741   1.850   5.167   1.179  0.0491 -0.3543  0.1140
15109TIP3    H166742   1.921   5.221   1.213 -0.4855  0.3805  0.0720
15109TIP3    H266743   1.847   5.092   1.239  0.5522 -0.1658  0.3824
15110TIP3   OH266744   4.055   0.207  14.279  0.2510 -0.1989  0.7455
15110TIP3    H166745   4.023   0.218  14.189 -0.6083  0.7777  1.1372
15110TIP3    H266746   3.989   0.152  14.321  0.6426 -0.6386  0.7944
15111TIP3   OH266747   3.459   2.174  10.955  0.7737 -0.1684 -1.1333
15111TIP3    H166748   3.503   2.232  10.893  0.3433  0.4036 -0.9075
15111TIP3    H266749   3.386   2.137  10.905 -0.7410  1.7645 -0.4565
15112TIP3   OH266750   3.918   1.944   0.973 -0.0401  0.1100 -0.6259
15112TIP3    H166751   3.948   1.936   1.063  0.8644  0.4078 -0.8953
15112TIP3    H266752   3.986   1.995   0.929 -1.5712  2.0481 -0.9171
15113TIP3   OH266753   5.479   0.558  11.446 -0.7016 -0.3288 -0.2988
15113TIP3    H166754   5.460   0.516  11.362  0.9352 -1.4287 -0.1672
15113TIP3    H266755   5.563   0.521  11.473  0.5752  2.6475  0.1162
15114TIP3   OH266756   2.211   2.597  13.924 -0.1585  0.2075  0.5120
15114TIP3    H166757   2.282   2.540  13.953  0.0671  0.4702  0.4789
15114TIP3    H266758   2.139   2.579  13.984 -0.5464 -1.0829 -0.2892
15115TIP3   OH266759   0.470   4.710  15.470  0.4208  0.2216  0.2008
15115TIP3    H166760   0.419   4.761  15.408  0.7016  1.1966  0.7499
15115TIP3    H266761   0.415   4.634  15.490  0.2280  0.0176 -1.0354
15116TIP3   OH266762   6.114   4.320  14.368  0.0239 -0.4654  0.2161
15116TIP3    H166763   6.144   4.295  14.456  0.4121  1.1448  0.5714
15116TIP3    H266764   6.022   4.344  14.380 -0.0448 -0.6589  0.0883
15117TIP3   OH266765   5.333   0.952  12.279 -0.5219  0.1049 -0.4289
15117TIP3    H166766   5.249   0.908  12.290  1.1189 -2.8963  1.4971
15117TIP3    H266767   5.392   0.883  12.247  1.6101  1.5748  0.1062
15118TIP3   OH266768   0.916   2.484   4.418  0.0587 -0.1008  0.2603
15118TIP3    H166769   0.903   2.390   4.420  0.3516 -0.1349  0.7591
15118TIP3    H266770   0.828   2.521   4.427  0.0339 -0.3298  0.9976
15119TIP3   OH266771   0.526   2.260   5.089 -0.0727  0.4980  0.0636
15119TIP3    H166772   0.498   2.277   4.999  0.1899 -1.2727 -0.3872
15119TIP3    H266773   0.453   2.213   5.129 -0.1519  1.1985  0.7674
15120TIP3   OH266774   2.776   2.301  14.961 -0.4548 -0.2668  0.6353
15120TIP3    H166775   2.812   2.357  15.029  1.0117  0.2908 -0.5309
15120TIP3    H266776   2.850   2.247  14.933 -0.8189 -0.0217 -0.9270
15121TIP3   OH266777   3.096   1.449   1.508  0.2989 -0.2872 -0.3856
15121TIP3    H166778   3.143   1.472   1.428  0.5198 -0.3232 -0.2681
15121TIP3    H266779   3.095   1.353   1.508  0.4703 -0.2893 -0.2471
15122TIP3   OH266780   3.377   1.692   1.661 -0.2350  0.3935 -0.2380
15122TIP3    H166781   3.296   1.744   1.663 -0.2893  0.3105 -0.2839
15122TIP3    H266782   3.366   1.628   1.732 -0.2921  0.2586 -0.3678
15123TIP3   OH266783   1.047   3.202   4.546  0.0287 -0.3044 -0.1966
15123TIP3    H166784   1.072   3.152   4.468 -1.9891 -1.8186  0.0322
15123TIP3    H266785   1.068   3.145   4.619  1.8672  1.0950  0.4282
15124TIP3   OH266786   3.570   2.631   1.046 -0.4204  0.0268 -0.3453
15124TIP3    H166787   3.547   2.543   1.076 -2.2763  1.1724  1.8507
15124TIP3    H266788   3.646   2.655   1.099 -1.3501  0.5979  0.7599
15125TIP3   OH266789   4.114   2.746  10.620 -0.1488 -0.2081  0.1380
15125TIP3    H166790   4.033   2.782  10.585 -0.1059 -1.0040 -0.7990
15125TIP3    H266791   4.099   2.652  10.626  0.6438 -0.3458  0.1243
15126TIP3   OH266792   1.551   4.040  14.197  0.0006  0.3159 -0.1534
15126TIP3    H166793   1.591   4.090  14.126 -0.3635  1.2438  0.2792
15126TIP3    H266794   1.622   3.983  14.229  0.4025  0.5046 -0.6928
15127TIP3   OH266795   0.883   6.402   1.649 -0.3270 -0.2575  0.2840
15127TIP3    H166796   0.797   6.380   1.611 -0.6115 -0.1918  0.8858
15127TIP3    H266797   0.945   6.376   1.581 -0.8525  0.3011 -0.4424
15128TIP3   OH266798   3.722   5.404   1.001 -0.8060 -0.5899 -0.1223
15128TIP3    H166799   3.774   5.373   0.927  1.3304  0.3839  0.9151
15128TIP3    H266800   3.639   5.431   0.961  0.1725 -0.3443 -2.1236
15129TIP3   OH266801   1.588   4.072  11.301  0.0419  0.0416 -0.1529
15129TIP3    H166802   1.562   4.150  11.251  1.2131 -0.5691 -1.7956
15129TIP3    H266803   1.666   4.040  11.256  1.6615 -0.1013  2.5988
15130TIP3   OH266804   3.368   1.833  11.981  0.4194  0.3468 -0.1323
15130TIP3    H166805   3.380   1.882  12.062  0.0428 -0.9908  0.7734
15130TIP3    H266806   3.450   1.844  11.933  1.0745  0.2487  0.9364
15131TIP3   OH266807   6.171   3.670   4.135  0.6660  0.2567  0.1215
15131TIP3    H166808   6.128   3.706   4.213 -1.3497 -1.1019 -0.2945
15131TIP3    H266809   6.248   3.726   4.123  0.1210  1.5556  2.0855
15132TIP3   OH266810   2.306   4.048   2.819 -0.3736  0.4952  0.3350
15132TIP3    H166811   2.310   4.121   2.880  1.0888  0.7240  0.0003
15132TIP3    H266812   2.213   4.025   2.815 -0.5701  0.7663  2.2803
15133TIP3   OH266813   3.897   3.014  14.403  0.3554 -0.1543 -0.0750
15133TIP3    H166814   3.801   3.018  14.401  0.3419 -0.3746 -1.9731
15133TIP3    H266815   3.917   2.921  14.390  0.8257  0.0053 -0.5230
15134TIP3   OH266816   3.461   3.953   0.307 -0.3481 -0.2288 -0.5737
15134TIP3    H166817   3.380   3.903   0.318 -1.5312  1.8647  1.0120
15134TIP3    H266818   3.521   3.915   0.371 -1.0900  0.0950  0.3321
15135TIP3   OH266819   3.706   1.609  13.256 -0.0484 -0.0912 -0.1418
15135TIP3    H166820   3.779   1.659  13.219 -1.2855  1.6539 -0.3080
15135TIP3    H266821   3.658   1.672  13.309 -0.5085 -1.6293  1.3544
15136TIP3   OH266822   6.346   4.429   4.355 -0.1483 -0.3099  0.1720
15136TIP3    H166823   6.340   4.504   4.296 -0.5417 -0.9824 -0.6731
15136TIP3    H266824   6.257   4.394   4.358 -0.0905 -0.3987  1.0280
15137TIP3   OH266825   2.971   5.943   5.566 -0.4440 -0.1354  0.6836
15137TIP3    H166826   2.970   5.866   5.510 -1.7932  0.6345 -0.4002
15137TIP3    H266827   2.882   5.977   5.563  0.2664  1.8555  0.5884
15138TIP3   OH266828   1.012   2.865  15.856  0.0080  0.0327 -0.1899
15138TIP3    H166829   1.067   2.796  15.893 -0.2011 -0.0910 -0.1075
15138TIP3    H266830   1.059   2.946  15.876 -0.2746 -0.0098  0.6461
15139TIP3   OH266831   5.906   1.807  12.840 -0.2984  0.3590 -0.1158
15139TIP3    H166832   5.929   1.821  12.748 -0.2264  0.2694 -0.1121
15139TIP3    H266833   5.905   1.712  12.850 -0.9761  0.3554 -0.1917
15140TIP3   OH266834   0.268   0.589   3.925 -0.0619 -0.0552 -0.6528
15140TIP3    H166835   0.188   0.547   3.956  0.1872  0.5464  0.9050
15140TIP3    H266836   0.237   0.658   3.866 -0.7010  0.1625 -0.0797
15141TIP3   OH266837   2.230   2.491   2.188 -1.3434 -0.3125 -0.7537
15141TIP3    H166838   2.274   2.568   2.224  2.9163 -2.5840 -0.4468
15141TIP3    H266839   2.222   2.509   2.095 -1.4133  0.9221 -0.5228
15142TIP3   OH266840   6.539   3.974  15.194  0.3346 -0.0466  0.0931
15142TIP3    H166841   6.518   4.046  15.136  0.2449  0.0267  0.2158
15142TIP3    H266842   6.496   3.996  15.277 -1.1466 -1.0580 -0.3628
15143TIP3   OH266843   1.171   1.187  15.366  0.0859  0.2223  0.3737
15143TIP3    H166844   1.240   1.254  15.366  0.3272  0.0465  2.5587
15143TIP3    H266845   1.089   1.237  15.366  0.2021  0.4471 -0.8459
15144TIP3   OH266846   3.161   3.225  14.489  0.9228  0.8358 -0.3141
15144TIP3    H166847   3.081   3.233  14.437  0.5424 -2.1064 -0.3657
15144TIP3    H266848   3.224   3.281  14.444 -0.1253  0.4026 -2.4646
15145TIP3   OH266849   5.501   0.525   4.007  0.3871 -0.1331  0.5850
15145TIP3    H166850   5.542   0.587   4.067  0.6532  0.3293 -0.0650
15145TIP3    H266851   5.528   0.439   4.038 -1.3705 -0.0596  2.5485
15146TIP3   OH266852   6.390   1.172  16.379 -0.0836 -0.4254 -0.5120
15146TIP3    H166853   6.377   1.259  16.343  0.1883  0.2118  0.8749
15146TIP3    H266854   6.435   1.186  16.462 -1.7106 -1.7330  0.6690
15147TIP3   OH266855   1.946   3.389   0.871 -0.4990  0.3677  0.4615
15147TIP3    H166856   1.984   3.313   0.827 -2.0063 -0.0046 -0.2421
15147TIP3    H266857   1.853   3.370   0.877 -0.6139  1.2505  2.1560
15148TIP3   OH266858   5.602   2.761  14.013 -0.2457 -0.4701  0.4356
15148TIP3    H166859   5.688   2.802  14.016 -0.8515  0.8051  1.5229
15148TIP3    H266860   5.548   2.820  13.961 -0.9191 -0.2932  1.3063
15149TIP3   OH266861   3.021   6.130  15.536 -0.2901 -0.5452  0.4678
15149TIP3    H166862   2.941   6.165  15.498 -0.0512  0.9465  1.2955
15149TIP3    H266863   3.037   6.183  15.613  0.2869 -2.2814  1.6037
15150TIP3   OH266864   1.672   0.742   1.989 -0.8708 -0.2373  0.2196
15150TIP3    H166865   1.612   0.764   2.060 -0.2270  0.0245  0.6948
15150TIP3    H266866   1.758   0.739   2.030 -0.3751  0.6801 -0.6825
15151TIP3   OH266867   1.156   6.475   1.693  0.0215  0.2468  0.3388
15151TIP3    H166868   1.088   6.407   1.690  0.6362 -0.4209  0.9805
15151TIP3    H266869   1.236   6.427   1.718  1.0255  0.7863 -1.6455
15152TIP3   OH266870   4.027   4.905   6.714  0.4359 -0.0404 -0.3220
15152TIP3    H166871   4.113   4.920   6.675  0.3266 -0.4982 -0.7477
15152TIP3    H266872   4.034   4.821   6.758  0.4019  0.2343  0.2156
15153TIP3   OH266873   6.263   4.085  14.313  0.1826 -0.7880  0.0241
15153TIP3    H166874   6.208   4.163  14.324 -0.3889 -1.3059  0.9953
15153TIP3    H266875   6.327   4.110  14.246  0.9357  1.0135  1.3223
15154TIP3   OH266876   4.120   3.042   5.429 -0.0330  0.7827 -0.2493
15154TIP3    H166877   4.079   3.081   5.352  0.6786 -0.5726 -1.3496
15154TIP3    H266878   4.213   3.055   5.416  0.1665 -0.5671 -0.2457
15155TIP3   OH266879   6.299   6.153   3.813 -1.2947  0.0638  0.4468
15155TIP3    H166880   6.347   6.128   3.892 -2.3548  1.8119  1.6984
15155TIP3    H266881   6.368   6.175   3.749 -0.4117  0.7946  1.6119
15156TIP3   OH266882   0.355   5.751  11.434 -0.1620 -0.1461  0.8207
15156TIP3    H166883   0.366   5.793  11.519 -0.2636  1.5620  0.0282
15156TIP3    H266884   0.394   5.812  11.371 -0.6223 -1.0811 -0.4287
15157TIP3   OH266885   1.695   6.298  12.091 -0.3238 -0.1338 -0.1958
15157TIP3    H166886   1.720   6.208  12.112 -0.1726 -0.2256 -0.7500
15157TIP3    H266887   1.692   6.300  11.995 -1.1127  0.2358 -0.1749
15158TIP3   OH266888   6.124   1.290   3.039  0.0082  0.1124  0.9050
15158TIP3    H166889   6.122   1.218   2.976 -1.3240  0.7771  0.1546
15158TIP3    H266890   6.200   1.343   3.012  0.1771 -0.2688  0.6196
15159TIP3   OH266891   2.357   6.249  12.409 -0.4909  0.3521  0.7278
15159TIP3    H166892   2.383   6.207  12.327  0.0596  0.3260  0.9158
15159TIP3    H266893   2.424   6.223  12.472 -0.2806  1.2899  0.9103
15160TIP3   OH266894   0.196   4.954  13.365 -0.1856  0.4666 -0.4430
15160TIP3    H166895   0.184   4.895  13.439 -3.0151  0.4971 -0.7587
15160TIP3    H266896   0.178   4.900  13.288 -0.0593  1.1091 -0.9290
15161TIP3   OH266897   2.647   4.276  16.078 -0.4106  0.1633 -0.0522
15161TIP3    H166898   2.722   4.334  16.063  0.1790 -0.6223 -0.1870
15161TIP3    H266899   2.655   4.208  16.011 -0.4183 -0.7525  0.8538
15162TIP3   OH266900   1.028   0.386  15.402 -0.0737  0.2399  0.5537
15162TIP3    H166901   1.076   0.306  15.381  0.3892  0.6302  0.1084
15162TIP3    H266902   1.052   0.406  15.493 -1.7332 -1.2079  1.3599
15163TIP3   OH266903   0.910   1.610  12.502  0.0353  0.1265  0.0112
15163TIP3    H166904   0.878   1.522  12.486  2.0501 -0.4081 -1.4517
15163TIP3    H266905   0.951   1.637  12.419  2.1032  1.2264  1.2792
15164TIP3   OH266906   5.772   5.832   4.357 -0.1659 -0.2083 -0.1987
15164TIP3    H166907   5.839   5.779   4.402 -0.3310  0.2530  0.5962
15164TIP3    H266908   5.795   5.824   4.264 -0.6178 -2.2851 -0.1901
15165TIP3   OH266909   5.333   0.403  16.080 -0.5568 -0.3681  0.4145
15165TIP3    H166910   5.270   0.425  16.149 -2.2330 -0.2531 -1.0778
15165TIP3    H266911   5.280   0.364  16.011  0.6149  1.7520 -1.8553
15166TIP3   OH266912   1.415   5.014  11.004  0.0122  0.2203 -0.2037
15166TIP3    H166913   1.456   4.938  10.962  0.0465 -0.8865  1.7023
15166TIP3    H266914   1.378   4.980  11.085 -2.1326  1.7935 -0.4214
15167TIP3   OH266915   1.955   0.917   4.855 -1.0466 -0.6061 -0.1787
15167TIP3    H166916   2.011   0.848   4.890 -0.9226 -1.3680 -1.7824
15167TIP3    H266917   1.921   0.881   4.773 -1.5173  0.9850 -0.7175
15168TIP3   OH266918   4.202   3.617  14.947 -0.4666  0.8801  0.8086
15168TIP3    H166919   4.169   3.704  14.923 -0.0848  0.4232 -1.6641
15168TIP3    H266920   4.164   3.559  14.881  0.8364 -0.5235  1.2420
15169TIP3   OH266921   6.699   2.502  16.006 -0.1648 -0.0821  0.0259
15169TIP3    H166922   6.743   2.474  15.926 -2.2493  1.1709 -1.6707
15169TIP3    H266923   6.730   2.591  16.021  0.3582 -0.3761  0.7524
15170TIP3   OH266924   1.999   2.503  11.357  0.4391  0.0511 -0.3316
15170TIP3    H166925   1.911   2.517  11.322 -0.1052 -0.9445  0.5702
15170TIP3    H266926   2.057   2.536  11.289 -0.6238  0.4686 -1.0686
15171TIP3   OH266927   5.009   2.465   6.272  0.3480  0.2451  0.2430
15171TIP3    H166928   5.100   2.493   6.274  0.2337  0.6112  1.2579
15171TIP3    H266929   4.999   2.417   6.190  1.6587 -0.4838  0.4866
15172TIP3   OH266930   2.720   5.711   2.092  0.2492 -0.3837 -0.8048
15172TIP3    H166931   2.747   5.750   2.009  0.3665 -0.6631 -0.8991
15172TIP3    H266932   2.726   5.782   2.155 -0.9192  0.1367 -1.2447
15173TIP3   OH266933   5.982   5.899  12.854  0.4284  0.1600 -0.3213
15173TIP3    H166934   5.978   5.919  12.948  1.9545 -1.6659  0.1994
15173TIP3    H266935   6.009   5.981  12.813  0.6501  0.7436  0.9528
15174TIP3   OH266936   5.913   0.116  10.977 -0.7746  0.2565 -0.1085
15174TIP3    H166937   5.819   0.128  10.962 -0.6376 -0.5400 -1.9838
15174TIP3    H266938   5.925   0.021  10.976  0.3967  0.3106 -3.0865
15175TIP3   OH266939   4.072   4.912   2.959  1.3053 -0.3940  0.0898
15175TIP3    H166940   4.108   4.862   2.886  1.0982  0.2545 -0.4702
15175TIP3    H266941   4.136   4.902   3.030  1.4060 -1.1980 -0.1066
15176TIP3   OH266942   1.016   1.027  11.660  0.0044 -0.1493 -0.8990
15176TIP3    H166943   1.065   1.091  11.712 -0.7807  0.4452 -0.8625
15176TIP3    H266944   0.938   1.075  11.630 -1.0177 -1.2960 -0.2063
15177TIP3   OH266945   3.244   6.151  13.642  0.2096 -0.7200 -0.0067
15177TIP3    H166946   3.227   6.186  13.729  1.2296  0.0548 -0.0988
15177TIP3    H266947   3.183   6.077  13.634 -1.3449  0.4387  0.5510
15178TIP3   OH266948   1.344   1.670  12.466 -0.4660 -0.4161 -0.2576
15178TIP3    H166949   1.300   1.676  12.550  0.6540  0.0092  0.3191
15178TIP3    H266950   1.435   1.653  12.488 -0.2349 -0.7138 -1.3986
15179TIP3   OH266951   1.122   2.515   4.816  0.3930  0.3860  0.3437
15179TIP3    H166952   1.121   2.435   4.869  0.0465  0.6880  0.7945
15179TIP3    H266953   1.117   2.586   4.879  2.8170  0.8721  0.1091
15180TIP3   OH266954   2.309   6.094   3.675  0.1335 -0.0437  0.0345
15180TIP3    H166955   2.403   6.094   3.661  0.3834 -0.2699  1.5555
15180TIP3    H266956   2.272   6.120   3.591  1.4897 -1.0973 -0.9226
15181TIP3   OH266957   5.244   4.845  13.295  0.2676  0.2625 -0.7536
15181TIP3    H166958   5.185   4.810  13.361  0.8924 -0.3850 -0.5166
15181TIP3    H266959   5.248   4.777  13.227  0.1529  0.6264 -1.1257
15182TIP3   OH266960   3.797   2.860  14.676  0.3409  0.0437 -0.0627
15182TIP3    H166961   3.864   2.875  14.742  2.5717  0.8099 -2.3263
15182TIP3    H266962   3.823   2.779  14.632 -2.0982 -1.4444  1.0327
15183TIP3   OH266963   0.479   4.517  16.667 -0.3582  0.1399  0.0910
15183TIP3    H166964   0.501   4.537  16.758 -0.9905  0.1223  0.2478
15183TIP3    H266965   0.420   4.442  16.672 -2.4104  1.6717 -0.1727
15184TIP3   OH266966   2.952   2.435   6.105 -0.0719  0.6179 -0.0705
15184TIP3    H166967   2.886   2.488   6.062 -0.8327 -0.6747 -0.5458
15184TIP3    H266968   3.034   2.459   6.061 -0.9021 -1.1807 -2.8761
15185TIP3   OH266969   1.283   3.721   5.447  0.3772 -0.1132 -0.0324
15185TIP3    H166970   1.322   3.635   5.433  0.5210  0.0274 -0.5179
15185TIP3    H266971   1.306   3.743   5.537  0.1272 -0.6895  0.1807
15186TIP3   OH266972   4.037   6.036   6.254 -0.8674  0.3366 -0.1096
15186TIP3    H166973   4.012   6.073   6.169  1.5437  2.2473 -0.0936
15186TIP3    H266974   4.123   6.072   6.271 -0.0930 -2.1985  1.9204
15187TIP3   OH266975   4.295   0.715  12.928 -0.3285  0.2098  0.3650
15187TIP3    H166976   4.350   0.677  12.996 -0.1461 -0.2768 -0.0512
15187TIP3    H266977   4.205   0.700  12.960 -0.2836 -1.1872 -0.1038
15188TIP3   OH266978   4.775   2.110   0.962  0.2366  0.0461  0.2331
15188TIP3    H166979   4.732   2.092   1.046 -0.8491  1.1541 -0.0513
15188TIP3    H266980   4.815   2.196   0.974  0.2434  0.1230 -0.3297
15189TIP3   OH266981   4.513   5.236   5.412 -0.2395 -0.7358  0.0336
15189TIP3    H166982   4.579   5.234   5.344 -1.5767  0.0667 -1.3308
15189TIP3    H266983   4.517   5.149   5.452  0.9478 -1.0192 -0.6842
15190TIP3   OH266984   3.864   6.743   3.998  0.1668 -0.1379  0.4502
15190TIP3    H166985   3.865   6.647   4.004 -0.1687 -0.2795 -1.1925
15190TIP3    H266986   3.943   6.764   3.947 -0.0652  0.4066  0.3149
15191TIP3   OH266987   2.565   5.875  14.467 -0.6704  0.9449 -0.1120
15191TIP3    H166988   2.589   5.966  14.483  1.1576  0.1561  2.2030
15191TIP3    H266989   2.482   5.864  14.512 -0.0336  1.0642  1.1309
15192TIP3   OH266990   0.926   3.827   1.441  0.2562 -0.3652 -0.0662
15192TIP3    H166991   0.898   3.744   1.401  0.7124 -0.1760 -0.8036
15192TIP3    H266992   0.963   3.877   1.368  0.5933  0.2220  0.5014
15193TIP3   OH266993   5.029   2.270   2.263  0.0944 -0.7095 -0.0232
15193TIP3    H166994   5.047   2.189   2.310 -0.4089 -0.8853 -0.1303
15193TIP3    H266995   5.040   2.247   2.170 -2.9706 -1.4732 -0.2960
15194TIP3   OH266996   6.178   6.355  16.334 -0.2027  0.5149 -0.1424
15194TIP3    H166997   6.181   6.272  16.380 -3.3906 -0.0106 -0.6772
15194TIP3    H266998   6.253   6.352  16.275 -0.4263 -2.1359 -0.4090
15195TIP3   OH266999   2.827   6.313   2.922 -0.0041 -0.5399  0.4768
15195TIP3    H167000   2.845   6.227   2.884  0.9982 -0.2904  0.3489
15195TIP3    H267001   2.911   6.360   2.915 -1.1853  1.4520 -2.0208
15196TIP3   OH267002   5.451   6.160   1.691  0.4386  0.2803  0.0174
15196TIP3    H167003   5.517   6.108   1.645 -0.4271  0.1692 -1.1387
15196TIP3    H267004   5.393   6.095   1.730 -0.2043  0.3638 -0.7808
15197TIP3   OH267005   6.395   0.938  11.375 -0.0279 -0.5326  0.4386
15197TIP3    H167006   6.386   0.852  11.334 -3.8464 -0.0969 -0.0247
15197TIP3    H267007   6.420   0.996  11.303  0.3705 -0.8780  0.2933
15198TIP3   OH267008   5.977   1.960  12.126  0.2263 -0.4159 -0.1923
15198TIP3    H167009   5.884   1.951  12.104  0.5054 -1.1018 -1.1541
15198TIP3    H267010   5.988   2.053  12.147 -0.2463  0.1551 -2.2677
15199TIP3   OH267011   2.380   4.383   3.412 -0.6899  0.0624  0.7109
15199TIP3    H167012   2.311   4.354   3.472 -0.5983 -0.8643  0.3822
15199TIP3    H267013   2.447   4.315   3.417  0.7042  1.4377  1.7994
15200TIP3   OH267014   3.544   2.655  14.120 -0.0094  0.2175 -0.4127
15200TIP3    H167015   3.531   2.651  14.215 -1.5868  0.5302 -0.5885
15200TIP3    H267016   3.512   2.572  14.087  0.4442  0.1477 -0.6935
15201TIP3   OH267017   1.725   3.715   3.291 -0.1611  0.7484  0.4956
15201TIP3    H167018   1.698   3.630   3.326  1.6747 -0.0541  0.1198
15201TIP3    H267019   1.729   3.772   3.367  0.1085  0.0506  1.0203
15202TIP3   OH267020   1.870   1.898   2.118 -0.3613  0.6958 -0.5799
15202TIP3    H167021   1.886   1.880   2.211 -1.1225 -0.7917 -0.6959
15202TIP3    H267022   1.880   1.813   2.075 -0.3646  1.2984 -1.8125
15203TIP3   OH267023   3.514   3.733   2.817 -0.5175 -0.4067 -0.1925
15203TIP3    H167024   3.550   3.674   2.884  0.2188 -1.3343 -1.3635
15203TIP3    H267025   3.501   3.677   2.741  1.5722  1.1759 -1.8414
15204TIP3   OH267026   6.453   6.596   5.847  0.3364  0.3065  0.1602
15204TIP3    H167027   6.373   6.544   5.852 -0.2314  1.1568  0.1036
15204TIP3    H267028   6.506   6.566   5.921  0.0006 -0.3037  0.1604
15205TIP3   OH267029   6.067   2.388  14.064 -0.1266 -0.8794  0.0816
15205TIP3    H167030   6.008   2.324  14.103 -1.3273 -0.3624 -0.7922
15205TIP3    H267031   6.038   2.394  13.973  0.0264  0.7972  0.1073
15206TIP3   OH267032   4.127   3.772   1.541  0.5037 -0.7075 -0.0418
15206TIP3    H167033   4.098   3.803   1.456  1.6052  1.6850  0.3947
15206TIP3    H267034   4.069   3.814   1.604  0.2743 -1.7436  0.4754
15207TIP3   OH267035   4.359   2.411  13.929 -0.7231 -0.6370 -0.1375
15207TIP3    H167036   4.400   2.498  13.934 -0.2522 -0.8086 -0.8815
15207TIP3    H267037   4.376   2.372  14.014  2.2280 -1.3777 -0.9293
15208TIP3   OH267038   3.279   1.431  12.130  0.2313 -0.6724  0.1290
15208TIP3    H167039   3.283   1.455  12.037  0.6638 -2.0919 -0.2461
15208TIP3    H267040   3.369   1.440  12.161  0.0072  0.2601  0.5618
15209TIP3   OH267041   1.787   1.768   1.445 -0.2701  0.2511  0.3372
15209TIP3    H167042   1.849   1.802   1.510 -0.1310  1.1152 -0.2347
15209TIP3    H267043   1.795   1.827   1.371  0.6601 -1.5734 -1.0910
15210TIP3   OH267044   0.370   4.649  16.071  0.0431 -0.3023 -0.0032
15210TIP3    H167045   0.368   4.573  16.129  2.2359 -0.5067 -0.1085
15210TIP3    H267046   0.450   4.695  16.094 -0.0494  0.7117 -1.5171
15211TIP3   OH267047   0.334   2.575  14.495 -0.3185  0.6819  0.4533
15211TIP3    H167048   0.345   2.636  14.568 -0.4702 -0.2338  1.2724
15211TIP3    H267049   0.241   2.583  14.471 -0.3477  0.7469  0.5853
15212TIP3   OH267050   6.471   2.664   1.628 -0.1884 -0.3468 -0.1991
15212TIP3    H167051   6.515   2.652   1.544 -0.5662  0.8482 -0.5903
15212TIP3    H267052   6.426   2.748   1.620  0.4978  0.2351  1.5228
15213TIP3   OH267053   2.550   2.082   5.349  0.5156 -0.0333  0.3099
15213TIP3    H167054   2.611   2.028   5.297 -0.4349 -1.1254  0.2809
15213TIP3    H267055   2.464   2.045   5.330 -0.0043  0.4902  1.5602
15214TIP3   OH267056   0.110   4.504   2.400  0.0262 -0.0412  0.8819
15214TIP3    H167057   0.144   4.505   2.490  0.3668 -1.1004  0.7713
15214TIP3    H267058   0.187   4.516   2.345 -0.0894 -0.1448  0.6971
15215TIP3   OH267059   0.116   0.627   0.517  0.3561  0.8063 -0.0369
15215TIP3    H167060   0.131   0.537   0.487  0.1631  0.6978  0.1869
15215TIP3    H267061   0.021   0.636   0.518  0.2750  0.2470  2.1245
15216TIP3   OH267062   1.932   1.219  14.952  0.0915 -0.7343  0.1574
15216TIP3    H167063   1.920   1.171  14.870  1.2676 -2.4985  0.9622
15216TIP3    H267064   2.018   1.259  14.943  1.1945 -2.6978  1.3009
15217TIP3   OH267065   3.545   2.831  16.404 -0.3246  0.0036  0.5763
15217TIP3    H167066   3.510   2.899  16.346  1.6768 -0.4505 -1.2883
15217TIP3    H267067   3.536   2.750  16.354  3.2516 -0.1332 -0.0609
15218TIP3   OH267068   0.491   0.219  14.661 -0.1289  0.0342 -0.4579
15218TIP3    H167069   0.420   0.183  14.607 -0.5363 -0.5635  0.4359
15218TIP3    H267070   0.455   0.300  14.696 -0.0765  0.1396 -0.6531
15219TIP3   OH267071   1.778   1.781  16.639 -0.1191 -0.2733  0.2279
15219TIP3    H167072   1.753   1.768  16.731  1.3738  0.5444  0.7846
15219TIP3    H267073   1.695   1.789  16.593 -0.9059  0.3259  1.6668
15220TIP3   OH267074   5.614   1.193  16.015 -0.4688  0.0140  0.4740
15220TIP3    H167075   5.526   1.187  16.053 -0.1741  1.8869  1.5808
15220TIP3    H267076   5.616   1.278  15.972  0.3166 -0.6748 -0.9279
15221TIP3   OH267077   2.849   6.274  12.772  0.1117 -0.4208 -0.1765
15221TIP3    H167078   2.874   6.364  12.755  3.3529 -0.5203  2.8602
15221TIP3    H267079   2.923   6.222  12.740 -1.6700 -2.1206 -1.8432
15222TIP3   OH267080   1.612   3.434   5.759 -0.0119  0.1849 -0.2762
15222TIP3    H167081   1.643   3.355   5.803 -0.4520 -0.3577 -0.9196
15222TIP3    H267082   1.691   3.478   5.728  0.1712 -0.6918 -1.0798
15223TIP3   OH267083   3.077   4.147   2.520 -0.0449  0.1981 -0.0905
15223TIP3    H167084   3.121   4.081   2.574 -1.2317  1.6839  2.9039
15223TIP3    H267085   3.102   4.230   2.559 -1.5611  1.3359 -1.4189
15224TIP3   OH267086   2.625   3.422   0.071  0.4196  0.4388 -0.2662
15224TIP3    H167087   2.702   3.365   0.073  0.4200  0.4477  1.6165
15224TIP3    H267088   2.574   3.390  -0.003  0.7356 -1.6067  0.3405
15225TIP3   OH267089   5.207   6.726   3.849 -0.3502 -0.4808  0.1590
15225TIP3    H167090   5.193   6.752   3.758  0.6928 -1.6333 -0.3752
15225TIP3    H267091   5.301   6.735   3.862 -0.2429 -1.9381  0.5722
15226TIP3   OH267092   0.587   3.236   3.642  0.3881  0.2292  0.1360
15226TIP3    H167093   0.535   3.214   3.719 -1.1558 -0.5440 -1.0598
15226TIP3    H267094   0.630   3.154   3.618  0.3068  0.2872 -0.2156
15227TIP3   OH267095   6.689   0.911   3.046  0.6539 -0.7372  0.2949
15227TIP3    H167096   6.718   1.002   3.047  0.5132 -0.6886 -0.0365
15227TIP3    H267097   6.740   0.869   3.116  0.6403 -0.3817  0.5202
15228TIP3   OH267098   4.557   5.864  16.448 -0.1347  0.5217  0.0164
15228TIP3    H167099   4.526   5.954  16.436  1.6338  1.0003 -1.5759
15228TIP3    H267100   4.651   5.874  16.465 -0.0630 -0.9974  0.6274
15229TIP3   OH267101   6.022   2.675   4.664  0.1503  0.4100  0.3227
15229TIP3    H167102   6.084   2.647   4.597 -0.4210 -2.4539  0.8602
15229TIP3    H267103   6.071   2.671   4.746 -0.1767  0.0706  0.5075
15230TIP3   OH267104   2.353   2.691  11.599 -0.3941 -0.2071 -0.3736
15230TIP3    H167105   2.418   2.755  11.625  0.7555 -1.7890  0.8233
15230TIP3    H267106   2.385   2.656  11.515 -0.2270 -0.2728 -0.2826
15231TIP3   OH267107   5.353   0.615   0.010  0.8524  0.1327  0.2785
15231TIP3    H167108   5.438   0.653  -0.014  0.2663  0.5730 -1.2713
15231TIP3    H267109   5.374   0.532   0.052  2.0282 -0.3856 -1.2522
15232TIP3   OH267110   0.137   3.494  15.821  0.1292  0.0631 -0.2729
15232TIP3    H167111   0.211   3.434  15.833  0.3217  0.3575  0.0312
15232TIP3    H267112   0.109   3.515  15.910 -2.3066 -2.4318 -0.3143
15233TIP3   OH267113   6.380   1.486  16.283  0.6322 -0.1486 -0.3960
15233TIP3    H167114   6.405   1.498  16.192 -0.9366  0.0200 -0.8337
15233TIP3    H267115   6.293   1.446  16.279 -0.3970  1.7769  0.9749
15234TIP3   OH267116   0.393   3.900   0.252 -0.1320 -0.1126  0.3665
15234TIP3    H167117   0.314   3.853   0.278 -0.4758  1.1614  1.8188
15234TIP3    H267118   0.461   3.834   0.246 -0.7379 -0.8848  1.6994
15235TIP3   OH267119   0.082   2.552   0.866  0.2600 -0.2053 -1.3426
15235TIP3    H167120   0.141   2.521   0.935 -1.4177  0.4822  0.4822
15235TIP3    H267121   0.120   2.636   0.839  0.1211  0.2874 -0.1061
15236TIP3   OH267122   2.503   0.571   1.664  0.0086 -0.1840 -0.2714
15236TIP3    H167123   2.498   0.500   1.600  0.3067 -0.7823  0.3661
15236TIP3    H267124   2.421   0.567   1.712  0.1864 -0.3404  0.0205
15237TIP3   OH267125   4.587   2.693  15.199 -0.2874  0.7591 -0.0524
15237TIP3    H167126   4.585   2.674  15.106  0.7130  0.4189 -0.0196
15237TIP3    H267127   4.534   2.624  15.239 -0.2672  0.5909 -0.3183
15238TIP3   OH267128   6.361   4.071   1.773  0.3672 -0.2727  0.3831
15238TIP3    H167129   6.356   3.993   1.829  1.6551 -0.4018  0.3555
15238TIP3    H267130   6.379   4.143   1.834  1.4520 -0.3637  0.1892
15239TIP3   OH267131   4.685   4.611   4.562 -0.4162 -0.0054  0.0183
15239TIP3    H167132   4.723   4.543   4.506  2.7086  2.6532 -1.4780
15239TIP3    H267133   4.628   4.660   4.504  0.0691  0.6594  0.0872
15240TIP3   OH267134   5.245   0.572  13.325  0.1301 -0.1771 -0.0407
15240TIP3    H167135   5.317   0.510  13.322  0.5412  0.3300 -0.8107
15240TIP3    H267136   5.196   0.556  13.244  0.2450  0.4997 -0.2476
15241TIP3   OH267137   1.911   3.790   0.255 -0.5409 -0.0200  0.1599
15241TIP3    H167138   1.931   3.716   0.197 -1.3245 -1.3505  1.4912
15241TIP3    H267139   1.994   3.810   0.298 -0.4416 -0.5179  0.2082
15242TIP3   OH267140   0.892   2.610   2.694  0.3164  0.0589 -0.0393
15242TIP3    H167141   0.882   2.692   2.646 -2.0443  0.5303  1.1062
15242TIP3    H267142   0.953   2.631   2.765  0.5532  0.4934 -0.3641
15243TIP3   OH267143   2.759   6.635  11.281  0.6852 -0.3096 -0.3587
15243TIP3    H167144   2.740   6.633  11.187  0.5526 -1.4488 -0.3307
15243TIP3    H267145   2.850   6.606  11.287  0.6674 -0.3183 -0.1368
15244TIP3   OH267146   0.017   5.771   3.818  0.0901 -0.2316 -0.2071
15244TIP3    H167147   0.098   5.756   3.770  0.1661  0.0224 -0.1592
15244TIP3    H267148  -0.037   5.694   3.799  0.6766 -0.8278  0.4723
15245TIP3   OH267149   4.545   5.054  15.059 -0.8594 -0.2190 -0.0230
15245TIP3    H167150   4.460   5.021  15.030 -1.2385  1.1154 -0.5139
15245TIP3    H267151   4.548   5.033  15.152 -1.2383 -1.2677 -0.2414
15246TIP3   OH267152   3.296   5.903  11.748  0.5133 -0.1886 -0.3736
15246TIP3    H167153   3.208   5.867  11.761  0.8262 -0.4662  1.1700
15246TIP3    H267154   3.323   5.870  11.662 -0.1888 -1.5759 -0.0926
15247TIP3   OH267155   0.756   5.315  13.299  0.1082  0.0400 -0.4910
15247TIP3    H167156   0.713   5.384  13.249  0.4682  0.1812 -0.6075
15247TIP3    H267157   0.705   5.308  13.380 -0.5215 -0.2452 -0.9066
15248TIP3   OH267158   1.580   4.631   5.933  0.1325 -0.2313 -0.3754
15248TIP3    H167159   1.596   4.545   5.894  2.7931 -0.2405  0.5263
15248TIP3    H267160   1.583   4.692   5.859  0.3565 -0.7042 -0.7619
15249TIP3   OH267161   6.578   2.996  13.187 -0.3001 -0.0430  0.2952
15249TIP3    H167162   6.621   3.030  13.265  0.6629  0.9608 -0.6327
15249TIP3    H267163   6.485   2.988  13.211  0.0613 -0.2544  1.6749
15250TIP3   OH267164   4.655   1.383   4.631 -0.0720  0.2056 -0.4768
15250TIP3    H167165   4.628   1.396   4.721  1.2162  0.7804 -0.1520
15250TIP3    H267166   4.643   1.469   4.590  0.6057  0.3017 -0.4907
15251TIP3   OH267167   1.739   4.305   3.994  0.2227 -0.1623  0.4040
15251TIP3    H167168   1.820   4.275   3.953 -0.3319  1.6673 -2.2527
15251TIP3    H267169   1.750   4.400   4.003 -1.9643  0.2962 -0.9922
15252TIP3   OH267170   2.208   4.317  14.275 -0.3851 -0.0395 -0.2937
15252TIP3    H167171   2.197   4.397  14.223 -0.5365  0.8230  0.9989
15252TIP3    H267172   2.293   4.283  14.249  0.1854  1.1693 -0.0797
15253TIP3   OH267173   0.252   4.063   0.569  0.6158  0.0619  0.1345
15253TIP3    H167174   0.208   4.138   0.531 -0.5143 -0.8667 -0.4312
15253TIP3    H267175   0.211   3.987   0.529  2.2996 -0.8666  0.0624
15254TIP3   OH267176   1.357   4.427  12.804  0.1149 -0.2336 -0.1940
15254TIP3    H167177   1.395   4.363  12.744  0.3042  0.7357 -1.1447
15254TIP3    H267178   1.411   4.423  12.883  0.6062 -0.6692 -0.5521
15255TIP3   OH267179   0.930   2.191  12.074 -0.1385 -0.1246 -0.5353
15255TIP3    H167180   0.836   2.175  12.059 -0.1952 -0.6579  0.3229
15255TIP3    H267181   0.974   2.123  12.024 -0.2200 -0.0153 -0.7558
15256TIP3   OH267182   1.684   1.554   3.998 -0.0930  0.2080 -0.6839
15256TIP3    H167183   1.601   1.566   3.952 -0.0276  0.9183 -0.6288
15256TIP3    H267184   1.671   1.597   4.082  0.4467  0.6409 -0.8163
15257TIP3   OH267185   1.014   6.086  14.219  0.2584 -0.1752 -0.2300
15257TIP3    H167186   1.065   6.037  14.155 -0.5778  0.4644 -1.4191
15257TIP3    H267187   1.002   6.173  14.180  2.5341  1.4131  2.2225
15258TIP3   OH267188   0.774   1.434   5.369 -0.2987  0.5857 -0.4489
15258TIP3    H167189   0.859   1.471   5.389 -0.7429  0.8266  1.0906
15258TIP3    H267190   0.730   1.426   5.453 -1.5458 -0.1795 -1.1314
15259TIP3   OH267191   4.001   1.653   5.379 -0.6151 -0.1856  0.3025
15259TIP3    H167192   4.042   1.567   5.375  0.4432  0.3274 -0.1894
15259TIP3    H267193   4.071   1.714   5.359 -1.8354  0.6611 -1.6441
15260TIP3   OH267194   1.469   0.906  13.032  0.6615  0.2474  0.1380
15260TIP3    H167195   1.406   0.834  13.040 -0.6236  1.1388 -1.3565
15260TIP3    H267196   1.416   0.983  13.013  2.1835  1.0291 -1.2589
15261TIP3   OH267197   2.956   0.502   5.162 -0.5568  0.0393 -0.0476
15261TIP3    H167198   2.932   0.410   5.153 -0.3047  0.1111 -1.7532
15261TIP3    H267199   2.978   0.512   5.255 -0.5362 -1.6238  0.1565
15262TIP3   OH267200   2.800   3.403   6.071 -0.4805  0.3685  0.2352
15262TIP3    H167201   2.721   3.452   6.048 -1.0444  0.1264  1.5420
15262TIP3    H267202   2.851   3.464   6.125  0.4736  0.6813 -0.9600
15263TIP3   OH267203   0.522   5.198   3.095 -0.3982 -0.3112  0.1393
15263TIP3    H167204   0.563   5.261   3.036  0.5870 -1.2607 -0.2134
15263TIP3    H267205   0.560   5.216   3.181 -1.6862  0.9396  0.4886
15264TIP3   OH267206   2.054   3.069   4.717  0.2405 -0.4911 -0.1379
15264TIP3    H167207   2.056   3.008   4.644 -0.4320 -1.0478  0.2844
15264TIP3    H267208   1.964   3.101   4.719 -0.1106 -1.4299  1.1677
15265TIP3   OH267209   4.309   1.504   6.429 -0.4949  0.6690 -0.1703
15265TIP3    H167210   4.361   1.424   6.428  0.8485  1.4340  1.8786
15265TIP3    H267211   4.312   1.536   6.339  3.2807  1.0162 -0.0810
15266TIP3   OH267212   1.711   4.874  14.461 -0.3136  0.5548 -0.7021
15266TIP3    H167213   1.638   4.830  14.504 -0.9254  1.9607 -0.2703
15266TIP3    H267214   1.755   4.804  14.411  0.1480 -1.0616  1.7890
15267TIP3   OH267215   6.707   5.090  16.056 -0.1029 -0.1314  0.3534
15267TIP3    H167216   6.641   5.131  16.000 -1.6816 -0.9336  1.5617
15267TIP3    H267217   6.755   5.032  15.997 -0.9920 -0.1262 -0.4039
15268TIP3   OH267218   2.510   0.567   2.524  0.2618 -0.0634 -0.1495
15268TIP3    H167219   2.561   0.516   2.586  1.7357  0.3320 -0.9786
15268TIP3    H267220   2.466   0.502   2.469  0.6302 -0.4248 -0.0203
15269TIP3   OH267221   6.092   5.495  16.060  0.2118 -0.5911 -0.3525
15269TIP3    H167222   6.116   5.586  16.042  0.2995 -0.7194 -0.8933
15269TIP3    H267223   6.112   5.448  15.979 -0.8787 -0.8952 -0.4602
15270TIP3   OH267224   3.052   5.007  17.008  0.5210  0.0236  0.3798
15270TIP3    H167225   3.124   5.028  17.068  0.6840 -1.5058  0.7481
15270TIP3    H267226   2.973   5.016  17.061  0.4572  1.0378  0.1491
15271TIP3   OH267227   0.076   1.221   5.525 -0.1818 -0.0720 -0.0563
15271TIP3    H167228   0.135   1.290   5.554 -0.8113  0.1846  0.6387
15271TIP3    H267229   0.065   1.165   5.601 -0.8298 -0.1195 -0.1742
15272TIP3   OH267230   2.949   1.576   5.315 -0.5636 -0.4008 -0.3142
15272TIP3    H167231   2.967   1.589   5.221 -3.0595  1.9071 -0.6008
15272TIP3    H267232   2.872   1.520   5.317  0.5184 -1.9135  0.4789
15273TIP3   OH267233   0.089   5.754  14.158  0.1944 -0.0756  0.1492
15273TIP3    H167234   0.097   5.672  14.111 -0.0456  0.4150 -0.7750
15273TIP3    H267235   0.135   5.740  14.241 -0.6067 -1.4151  0.3859
15274TIP3   OH267236   4.964   3.638  16.642  0.1869 -0.0771 -0.1978
15274TIP3    H167237   4.880   3.674  16.614 -0.1049 -1.3989 -1.0799
15274TIP3    H267238   4.965   3.651  16.737 -1.0193 -0.0738 -0.1765
15275TIP3   OH267239   2.296   1.870   3.723 -0.0111  0.1073 -0.5271
15275TIP3    H167240   2.351   1.945   3.746  0.7629 -0.4209 -0.6035
15275TIP3    H267241   2.266   1.889   3.634  1.3432 -0.3098 -1.1057
15276TIP3   OH267242   2.050   4.553   2.115 -0.1119 -0.1156 -0.5885
15276TIP3    H167243   2.131   4.503   2.123 -0.0990 -0.0162 -0.0037
15276TIP3    H267244   1.985   4.489   2.086 -0.5291 -0.9595  1.9594
15277TIP3   OH267245   3.215   5.142   5.760 -0.0676 -0.2017 -0.1755
15277TIP3    H167246   3.202   5.138   5.666  1.8148  0.3199 -0.4886
15277TIP3    H267247   3.150   5.206   5.790  0.1357  0.5637 -1.2936
15278TIP3   OH267248   1.882   3.133  10.889 -0.0382  0.3844  0.4031
15278TIP3    H167249   1.827   3.212  10.892 -1.8029 -0.7252 -0.7359
15278TIP3    H267250   1.882   3.107  10.797  2.0122  0.0175  0.4547
15279TIP3   OH267251   3.620   1.632   4.970 -0.0995 -0.0219  0.5722
15279TIP3    H167252   3.549   1.597   5.025  0.8974 -0.5774  1.5444
15279TIP3    H267253   3.673   1.683   5.031  0.8716 -0.3998  0.0593
15280TIP3   OH267254   1.987   1.414   3.346 -0.1152  0.2564  0.5192
15280TIP3    H167255   2.072   1.413   3.391  0.1550 -0.5340  0.0222
15280TIP3    H267256   2.004   1.458   3.263 -0.5393  1.4169  1.0223
15281TIP3   OH267257   1.985   5.315   3.916 -0.0812  0.7212  0.2445
15281TIP3    H167258   1.931   5.284   3.988 -0.6602  1.3224  0.0835
15281TIP3    H267259   2.039   5.384   3.954  0.4695  0.2241  0.3702
15282TIP3   OH267260   1.695   4.418   0.601  0.0808  0.1000 -0.1583
15282TIP3    H167261   1.608   4.440   0.567  0.2272 -1.1214 -1.3581
15282TIP3    H267262   1.755   4.445   0.532  0.3897 -2.2801 -0.8872
15283TIP3   OH267263   3.966   5.800  15.949  0.0793 -0.0955  0.2651
15283TIP3    H167264   4.043   5.778  15.896 -0.0930 -0.4698  0.1665
15283TIP3    H267265   3.917   5.718  15.954 -1.1466  0.5092 -1.0373
15284TIP3   OH267266   5.731   0.953   1.998 -0.6575 -0.0843  0.7246
15284TIP3    H167267   5.744   0.883   2.062 -0.8528  0.2570  1.1482
15284TIP3    H267268   5.643   0.939   1.964 -1.1031  0.5471  1.5704
15285TIP3   OH267269   1.895   0.808  12.696  0.4542 -0.1024 -0.4210
15285TIP3    H167270   1.803   0.784  12.706  0.6670 -0.5660  0.5770
15285TIP3    H267271   1.932   0.742  12.638 -0.2226  1.1240 -2.3522
15286TIP3   OH267272   2.440   6.799  14.514  0.5671 -0.9101 -0.2114
15286TIP3    H167273   2.486   6.818  14.596  0.4300 -0.9070 -0.1357
15286TIP3    H267274   2.403   6.712  14.527 -0.7560 -0.2978  0.3215
15287TIP3   OH267275   5.154   0.959   2.320  0.1420 -0.8077  0.5069
15287TIP3    H167276   5.175   1.043   2.278 -1.3598 -0.8151 -0.3328
15287TIP3    H267277   5.168   0.974   2.413  1.1270 -0.0195  0.2445
15288TIP3   OH267278   2.482   2.905  11.718  0.3432 -0.1809 -0.4504
15288TIP3    H167279   2.416   2.890  11.785  1.6086 -2.7511  0.3415
15288TIP3    H267280   2.490   3.000  11.712 -2.8858  0.2167 -0.1226
15289TIP3   OH267281   5.087   2.803   2.388  0.6668 -0.2957 -0.0220
15289TIP3    H167282   5.108   2.870   2.453 -0.3638 -0.8932  0.9738
15289TIP3    H267283   5.097   2.720   2.435  2.7962 -0.9357 -1.4815
15290TIP3   OH267284   4.646   2.174   1.625 -0.2060 -0.1216  0.3797
15290TIP3    H167285   4.559   2.166   1.586  0.7794 -0.0572 -2.0165
15290TIP3    H267286   4.706   2.146   1.556  1.6402 -1.5896  2.4556
15291TIP3   OH267287   3.208   2.590   0.614  0.0676 -0.3049  0.0203
15291TIP3    H167288   3.227   2.500   0.640  0.6735 -0.2626 -0.2689
15291TIP3    H267289   3.133   2.582   0.555 -0.4707 -0.5249  0.7216
15292TIP3   OH267290   4.735   1.621  17.138 -0.2505  0.3527  0.1354
15292TIP3    H167291   4.648   1.655  17.160 -0.2900  0.1429  0.3074
15292TIP3    H267292   4.760   1.668  17.058 -0.6923  0.1274 -0.1386
15293TIP3   OH267293   0.898   0.320  16.992 -0.4547 -0.3441 -0.0775
15293TIP3    H167294   0.984   0.279  17.001 -0.4275 -0.3630 -0.3991
15293TIP3    H267295   0.847   0.256  16.941 -0.5581 -0.1932 -0.1630
15294TIP3   OH267296   2.185   3.999  15.473 -0.1331  0.6001 -0.2489
15294TIP3    H167297   2.118   4.027  15.535 -1.8897 -2.3415 -0.6013
15294TIP3    H267298   2.187   3.903  15.482  1.4431  0.2996 -2.8246
15295TIP3   OH267299   0.780   0.270  13.594  0.2912  0.4492  0.0796
15295TIP3    H167300   0.798   0.358  13.628 -0.7492  0.0330  1.8480
15295TIP3    H267301   0.724   0.230  13.660  0.5414 -1.4759 -0.8050
15296TIP3   OH267302   1.325   5.209  15.889  0.0484 -0.0148  0.2751
15296TIP3    H167303   1.361   5.284  15.936 -2.6019 -0.2796  3.1159
15296TIP3    H267304   1.240   5.239  15.857  0.3865 -0.8630 -1.5211
15297TIP3   OH267305   6.804   1.968   4.813 -0.2216 -0.3235  0.4509
15297TIP3    H167306   6.719   1.993   4.848  0.2064  0.5259  0.9060
15297TIP3    H267307   6.786   1.948   4.721 -0.9669 -0.4760  0.6191
15298TIP3   OH267308   1.865   6.096  12.226  0.0530  0.2653  0.3334
15298TIP3    H167309   1.875   6.130  12.315  0.6791 -1.1740  0.8401
15298TIP3    H267310   1.903   6.008  12.229 -0.4791 -0.0525 -1.2080
15299TIP3   OH267311   4.977   5.253  13.994 -0.4635 -0.0776 -0.3644
15299TIP3    H167312   4.894   5.217  14.026  0.5886 -0.8435  1.7709
15299TIP3    H267313   4.955   5.337  13.956 -2.2324 -0.3036  0.0980
15300TIP3   OH267314   1.568   5.917   1.656 -0.0539 -0.3128  0.1485
15300TIP3    H167315   1.548   5.942   1.566 -1.1533  0.1007  0.4862
15300TIP3    H267316   1.503   5.850   1.677 -0.9150  0.7969  1.1724
15301TIP3   OH267317   2.083   4.213  11.341 -0.4664 -0.2551  0.0580
15301TIP3    H167318   2.116   4.255  11.262  0.2645 -0.9849 -0.0473
15301TIP3    H267319   2.159   4.210  11.400 -0.4583 -1.5065  0.0143
15302TIP3   OH267320   3.386   6.788   0.296  0.2676  0.2278  0.1420
15302TIP3    H167321   3.451   6.795   0.367 -1.0661 -1.3049  1.6138
15302TIP3    H267322   3.303   6.774   0.341 -0.8577  0.5888 -1.7294
15303TIP3   OH267323   4.911   3.502   4.104  0.7912 -0.1967 -0.4187
15303TIP3    H167324   4.979   3.567   4.088 -0.3933  2.1277  2.8019
15303TIP3    H267325   4.955   3.432   4.152  1.1873  0.7399  0.6284
15304TIP3   OH267326   4.255   5.404   1.698 -0.1856 -0.0924  0.3323
15304TIP3    H167327   4.187   5.437   1.640  0.1347 -0.2282 -0.1228
15304TIP3    H267328   4.225   5.428   1.786  0.1131  1.5524  0.0138
15305TIP3   OH267329   1.847   0.684  15.782 -0.4182  0.3325 -0.0127
15305TIP3    H167330   1.854   0.779  15.793  0.6782  0.1654  0.9370
15305TIP3    H267331   1.767   0.672  15.730 -1.9012  1.6571  1.8009
15306TIP3   OH267332   3.688   6.605  12.067 -0.5652 -0.3472 -0.0489
15306TIP3    H167333   3.617   6.546  12.044  0.0240 -0.2791 -2.3201
15306TIP3    H267334   3.756   6.548  12.104 -0.9785 -0.7238  0.1324
15307TIP3   OH267335   1.268   2.041   5.715 -0.1052  0.3474  0.1029
15307TIP3    H167336   1.325   2.035   5.791  0.4192  2.5492 -0.0581
15307TIP3    H267337   1.181   2.019   5.749  0.3021  0.1889  1.0893
15308TIP3   OH267338   5.857   4.915  16.316 -0.3191 -0.4483 -0.5208
15308TIP3    H167339   5.809   4.917  16.399  0.5966  0.2959  0.0081
15308TIP3    H267340   5.811   4.850  16.264 -1.0643 -0.7510  0.4787
15309TIP3   OH267341   3.680   1.370   3.857 -0.3874  0.0602 -0.1514
15309TIP3    H167342   3.702   1.460   3.835  1.3338 -0.3684 -0.2974
15309TIP3    H267343   3.617   1.378   3.929  1.5448  1.3934  1.4895
15310TIP3   OH267344   1.528   6.260   4.948 -0.3929 -0.2343  0.4506
15310TIP3    H167345   1.433   6.264   4.939 -0.2427 -0.1652 -1.5636
15310TIP3    H267346   1.556   6.351   4.947 -0.1262 -0.2806 -2.0828
15311TIP3   OH267347   5.569   1.619   2.303  0.0325 -0.4256  0.1877
15311TIP3    H167348   5.504   1.667   2.354 -0.7858 -0.4002 -0.8486
15311TIP3    H267349   5.579   1.670   2.223  0.8070 -0.8167  0.0246
15312TIP3   OH267350   1.138   1.967   2.632  0.3451 -0.1493  0.2385
15312TIP3    H167351   1.065   1.972   2.693 -1.3636 -0.3743 -1.6873
15312TIP3    H267352   1.174   2.056   2.630  0.8191 -0.2622  1.9394
15313TIP3   OH267353   5.058   0.643  15.931  0.1495 -0.1209 -0.3415
15313TIP3    H167354   5.044   0.684  15.846  0.2308 -0.6053 -0.5858
15313TIP3    H267355   4.980   0.589  15.945  0.2877 -0.3008 -0.2606
15314TIP3   OH267356   4.161   2.387   5.173  0.1686 -0.0245 -1.1598
15314TIP3    H167357   4.123   2.450   5.233  0.0264 -0.4427 -0.8058
15314TIP3    H267358   4.108   2.394   5.094  0.4629  0.6494 -1.3082
15315TIP3   OH267359   0.518   2.769   4.092  0.1921  0.6770 -0.0457
15315TIP3    H167360   0.458   2.711   4.139  1.3382  0.4132  1.1685
15315TIP3    H267361   0.522   2.848   4.146  0.1711  1.0886 -0.6401
15316TIP3   OH267362   4.753   3.088   5.042  0.2409 -0.3852 -0.3683
15316TIP3    H167363   4.830   3.054   4.997  1.6020 -1.5010  2.5853
15316TIP3    H267364   4.774   3.181   5.056  0.6565 -0.4775 -0.3495
15317TIP3   OH267365   1.795   3.049   3.010  0.3769 -0.5810 -0.2011
15317TIP3    H167366   1.742   3.096   3.074  0.5389 -0.5729 -0.0740
15317TIP3    H267367   1.738   2.978   2.979 -0.6789  0.9191 -1.9561
15318TIP3   OH267368   4.381   6.440  15.743  0.1061  0.5376  0.1839
15318TIP3    H167369   4.422   6.363  15.703 -1.0248 -0.2095  0.4239
15318TIP3    H267370   4.333   6.481  15.671 -0.7068  0.0277  0.4169
15319TIP3   OH267371   0.075   2.285  13.528 -0.0573 -0.2570 -0.3159
15319TIP3    H167372   0.116   2.201  13.508  1.8929  0.9647 -1.7928
15319TIP3    H267373   0.121   2.318  13.605 -0.5739 -0.3523  0.0436
15320TIP3   OH267374   3.922   3.647   2.519 -0.2145 -0.7958 -0.8286
15320TIP3    H167375   3.925   3.593   2.597  0.4078  1.3915  0.7749
15320TIP3    H267376   3.838   3.692   2.523  0.6424  0.8794 -0.1933
15321TIP3   OH267377   2.233   5.939   0.271  0.0570 -0.5204  0.0779
15321TIP3    H167378   2.188   5.926   0.187  0.5287 -1.7944  0.0070
15321TIP3    H267379   2.170   5.988   0.324 -0.5655 -0.4028 -0.7457
15322TIP3   OH267380   3.905   5.728   0.043 -0.2162 -0.1285  0.0288
15322TIP3    H167381   3.878   5.639   0.065  0.4868  0.2391  2.7681
15322TIP3    H267382   3.991   5.718   0.002 -0.0959 -0.7295  0.4118
15323TIP3   OH267383   6.345   4.724  12.769 -0.2610 -0.2606  0.2144
15323TIP3    H167384   6.320   4.718  12.677 -2.7655 -1.8238  0.9010
15323TIP3    H267385   6.393   4.643  12.786  0.6358  0.2574  0.1899
15324TIP3   OH267386   2.688   0.114  14.815 -0.4260  0.2297 -0.1203
15324TIP3    H167387   2.616   0.050  14.814 -0.3626  0.0908 -2.4605
15324TIP3    H267388   2.708   0.129  14.722  1.2664  1.7564  0.4234
15325TIP3   OH267389   6.789   2.639   2.646  0.4257 -0.3410 -0.0951
15325TIP3    H167390   6.720   2.703   2.630  1.6386  1.3614  1.1396
15325TIP3    H267391   6.743   2.557   2.662 -1.1461 -0.0554 -2.5943
15326TIP3   OH267392   3.567   6.100  15.518  0.0202 -0.2520  0.1233
15326TIP3    H167393   3.545   6.120  15.427 -0.7483 -0.9234  0.1442
15326TIP3    H267394   3.662   6.090  15.518  0.0772  0.2329 -0.5073
15327TIP3   OH267395   2.196   2.780   2.394  0.5862 -0.0506  0.1902
15327TIP3    H167396   2.242   2.857   2.361 -0.2698  1.1493  1.6762
15327TIP3    H267397   2.264   2.728   2.438  0.9676  0.4482  0.1985
15328TIP3   OH267398   2.052   4.137  12.765  0.1234  0.4714 -0.1524
15328TIP3    H167399   2.112   4.202  12.802 -0.1514  0.1340  0.9309
15328TIP3    H267400   2.091   4.113  12.681  0.8896  1.1063  0.0119
15329TIP3   OH267401   6.658   5.571   3.774  0.0476  0.0890 -0.1364
15329TIP3    H167402   6.565   5.560   3.755  0.1427 -0.6086 -0.2140
15329TIP3    H267403   6.703   5.527   3.702  0.4597  1.4897 -0.7675
15330TIP3   OH267404   4.889   0.888   3.826  0.2523  0.1036 -0.3430
15330TIP3    H167405   4.910   0.969   3.871 -1.2012  0.7489 -0.7925
15330TIP3    H267406   4.821   0.847   3.879 -0.7294  0.3663 -1.3529
15331TIP3   OH267407   6.290   2.754   1.939  0.0838 -0.3235  0.5823
15331TIP3    H167408   6.337   2.832   1.909 -1.7034  1.2193  1.5339
15331TIP3    H267409   6.331   2.681   1.893  1.3172  1.2616 -0.9495
15332TIP3   OH267410   2.143   0.439  15.180  0.0965  0.1815  0.5064
15332TIP3    H167411   2.161   0.449  15.273 -1.5858  1.9990  0.6815
15332TIP3    H267412   2.055   0.402  15.176  1.0137 -2.0817 -0.3901
15333TIP3   OH267413   0.242   4.326   4.671  0.3380 -0.2467 -0.4820
15333TIP3    H167414   0.237   4.342   4.765 -0.0796  0.7012 -0.6582
15333TIP3    H267415   0.235   4.231   4.663  1.1618 -0.4050  0.4872
15334TIP3   OH267416   5.886   6.289   2.770  0.6545  0.0096  0.1846
15334TIP3    H167417   5.934   6.313   2.690  0.7301  0.1567  0.2729
15334TIP3    H267418   5.840   6.369   2.794  1.2208  0.1883  0.7047
15335TIP3   OH267419   4.561   2.409  15.894  0.4884  0.9448 -0.4147
15335TIP3    H167420   4.507   2.415  15.972  0.4303  0.3203 -0.4023
15335TIP3    H267421   4.526   2.476  15.835 -0.7847  0.0834 -0.6917
15336TIP3   OH267422   1.015   3.055   5.921  0.0896  1.1073  0.0826
15336TIP3    H167423   0.981   2.985   5.976 -0.1165  1.8697  0.9422
15336TIP3    H267424   1.000   3.135   5.971 -0.1125  1.8235 -1.0889
15337TIP3   OH267425   6.766   4.805   5.912  0.0510 -0.1614 -0.1060
15337TIP3    H167426   6.696   4.774   5.970  2.3240  0.3554  3.2335
15337TIP3    H267427   6.811   4.725   5.884  0.1160 -0.3536  0.5288
15338TIP3   OH267428   3.846   4.923  12.035 -0.1222  0.1940 -0.3617
15338TIP3    H167429   3.782   4.994  12.031  0.2136  0.5199 -0.0377
15338TIP3    H267430   3.885   4.931  12.122  0.5667  0.1804 -0.6680
15339TIP3   OH267431   4.482   1.985  14.879  0.7506 -0.5762 -0.0717
15339TIP3    H167432   4.520   2.069  14.904  0.3923 -0.6937  0.9102
15339TIP3    H267433   4.416   1.967  14.946 -1.7429  0.0547 -2.1520
15340TIP3   OH267434   3.932   5.584  16.553 -0.3519  0.1849  0.3771
15340TIP3    H167435   3.927   5.597  16.458  0.0779 -1.0445  0.1640
15340TIP3    H267436   4.026   5.589  16.573 -0.3170 -0.7984  0.5243
15341TIP3   OH267437   2.273   0.685   6.051 -0.2560 -0.3971  0.1358
15341TIP3    H167438   2.292   0.761   6.105 -2.0163 -0.3681  0.7589
15341TIP3    H267439   2.201   0.641   6.095 -0.9831 -1.0048 -1.5739
15342TIP3   OH267440   4.400   3.909   5.861  0.1356 -0.2526 -0.1732
15342TIP3    H167441   4.442   3.872   5.939 -0.0554  0.2357  0.1672
15342TIP3    H267442   4.456   3.983   5.837  0.5358 -0.7778 -0.8686
15343TIP3   OH267443   5.603   1.881   1.557  0.0744 -0.0956  0.3048
15343TIP3    H167444   5.660   1.947   1.518  1.1480 -1.1708 -0.0062
15343TIP3    H267445   5.625   1.800   1.511 -0.9027 -0.7657  0.9759
15344TIP3   OH267446   5.927   1.464   5.828  0.3264  0.4786 -0.3019
15344TIP3    H167447   5.996   1.415   5.873  0.7018  0.2362 -1.1336
15344TIP3    H267448   5.971   1.506   5.754 -0.1368  1.4922 -0.0277
15345TIP3   OH267449   3.187   1.541  15.745 -0.0253  0.2250 -0.1836
15345TIP3    H167450   3.098   1.568  15.766 -1.3169 -1.4397 -2.9912
15345TIP3    H267451   3.182   1.507  15.656  3.1311 -1.2832  0.0590
15346TIP3   OH267452   1.113   5.112  16.498 -0.5346 -0.1080  0.1127
15346TIP3    H167453   1.096   5.020  16.515  0.4911 -0.5430 -1.0470
15346TIP3    H267454   1.047   5.137  16.432 -2.4665  0.7263  2.2301
15347TIP3   OH267455   1.644   4.410  10.983  0.5388  0.9201 -0.1299
15347TIP3    H167456   1.619   4.401  10.890 -1.4903 -0.8718  0.5031
15347TIP3    H267457   1.718   4.351  10.993 -1.9191 -2.4202  0.1898
15348TIP3   OH267458   1.808   4.730  12.999 -0.7771 -0.5779  0.0603
15348TIP3    H167459   1.780   4.810  12.956 -1.1100 -0.4305  0.5526
15348TIP3    H267460   1.731   4.698  13.045 -0.4173 -0.7213  0.5705
15349TIP3   OH267461   6.639   6.120   0.000 -0.6883 -0.2324 -0.4248
15349TIP3    H167462   6.696   6.048  -0.026  1.3964  0.0095  2.8680
15349TIP3    H267463   6.651   6.186  -0.068  1.2139 -1.1351 -1.0348
15350TIP3   OH267464   6.329   0.894   5.728 -0.2584  0.1315 -0.1662
15350TIP3    H167465   6.333   0.825   5.662  1.3157  0.5400 -0.5548
15350TIP3    H267466   6.410   0.945   5.714 -1.1426  1.7726  0.3991
15351TIP3   OH267467   3.499   6.133   2.305 -0.0070  0.3422  0.0767
15351TIP3    H167468   3.489   6.039   2.287 -2.0323  0.6898 -1.0213
15351TIP3    H267469   3.516   6.139   2.399 -0.4723 -1.1000  0.2695
15352TIP3   OH267470   6.310   6.080  13.127  0.2836 -0.5455  0.0964
15352TIP3    H167471   6.378   6.018  13.101  1.0910  0.2323  0.3217
15352TIP3    H267472   6.279   6.047  13.211  1.6153  0.0530  0.8462
15353TIP3   OH267473   0.596   6.159   1.883 -0.0952 -0.2133 -0.2783
15353TIP3    H167474   0.560   6.238   1.922 -1.3212 -0.0539 -1.6648
15353TIP3    H267475   0.557   6.155   1.796  1.4293 -1.3329 -0.9526
15354TIP3   OH267476   6.110   6.782   5.974 -0.5191 -0.4569  0.3269
15354TIP3    H167477   6.077   6.846   6.037 -1.0144 -0.5314  0.1490
15354TIP3    H267478   6.174   6.731   6.024  3.1655  2.8251 -0.5662
15355TIP3   OH267479   6.422   5.877   3.787  0.0244  0.4116 -0.4058
15355TIP3    H167480   6.491   5.879   3.720  0.0010  2.1526 -0.4013
15355TIP3    H267481   6.466   5.903   3.868  0.2951 -2.6829  0.5760
15356TIP3   OH267482   4.076   2.994  11.931  0.0531 -0.1513 -0.0828
15356TIP3    H167483   4.153   3.022  11.981  0.1409  0.3963 -0.5209
15356TIP3    H267484   4.066   3.060  11.863 -1.9212  0.8192  1.0901
15357TIP3   OH267485   3.885   3.862   5.639 -0.4552  0.1928 -0.0134
15357TIP3    H167486   3.966   3.825   5.676  0.8910  1.8165 -1.1610
15357TIP3    H267487   3.866   3.938   5.695  0.3848  1.3885 -1.2686
15358TIP3   OH267488   3.674   1.350  12.615 -0.0835 -0.0047 -0.5042
15358TIP3    H167489   3.662   1.431  12.564 -0.3128 -0.1243 -0.6426
15358TIP3    H267490   3.768   1.345  12.631 -0.1050  0.4725 -0.1967
15359TIP3   OH267491   3.930   2.986  16.766  0.0280 -0.3793  0.5932
15359TIP3    H167492   3.849   2.980  16.715  0.4150  0.4607 -0.1268
15359TIP3    H267493   3.950   2.895  16.788 -1.0520 -0.6107  0.7016
15360TIP3   OH267494   4.540   6.405  14.843 -0.0680  0.6402  0.6052
15360TIP3    H167495   4.597   6.330  14.830 -1.3638 -0.2740  0.0218
15360TIP3    H267496   4.597   6.481  14.830  0.7567 -0.2378 -1.2989
15361TIP3   OH267497   4.195   0.760   2.677  0.1868 -0.4068 -0.2455
15361TIP3    H167498   4.128   0.703   2.715  0.7407 -0.5826  0.4981
15361TIP3    H267499   4.159   0.848   2.684 -0.8530 -0.6749 -1.7662
15362TIP3   OH267500   5.767   0.384  17.172  0.4168 -0.6082 -0.1029
15362TIP3    H167501   5.836   0.439  17.134  1.8837 -0.6501  2.2222
15362TIP3    H267502   5.750   0.424  17.257 -2.8669 -0.3339 -0.7878
15363TIP3   OH267503   5.372   6.271  15.784 -0.4966  0.9031  0.0037
15363TIP3    H167504   5.431   6.307  15.850 -0.6019 -0.3701  0.8199
15363TIP3    H267505   5.312   6.215  15.834 -1.6303  1.2102 -0.9653
15364TIP3   OH267506   0.112   5.788   1.800 -0.5800 -0.2440 -0.4042
15364TIP3    H167507   0.131   5.845   1.874 -0.4886  1.1179 -1.4378
15364TIP3    H267508   0.037   5.828   1.757 -0.0682 -0.4930 -1.5648
15365TIP3   OH267509   1.155   4.714   3.845 -0.4186 -0.3752 -0.0864
15365TIP3    H167510   1.093   4.671   3.904  0.5731 -0.5249  0.8808
15365TIP3    H267511   1.151   4.662   3.765 -0.3272 -1.4044  0.5520
15366TIP3   OH267512   1.931   2.346   0.300  0.0121 -0.0766  0.6379
15366TIP3    H167513   2.018   2.363   0.263  0.2515  0.7692  1.5558
15366TIP3    H267514   1.883   2.306   0.228  1.1995 -0.7013  0.1518
15367TIP3   OH267515   6.721   4.328  16.718 -0.2557  0.1116  0.3632
15367TIP3    H167516   6.782   4.294  16.784 -2.4427  0.0321  2.4747
15367TIP3    H267517   6.743   4.421  16.711  0.5471 -0.0561  0.5861
15368TIP3   OH267518   2.842   6.175  11.347 -0.4110 -0.0993  0.7087
15368TIP3    H167519   2.927   6.155  11.306  0.3191  0.3454  1.9485
15368TIP3    H267520   2.850   6.143  11.436 -1.2018  0.8178  1.1244
15369TIP3   OH267521   4.805   0.716   1.341 -0.0244 -0.1262  0.2734
15369TIP3    H167522   4.885   0.667   1.321 -0.5171 -0.5455 -0.7741
15369TIP3    H267523   4.794   0.775   1.266  0.2683  1.2376  1.2695
15370TIP3   OH267524   1.058   3.184   0.274  0.0006 -0.0507  0.1648
15370TIP3    H167525   1.028   3.095   0.289 -2.0005  0.1801 -1.9947
15370TIP3    H267526   0.981   3.239   0.291  1.2738  1.3760  1.7747
15371TIP3   OH267527   2.320   0.952  12.026 -0.1014  0.0794 -0.4433
15371TIP3    H167528   2.400   0.969  12.077 -0.2573 -0.8020  0.1226
15371TIP3    H267529   2.266   1.030  12.040  0.7952  0.8389 -1.1172
15372TIP3   OH267530   5.675   2.638  16.309 -0.1160  0.7337 -0.2900
15372TIP3    H167531   5.751   2.607  16.359 -1.4553  0.3491  1.6398
15372TIP3    H267532   5.683   2.594  16.224  0.6307 -1.1141  0.6706
15373TIP3   OH267533   4.678   0.667   5.161  0.2331  0.1637 -0.0061
15373TIP3    H167534   4.725   0.636   5.239 -1.3486  1.7740  1.7044
15373TIP3    H267535   4.719   0.751   5.140  0.9389 -0.4595 -1.2441
15374TIP3   OH267536   4.552   0.850  13.305 -0.4912 -0.4717  0.1811
15374TIP3    H167537   4.640   0.825  13.277 -1.4528 -0.8026 -2.8577
15374TIP3    H267538   4.560   0.943  13.327  0.1436  0.2540 -2.7243
15375TIP3   OH267539   4.183   2.634  15.345 -0.1681  0.2558  0.2533
15375TIP3    H167540   4.129   2.714  15.347 -1.2334 -0.4600  0.9576
15375TIP3    H267541   4.131   2.572  15.294 -0.7084 -0.9099  2.1406
15376TIP3   OH267542   3.063   2.529   2.129 -0.9521  0.0200 -0.0386
15376TIP3    H167543   3.005   2.459   2.101  1.1644 -1.6770 -0.4470
15376TIP3    H267544   3.151   2.491   2.125  0.3537  2.7954 -0.6141
15377TIP3   OH267545   0.441   3.342   2.772 -0.0684 -0.4452 -0.4280
15377TIP3    H167546   0.439   3.405   2.844  1.7385  0.3784 -1.0329
15377TIP3    H267547   0.352   3.309   2.766 -0.6419  0.7108  1.0919
15378TIP3   OH267548   0.332   6.503   5.725 -0.7425 -0.7444 -0.0319
15378TIP3    H167549   0.399   6.445   5.689  0.0185  0.7221 -1.0812
15378TIP3    H267550   0.278   6.527   5.650 -1.2300 -0.3519  0.4371
15379TIP3   OH267551   0.245   0.503  15.423  0.3416  0.1314 -0.0482
15379TIP3    H167552   0.310   0.565  15.456 -1.3915  1.7508  0.4781
15379TIP3    H267553   0.176   0.557  15.385 -1.4851 -1.4403  0.8385
15380TIP3   OH267554   3.316   1.078  13.234  0.4101  0.5175  0.2571
15380TIP3    H167555   3.235   1.115  13.269  0.6304  0.8382  0.4350
15380TIP3    H267556   3.342   1.140  13.165 -0.5959 -0.6665 -1.2328
15381TIP3   OH267557   0.632   1.709  12.341 -0.5489 -0.7943  0.1358
15381TIP3    H167558   0.562   1.775  12.338  1.6072  1.6291 -3.2944
15381TIP3    H267559   0.709   1.757  12.370  1.0146 -1.7733 -2.0922
15382TIP3   OH267560   1.147   0.712  16.898  0.0168  0.4152 -0.3917
15382TIP3    H167561   1.121   0.796  16.859 -0.2509  1.1813  1.3587
15382TIP3    H267562   1.206   0.736  16.969  0.1041 -0.9087  0.0021
15383TIP3   OH267563   5.589   5.458  12.706 -0.0722  0.2569  0.0423
15383TIP3    H167564   5.600   5.434  12.798 -1.1324 -1.3522 -0.1967
15383TIP3    H267565   5.526   5.530  12.707  2.1771  2.3479  0.7103
15384TIP3   OH267566   6.526   2.668   4.757 -0.0915 -0.6478 -0.0736
15384TIP3    H167567   6.577   2.749   4.766 -0.8816 -0.3186  1.9752
15384TIP3    H267568   6.584   2.600   4.791  0.0033 -0.7151 -0.3651
15385TIP3   OH267569   1.827   4.231   1.034  0.4397 -0.8190 -0.0177
15385TIP3    H167570   1.731   4.235   1.030  0.4427  2.4533  0.7743
15385TIP3    H267571   1.848   4.249   1.126  1.8292 -1.8603 -0.1081
15386TIP3   OH267572   0.423   4.760  10.233 -0.0926  0.1047 -0.1487
15386TIP3    H167573   0.350   4.698  10.236  0.3765 -0.4463  0.0354
15386TIP3    H267574   0.482   4.731  10.303 -0.2640  1.2664  0.5094
15387TIP3   OH267575   0.250   4.273   3.862  0.5143  0.0038  0.1949
15387TIP3    H167576   0.230   4.254   3.770 -2.3827  0.8092  0.5717
15387TIP3    H267577   0.255   4.369   3.866 -0.2199  0.0146  1.0190
15388TIP3   OH267578   5.924   5.419   5.941 -0.1058  0.2764  0.0369
15388TIP3    H167579   5.830   5.416   5.962 -0.1669  3.3111  0.6677
15388TIP3    H267580   5.968   5.413   6.026  0.4390 -2.2887 -0.3259
15389TIP3   OH267581   4.270   4.391   2.490  0.2557 -0.2270 -0.1052
15389TIP3    H167582   4.246   4.366   2.401 -1.8475 -2.4218  0.9545
15389TIP3    H267583   4.363   4.370   2.498  0.0178 -1.8010 -1.2306
15390TIP3   OH267584   3.588   5.121   3.751 -0.2461 -0.1142 -0.5862
15390TIP3    H167585   3.660   5.104   3.813 -0.3874  1.5386  0.0731
15390TIP3    H267586   3.562   5.034   3.722  0.7308 -0.8725  0.6545
15391TIP3   OH267587   4.098   1.362   4.643  0.2600  0.0719 -0.3990
15391TIP3    H167588   4.169   1.315   4.599  0.1826 -1.1239  0.7050
15391TIP3    H267589   4.137   1.447   4.667  1.4174 -0.6611  0.4121
15392TIP3   OH267590   2.002   0.367  11.672  0.1193 -0.2659  0.6250
15392TIP3    H167591   2.048   0.304  11.616 -2.8619 -1.0000 -1.2204
15392TIP3    H267592   1.996   0.323  11.757 -0.9108 -2.0509 -0.3185
15393TIP3   OH267593   6.657   1.731  12.493 -0.1406  0.1794  0.4902
15393TIP3    H167594   6.598   1.715  12.566 -1.0146  0.2100 -0.1898
15393TIP3    H267595   6.611   1.695  12.417  1.5265 -1.5426  0.1970
15394TIP3   OH267596   4.875   1.687   4.010 -0.3710 -0.3192  0.0609
15394TIP3    H167597   4.884   1.593   3.990  0.5893 -0.0892 -0.6732
15394TIP3    H267598   4.893   1.694   4.103  0.9981 -0.7077 -0.1485
15395TIP3   OH267599   1.345   1.624  14.343 -0.4013 -0.0440  0.0402
15395TIP3    H167600   1.296   1.641  14.424 -0.5938  0.8142 -0.2412
15395TIP3    H267601   1.432   1.659  14.360 -0.1809 -0.6593  0.1841
15396TIP3   OH267602   0.528   4.668  10.482  0.0721 -0.3402 -0.5056
15396TIP3    H167603   0.443   4.673  10.525 -0.2312  1.1072 -1.1988
15396TIP3    H267604   0.582   4.615  10.540 -0.5118  0.9849  1.3276
15397TIP3   OH267605   6.694   5.624  13.156  0.1554  0.8142 -0.4897
15397TIP3    H167606   6.647   5.686  13.213 -0.0513  1.3147 -1.2011
15397TIP3    H267607   6.630   5.598  13.090  0.4452  0.3542 -0.5959
15398TIP3   OH267608   0.898   3.790  10.748 -0.0871  0.0847  0.1829
15398TIP3    H167609   0.878   3.881  10.767 -0.1032  0.1957 -0.3540
15398TIP3    H267610   0.981   3.792  10.701 -0.2449 -0.1467 -0.1138
15399TIP3   OH267611   3.412   5.726  11.960  0.0359  0.5308  0.3629
15399TIP3    H167612   3.385   5.761  11.875 -0.6270 -0.5626  0.1014
15399TIP3    H267613   3.482   5.663  11.938 -2.2332 -2.1160  0.2270
15400TIP3   OH267614   1.347   2.719   2.596  0.8159  0.0773  0.3177
15400TIP3    H167615   1.389   2.667   2.664 -1.1866 -2.2607 -0.0850
15400TIP3    H267616   1.380   2.682   2.514  1.6111  1.4791 -0.0367
15401TIP3   OH267617   2.316   4.050   3.240  0.2168  0.1711  0.1444
15401TIP3    H167618   2.377   4.119   3.212 -0.5637  0.2599 -1.4789
15401TIP3    H267619   2.316   3.988   3.167 -0.1015 -0.8765  1.0201
15402TIP3   OH267620   1.638   1.238   5.520 -0.2608 -0.3252  0.1361
15402TIP3    H167621   1.702   1.166   5.515  1.1023  0.9036 -1.0162
15402TIP3    H267622   1.628   1.267   5.430 -0.3369  1.3077  0.6476
15403TIP3   OH267623   2.534   3.854   0.225 -0.2891  0.1012 -0.1505
15403TIP3    H167624   2.538   3.769   0.269  0.8077 -0.3506 -1.0674
15403TIP3    H267625   2.624   3.870   0.196 -0.2001  2.1751  1.0871
15404TIP3   OH267626   5.964   2.978   2.143 -0.0844  0.2816  0.1633
15404TIP3    H167627   5.918   3.035   2.204 -0.9048 -0.1675 -0.0102
15404TIP3    H267628   5.904   2.904   2.130 -0.1269  0.5593 -1.5023
15405TIP3   OH267629   2.857   5.255   1.604  0.2789 -0.4675 -0.0838
15405TIP3    H167630   2.847   5.288   1.515  1.3930 -0.0999 -0.0967
15405TIP3    H267631   2.926   5.188   1.597  0.0484 -0.7656  0.4252
15406TIP3   OH267632   1.081   6.026   1.633 -0.2268  0.3365  0.3901
15406TIP3    H167633   1.174   6.013   1.613 -0.2684  0.7097 -0.0846
15406TIP3    H267634   1.060   5.957   1.695 -0.0128 -0.7140 -0.6604
15407TIP3   OH267635   4.074   0.694  12.443 -0.1095 -0.2807 -0.6916
15407TIP3    H167636   4.139   0.655  12.501  0.7922 -1.2859 -2.3122
15407TIP3    H267637   4.016   0.743  12.502  0.3589 -1.7740  1.1141
15408TIP3   OH267638   0.305   3.795  17.188  0.1601  0.3674  0.1266
15408TIP3    H167639   0.315   3.712  17.234 -1.2550  0.0821 -0.0072
15408TIP3    H267640   0.352   3.783  17.105 -0.0902 -0.3385  0.0816
15409TIP3   OH267641   3.971   1.186   4.902  0.0619 -0.3949  0.3039
15409TIP3    H167642   3.937   1.140   4.825  0.3955  0.0286 -0.1085
15409TIP3    H267643   3.934   1.274   4.896  2.9231  0.8559 -1.4572
15410TIP3   OH267644   4.239   5.421  10.732 -0.0569 -0.0995  0.0299
15410TIP3    H167645   4.255   5.356  10.662 -1.1159 -1.2557  0.8164
15410TIP3    H267646   4.228   5.504  10.685 -1.5747 -0.9822 -1.2879
15411TIP3   OH267647   3.414   5.981   4.904  0.3381 -0.2905 -0.3711
15411TIP3    H167648   3.351   6.052   4.904 -0.2370 -0.7891 -0.6118
15411TIP3    H267649   3.464   5.992   4.985 -0.8581 -0.5890  0.4310
15412TIP3   OH267650   0.454   6.185   2.368  0.0426 -0.1583  0.9906
15412TIP3    H167651   0.473   6.278   2.378  1.4687 -0.3865  0.6674
15412TIP3    H267652   0.382   6.181   2.305 -0.3682  0.7333  1.3877
15413TIP3   OH267653   2.964   1.072  11.505 -0.5561  0.4192 -0.4331
15413TIP3    H167654   2.967   1.099  11.597 -0.3476  3.6750 -1.2959
15413TIP3    H267655   2.872   1.052  11.489 -0.8899  1.4356  0.1138
15414TIP3   OH267656   5.029   2.313  12.067 -0.2505 -0.0689  0.1364
15414TIP3    H167657   5.006   2.313  12.160  0.5554  0.0110  0.3418
15414TIP3    H267658   5.113   2.358  12.063  0.5748 -1.5825 -0.3980
15415TIP3   OH267659   1.433   1.381  13.268  0.2790  0.3812  0.0664
15415TIP3    H167660   1.519   1.415  13.289 -0.5999  1.7938  1.6506
15415TIP3    H267661   1.398   1.350  13.352 -0.2160 -1.5389 -0.7867
15416TIP3   OH267662   1.269   1.440  14.640 -0.0767 -0.2157 -0.3983
15416TIP3    H167663   1.300   1.529  14.618 -3.1241  1.6361  1.9931
15416TIP3    H267664   1.232   1.407  14.558  0.4280  1.0478 -1.1672
15417TIP3   OH267665   0.210   4.532   2.657 -0.1435 -0.1845  0.0932
15417TIP3    H167666   0.232   4.625   2.648 -2.6913  0.3455 -1.4599
15417TIP3    H267667   0.141   4.529   2.724  0.0666 -1.0099  0.2935
15418TIP3   OH267668   1.430   4.629   0.380  0.0368  0.6027 -0.1326
15418TIP3    H167669   1.439   4.644   0.474  0.0535 -1.0289  0.1554
15418TIP3    H267670   1.506   4.673   0.341  0.1380  1.1113  0.6323
15419TIP3   OH267671   2.249   1.138   2.486 -0.0911 -0.2324 -0.2994
15419TIP3    H167672   2.208   1.059   2.450  0.2373 -1.3604  1.6694
15419TIP3    H267673   2.214   1.145   2.574  1.0454  0.9809  0.0845
15420TIP3   OH267674   4.554   1.031  12.444  0.3884  0.3976  0.6305
15420TIP3    H167675   4.631   0.977  12.459 -0.2095 -0.5579  0.3371
15420TIP3    H267676   4.481   0.969  12.443 -0.1346  0.9654 -1.4573
15421TIP3   OH267677   6.676   3.668  14.808  0.2888  0.2491 -0.2572
15421TIP3    H167678   6.612   3.598  14.798  0.2234  0.4747 -1.6697
15421TIP3    H267679   6.672   3.716  14.725  2.6535 -0.0680 -0.6302
15422TIP3   OH267680   4.670   2.957   4.169 -0.0655  0.5154 -0.4871
15422TIP3    H167681   4.709   2.938   4.254  0.4671  0.1241 -0.8124
15422TIP3    H267682   4.589   2.906   4.168 -0.4773  1.1411  0.0923
15423TIP3   OH267683   0.305   6.013  12.060  0.4013 -0.5657 -0.8251
15423TIP3    H167684   0.356   6.094  12.061 -0.1969 -0.1642  0.7086
15423TIP3    H267685   0.362   5.949  12.017  0.8696  0.6571 -2.0903
15424TIP3   OH267686   5.691   5.686   3.926 -0.0616  0.1778  0.6445
15424TIP3    H167687   5.602   5.653   3.935  0.7233 -2.7747 -1.0809
15424TIP3    H267688   5.747   5.613   3.952  1.8404  0.9274 -0.9983
15425TIP3   OH267689   5.015   6.543  15.367 -0.1856  0.2665  0.1048
15425TIP3    H167690   5.053   6.460  15.395  0.3161 -0.0414 -1.4378
15425TIP3    H267691   4.992   6.587  15.449  0.0867 -1.1242  0.9629
15426TIP3   OH267692   4.440   5.628  16.410 -0.1466 -0.3817  0.6432
15426TIP3    H167693   4.445   5.573  16.488 -0.8627  1.3166  1.9652
15426TIP3    H267694   4.505   5.697  16.426 -2.4134  1.7721  1.3152
15427TIP3   OH267695   0.183   4.319  15.970 -0.1368  0.1187 -0.9302
15427TIP3    H167696   0.274   4.329  15.998 -1.0051 -0.2748  2.5377
15427TIP3    H267697   0.138   4.397  16.003 -1.6287 -1.3159  0.6978
15428TIP3   OH267698   2.644   0.224  11.975  0.6774  0.1251 -0.2926
15428TIP3    H167699   2.596   0.213  11.893  1.5538  0.0388 -0.8095
15428TIP3    H267700   2.692   0.142  11.986  1.8836  0.7666 -0.5915
15429TIP3   OH267701   2.239   5.321   1.030 -0.5049  0.3659  0.0495
15429TIP3    H167702   2.202   5.298   1.115 -0.5702  2.3159  0.5971
15429TIP3    H267703   2.297   5.394   1.049  1.1151 -0.5136 -1.2945
15430TIP3   OH267704   2.053   1.946   4.784 -0.4541  0.0643 -0.1021
15430TIP3    H167705   2.101   2.028   4.798  0.5199 -0.1334 -1.9513
15430TIP3    H267706   2.011   1.928   4.868  2.1601  0.6313  1.4403
15431TIP3   OH267707   6.230   0.049   0.186  0.4352 -0.0687  0.4087
15431TIP3    H167708   6.232  -0.039   0.223 -0.1427 -0.5327 -0.6290
15431TIP3    H267709   6.137   0.073   0.183  0.5951  0.6561  0.8455
15432TIP3   OH267710   0.610   5.273  13.530  0.3989  0.3392  0.0540
15432TIP3    H167711   0.583   5.185  13.556  3.9296 -0.4568  1.6677
15432TIP3    H267712   0.544   5.331  13.568 -0.1246 -1.4531  2.0468
15433TIP3   OH267713   3.059   5.834  15.041  0.1661  0.5539  0.8279
15433TIP3    H167714   3.121   5.906  15.050  0.4326  0.2620  1.3313
15433TIP3    H267715   3.013   5.830  15.125  2.0682 -1.6191  1.9023
15434TIP3   OH267716   0.294   6.656  15.192 -0.8354 -0.0555 -0.1919
15434TIP3    H167717   0.345   6.584  15.230 -1.5907 -0.1838  0.6076
15434TIP3    H267718   0.221   6.612  15.148 -1.8091  0.2386  1.0731
15435TIP3   OH267719   0.516   5.700   2.118  0.5168  0.2459 -0.6461
15435TIP3    H167720   0.473   5.620   2.086  0.0099  0.0665  0.4472
15435TIP3    H267721   0.444   5.760   2.136  0.3513 -1.0010  3.8754
15436TIP3   OH267722   3.265   1.399   6.614  0.2909 -0.2323 -0.3904
15436TIP3    H167723   3.306   1.434   6.693 -0.1475  0.5292 -0.4844
15436TIP3    H267724   3.223   1.475   6.574 -1.0031 -0.9424 -0.4216
15437TIP3   OH267725   2.183   5.205  11.862  0.0194 -0.1643  0.2559
15437TIP3    H167726   2.155   5.135  11.803  1.5697 -0.2496 -0.4306
15437TIP3    H267727   2.278   5.204  11.856  0.0800  3.1033 -1.1063
15438TIP3   OH267728   2.262   2.666  14.372  0.5369  0.2512  0.5024
15438TIP3    H167729   2.331   2.605  14.399 -1.0835 -0.9813  2.0576
15438TIP3    H267730   2.231   2.704  14.454 -0.3637  1.0842 -0.2122
15439TIP3   OH267731   0.632   5.676   4.865  0.0056 -0.2944  0.3751
15439TIP3    H167732   0.678   5.593   4.877 -0.3822 -0.3256  1.8168
15439TIP3    H267733   0.586   5.690   4.947 -1.7802  0.2369 -0.6591
15440TIP3   OH267734   2.323   5.852  13.993  0.0444  0.0865 -0.4362
15440TIP3    H167735   2.281   5.769  14.012 -0.6817  0.1653 -1.5862
15440TIP3    H267736   2.413   5.842  14.024 -0.1528 -0.9678 -0.1878
15441TIP3   OH267737   2.050   3.234   5.034  0.3284 -0.0206  0.4069
15441TIP3    H167738   2.115   3.182   4.986 -0.6430 -0.9453  0.0531
15441TIP3    H267739   2.060   3.323   4.998 -0.0387 -0.5917 -1.2054
15442TIP3   OH267740   2.406   5.663  12.242  0.2392  0.1633 -0.0228
15442TIP3    H167741   2.350   5.617  12.179 -0.1643  0.1556  0.3412
15442TIP3    H267742   2.459   5.721  12.187 -0.6448  0.7231 -0.3291
15443TIP3   OH267743   0.082   0.721   5.485 -0.9532 -0.3603  0.5215
15443TIP3    H167744   0.077   0.760   5.398 -1.3794 -1.0952  0.2105
15443TIP3    H267745  -0.005   0.735   5.522 -0.2695  1.5805  1.5716
15444TIP3   OH267746   4.420   6.408   0.932 -0.0566  0.6189  0.2935
15444TIP3    H167747   4.452   6.495   0.954  1.3621  0.5756 -1.3848
15444TIP3    H267748   4.326   6.420   0.917 -0.0208  1.6977  0.8336
15445TIP3   OH267749   3.163   1.898  12.385 -0.4005  0.2184 -0.0785
15445TIP3    H167750   3.208   1.826  12.431 -0.4812 -0.2657 -0.7497
15445TIP3    H267751   3.101   1.854  12.328 -1.8104  0.8817  0.8892
15446TIP3   OH267752   1.611   0.016   2.394  0.1078 -0.0068 -0.8863
15446TIP3    H167753   1.611   0.096   2.447 -0.4693 -0.3175 -0.4031
15446TIP3    H267754   1.697  -0.024   2.412 -0.6308 -0.8928  1.0773
15447TIP3   OH267755   2.128   6.096   0.701  0.2193  0.4719 -0.0185
15447TIP3    H167756   2.139   6.155   0.776  2.2461  0.0046  0.1281
15447TIP3    H267757   2.059   6.036   0.727 -0.2017  1.2980  0.8208
15448TIP3   OH267758   5.538   2.494   1.326 -0.0892 -0.0379  0.3293
15448TIP3    H167759   5.447   2.496   1.299 -0.6046  0.6132  1.9620
15448TIP3    H267760   5.565   2.586   1.326  0.8400 -0.2807 -0.9095
15449TIP3   OH267761   0.847   2.223  13.929 -0.4512  0.1193 -0.0499
15449TIP3    H167762   0.871   2.142  13.884  0.4053  0.3720 -0.0683
15449TIP3    H267763   0.918   2.284  13.908 -0.5025  0.5254  0.8873
15450TIP3   OH267764   5.145   2.926  12.011  0.1430 -0.3146 -0.0164
15450TIP3    H167765   5.120   2.996  11.950 -1.2145 -0.9463 -0.2318
15450TIP3    H267766   5.124   2.961  12.098  1.3741  0.2970  0.0599
15451TIP3   OH267767   2.577   3.071  14.576 -0.0329 -0.0884  0.1444
15451TIP3    H167768   2.631   3.101  14.649 -0.0373  0.4190 -0.0541
15451TIP3    H267769   2.640   3.038  14.511 -0.0712 -1.3227  0.7131
15452TIP3   OH267770   2.930   3.617   0.161 -0.5788  0.5771 -0.2022
15452TIP3    H167771   3.019   3.597   0.131 -0.3395  1.0916  0.1551
15452TIP3    H267772   2.891   3.531   0.179 -0.0797  0.3556 -0.1490
15453TIP3   OH267773   6.191   5.176  16.858 -0.4394  0.0798 -0.0943
15453TIP3    H167774   6.196   5.134  16.943  0.2521 -0.0489 -0.1891
15453TIP3    H267775   6.180   5.104  16.796  0.8004  0.0118 -0.2630
15454TIP3   OH267776   6.153   4.511  14.169 -0.3125  0.3822  0.3033
15454TIP3    H167777   6.165   4.464  14.252 -1.2816 -0.5005 -0.0418
15454TIP3    H267778   6.227   4.572  14.166  1.3604 -1.4975  0.5101
15455TIP3   OH267779   3.299   3.592   5.168  0.3235  0.5244  0.3344
15455TIP3    H167780   3.385   3.602   5.209 -0.6063  1.2509  2.2626
15455TIP3    H267781   3.242   3.561   5.239 -1.0107  0.0526 -0.8905
15456TIP3   OH267782   0.957   5.969  16.085  0.4546 -0.2466  0.7149
15456TIP3    H167783   0.885   5.937  16.031  1.7594 -0.5465 -0.9459
15456TIP3    H267784   0.941   6.063  16.094  0.6344 -0.0359 -0.9428
15457TIP3   OH267785   2.063   2.954  15.816 -0.5319 -0.2469 -0.2066
15457TIP3    H167786   2.060   3.034  15.763  0.8394  0.0328  0.0901
15457TIP3    H267787   1.974   2.919  15.812 -1.1038  1.1668 -0.5382
15458TIP3   OH267788   1.469   3.042  13.739  0.2487 -0.0502  0.0300
15458TIP3    H167789   1.416   3.000  13.671  0.5410 -0.7261  0.2121
15458TIP3    H267790   1.475   2.977  13.809  1.7791 -0.2087 -0.2173
15459TIP3   OH267791   1.056   0.647  14.923  0.1348 -0.2698  0.2231
15459TIP3    H167792   1.133   0.653  14.979  0.1425 -2.1450  0.4516
15459TIP3    H267793   0.985   0.682  14.977  0.7002  0.9491  0.2097
15460TIP3   OH267794   3.165   1.506   1.132 -0.1000  0.0293 -0.0492
15460TIP3    H167795   3.183   1.453   1.054  0.9899 -1.7414  1.3277
15460TIP3    H267796   3.173   1.596   1.102  0.1413 -0.6024 -2.0236
15461TIP3   OH267797   0.717   2.044  11.301  0.1277 -0.5000 -0.1640
15461TIP3    H167798   0.693   2.123  11.349  0.8204 -0.8668  0.8253
15461TIP3    H267799   0.715   2.070  11.208  2.0218  1.1971  0.1866
15462TIP3   OH267800   2.244   2.380  13.389  0.2426  0.6757  0.7356
15462TIP3    H167801   2.157   2.398  13.354  1.6579  2.0727 -2.5048
15462TIP3    H267802   2.259   2.449  13.454 -0.8940  0.6150  1.0779
15463TIP3   OH267803   5.388   1.728   0.840  0.1936  0.3244 -0.5672
15463TIP3    H167804   5.383   1.722   0.744  0.0047  1.9473 -0.6834
15463TIP3    H267805   5.428   1.813   0.857  0.4587 -0.0465  0.8103
15464TIP3   OH267806   1.141   2.282   0.323 -0.3882  0.5032  0.8326
15464TIP3    H167807   1.094   2.356   0.282 -0.8545 -0.7875 -1.0870
15464TIP3    H267808   1.207   2.257   0.259  0.7474  0.1411  2.0926
15465TIP3   OH267809   0.107   2.712  13.304  0.3945  0.5294  0.0347
15465TIP3    H167810   0.156   2.668  13.373 -0.2608  2.2679  1.6866
15465TIP3    H267811   0.107   2.804  13.330 -0.0848  1.2084 -2.1788
15466TIP3   OH267812   6.573   2.515  15.512  0.1831  0.3456 -0.3582
15466TIP3    H167813   6.503   2.452  15.526 -1.2673  1.8131 -0.6550
15466TIP3    H267814   6.648   2.479  15.559 -0.0704 -2.3917 -1.8645
15467TIP3   OH267815   5.750   3.332  14.752  0.1164 -0.3352  0.7099
15467TIP3    H167816   5.754   3.380  14.668 -1.9630 -2.1177 -0.5094
15467TIP3    H267817   5.839   3.299  14.765  0.9660  1.6150  0.2773
15468TIP3   OH267818   3.133   2.223  13.105 -0.3027  0.5769  0.0499
15468TIP3    H167819   3.178   2.141  13.084 -1.9266  0.0975 -1.7584
15468TIP3    H267820   3.135   2.226  13.201  0.2510 -1.3171  0.1506
15469TIP3   OH267821   3.058   6.133  11.173  0.2646  0.1467 -0.2812
15469TIP3    H167822   3.149   6.132  11.142  0.0087  1.6336 -1.1638
15469TIP3    H267823   3.016   6.203  11.123 -1.6797 -1.2406 -0.7150
15470TIP3   OH267824   5.599   2.213   5.686 -0.9728 -0.2195  0.3903
15470TIP3    H167825   5.632   2.123   5.698  1.2046  0.5782  0.8655
15470TIP3    H267826   5.567   2.238   5.773  0.5234  0.2121  0.8464
15471TIP3   OH267827   1.571   0.517   1.579  0.3600 -0.6919  0.4794
15471TIP3    H167828   1.491   0.502   1.629  0.3930 -1.2296  0.3836
15471TIP3    H267829   1.556   0.600   1.533 -0.1030 -0.7414  0.5356
15472TIP3   OH267830   1.333   0.842  16.284 -0.5148 -0.6787  0.4330
15472TIP3    H167831   1.282   0.769  16.320 -1.3414 -0.6923 -0.7170
15472TIP3    H267832   1.393   0.801  16.222 -1.8956 -0.3023 -1.2248
15473TIP3   OH267833   2.493   0.964   1.173 -0.1325  0.4707  0.5000
15473TIP3    H167834   2.465   0.893   1.114 -0.2906  1.6882 -0.9367
15473TIP3    H267835   2.457   1.043   1.133 -0.4552  1.3218  2.4011
15474TIP3   OH267836   3.937   6.619  11.855  0.2946 -0.0761  0.3129
15474TIP3    H167837   3.954   6.582  11.769 -0.4612  0.4359 -0.0754
15474TIP3    H267838   3.902   6.546  11.906  0.0813 -0.2220 -0.0362
15475TIP3   OH267839   3.428   5.225  13.513 -0.2202 -0.6267  0.2980
15475TIP3    H167840   3.407   5.132  13.524 -1.3789 -0.2478  1.5200
15475TIP3    H267841   3.520   5.232  13.540  0.6408 -1.7632 -2.0240
15476TIP3   OH267842   3.616   4.518   2.669  0.7176 -0.0757 -0.4990
15476TIP3    H167843   3.638   4.521   2.576  0.6464  0.9647 -0.4977
15476TIP3    H267844   3.610   4.425   2.690  0.2701 -0.3162 -1.6438
15477TIP3   OH267845   1.984   3.321   3.464  0.1460  0.1321 -0.0927
15477TIP3    H167846   2.008   3.378   3.392  0.3353  1.0818  0.7068
15477TIP3    H267847   1.953   3.240   3.422 -0.0112  0.7698 -1.2247
15478TIP3   OH267848   6.692   3.389   1.906  0.6057 -0.1317 -0.1081
15478TIP3    H167849   6.668   3.444   1.831  2.6004  0.3318 -0.4694
15478TIP3    H267850   6.652   3.432   1.981  0.6410  0.8210 -0.6161
15479TIP3   OH267851   1.542   5.242  14.930 -0.8624  0.4384  0.4690
15479TIP3    H167852   1.484   5.254  14.855  0.1150  2.4408 -0.0600
15479TIP3    H267853   1.624   5.210  14.892 -0.5014  1.0443  0.7111
15480TIP3   OH267854   1.032   0.338   5.029  0.1042 -0.2622  0.4000
15480TIP3    H167855   1.119   0.297   5.038  1.2406  1.7857 -0.5697
15480TIP3    H267856   1.048   0.431   5.045 -0.9800  0.9404 -4.0720
15481TIP3   OH267857   0.929   1.684   2.287 -0.0631  0.3927  0.4013
15481TIP3    H167858   0.965   1.605   2.328 -3.7321 -0.4917  2.3898
15481TIP3    H267859   0.893   1.654   2.204 -0.7594  0.0993  0.7996
15482TIP3   OH267860   4.892   1.904   1.889  0.3683  0.1086  0.1277
15482TIP3    H167861   4.848   1.828   1.853  1.4973 -0.8438  0.6739
15482TIP3    H267862   4.822   1.967   1.906 -0.7926 -1.3659  1.0467
15483TIP3   OH267863   6.722   4.210  14.485  0.4211 -0.3628  0.4986
15483TIP3    H167864   6.758   4.248  14.565  0.3830 -0.6618  0.6604
15483TIP3    H267865   6.799   4.193  14.431  0.3176  1.5751 -0.3209
15484TIP3   OH267866   2.581   0.031   6.130  0.5240  0.1442  0.3048
15484TIP3    H167867   2.511   0.001   6.188 -1.5363  1.8828 -1.1329
15484TIP3    H267868   2.636   0.087   6.186 -1.0457  1.2582  0.8001
15485TIP3   OH267869   3.416   2.368   1.755 -0.3145  0.2728  0.0144
15485TIP3    H167870   3.466   2.328   1.684 -0.2359  0.0326  0.2057
15485TIP3    H267871   3.339   2.313   1.764  0.2868 -0.4295  0.9583
15486TIP3   OH267872   2.550   4.237   0.498 -0.2329  0.4835 -0.1689
15486TIP3    H167873   2.491   4.277   0.562 -0.6813  0.7725 -0.7515
15486TIP3    H267874   2.608   4.308   0.471  0.2701  0.2405  0.2777
15487TIP3   OH267875   1.241   3.069   1.201 -0.1553  0.3015 -0.0062
15487TIP3    H167876   1.266   3.021   1.280 -2.1931 -0.0955  0.4519
15487TIP3    H267877   1.203   3.002   1.144 -0.1670  0.8594 -0.6594
15488TIP3   OH267878   4.123   3.534   2.374  0.6424 -0.0712 -0.1225
15488TIP3    H167879   4.041   3.564   2.413  1.0532 -0.6137  1.2082
15488TIP3    H267880   4.097   3.471   2.307 -0.1629  2.1016 -1.9740
15489TIP3   OH267881   6.218   0.888   0.338  0.0808  0.1312  0.0337
15489TIP3    H167882   6.187   0.857   0.424 -0.1450 -1.0389 -0.4496
15489TIP3    H267883   6.271   0.965   0.359  0.1336 -0.1997  1.2472
15490TIP3   OH267884   1.433   2.945   4.050  0.4753  0.2724 -0.8453
15490TIP3    H167885   1.466   3.020   3.999 -0.4658  0.0409 -1.8455
15490TIP3    H267886   1.347   2.974   4.080  0.5286 -0.0473 -0.3857
15491TIP3   OH267887   4.436   0.644  13.133  0.1037  0.2534  0.0699
15491TIP3    H167888   4.451   0.717  13.193  1.4628 -0.5173  0.7394
15491TIP3    H267889   4.430   0.567  13.191 -1.4219 -0.1722 -0.6024
15492TIP3   OH267890   6.476   1.527  12.749 -0.1062 -0.2366  0.4468
15492TIP3    H167891   6.407   1.464  12.733 -0.9036  1.1627 -2.4041
15492TIP3    H267892   6.445   1.581  12.821 -0.9472 -1.0296  0.6766
15493TIP3   OH267893   6.523   1.419   3.331 -0.3399 -0.1045  0.2866
15493TIP3    H167894   6.437   1.388   3.305  0.5089 -1.3615 -1.1995
15493TIP3    H267895   6.550   1.359   3.401 -0.3863 -0.1448  0.2700
15494TIP3   OH267896   3.213   0.114   1.346  0.1853  0.3727  0.4228
15494TIP3    H167897   3.190   0.195   1.392 -0.2506  1.0928 -0.9971
15494TIP3    H267898   3.130   0.068   1.335  0.2939  0.1847  0.3893
15495TIP3   OH267899   2.837   0.936   0.655  0.2436 -0.7352 -0.7636
15495TIP3    H167900   2.766   0.943   0.719  1.8457 -5.1621  1.9077
15495TIP3    H267901   2.793   0.906   0.575 -1.2558  0.2353 -0.3587
15496TIP3   OH267902   5.487   0.481   3.444  0.0461  0.2725 -0.2205
15496TIP3    H167903   5.475   0.386   3.449 -1.1769  0.4523  0.9958
15496TIP3    H267904   5.410   0.512   3.394  1.0858  0.5394 -1.7322
15497TIP3   OH267905   1.157   4.429   4.012  0.5058 -0.0040 -0.4849
15497TIP3    H167906   1.107   4.353   3.983  0.6385 -0.5547  0.6822
15497TIP3    H267907   1.092   4.500   4.017 -0.3268 -0.8399  1.5520
15498TIP3   OH267908   3.800   6.240  15.859 -0.0626  0.1584  0.7466
15498TIP3    H167909   3.844   6.158  15.838  0.9962  0.6185  1.1071
15498TIP3    H267910   3.864   6.308  15.838 -0.7396  0.8721  0.9295
15499TIP3   OH267911   4.697   2.649   1.725  0.1483  0.6359  0.5944
15499TIP3    H167912   4.755   2.589   1.773  0.0582  0.1446  0.1072
15499TIP3    H267913   4.756   2.711   1.683  0.3284  0.1656  0.1371
15500TIP3   OH267914   0.553   4.413   3.593 -0.0729 -0.0643 -0.1106
15500TIP3    H167915   0.574   4.493   3.643  1.4737  0.4426 -1.4782
15500TIP3    H267916   0.464   4.392   3.619  0.4280  0.5303  2.3778
15501TIP3   OH267917   3.597   5.775  13.898 -0.6214 -0.0069 -0.8183
15501TIP3    H167918   3.642   5.859  13.891  0.5924 -0.5195  0.2799
15501TIP3    H267919   3.504   5.798  13.904 -0.4004  1.1824 -1.5814
15502TIP3   OH267920   1.675   1.959  13.906 -0.0693  0.0762  0.3752
15502TIP3    H167921   1.620   1.929  13.979 -0.7471  0.6110  0.0980
15502TIP3    H267922   1.729   1.883  13.884 -0.4710 -0.3621  0.8671
15503TIP3   OH267923   3.056   2.899  13.216  0.4805  0.1929  0.2782
15503TIP3    H167924   3.014   2.816  13.195  1.9443 -0.2965 -0.9161
15503TIP3    H267925   3.018   2.962  13.155  1.1761 -0.1678 -0.5477
15504TIP3   OH267926   3.693   0.425  11.376  0.1006  0.0156 -0.2527
15504TIP3    H167927   3.639   0.360  11.332 -0.2119  0.8437 -1.1350
15504TIP3    H267928   3.636   0.502  11.386 -0.0951 -0.3861  2.3635
15505TIP3   OH267929   5.653   3.640  13.488 -0.2441 -0.2648 -0.7625
15505TIP3    H167930   5.612   3.726  13.498 -2.0723 -1.2550  1.1296
15505TIP3    H267931   5.606   3.599  13.416 -1.4338 -0.7219  0.2369
15506TIP3   OH267932   5.255   5.268  11.990 -0.2647 -0.4189 -0.2858
15506TIP3    H167933   5.330   5.224  12.029 -0.7131  0.0782  1.2393
15506TIP3    H267934   5.180   5.214  12.016 -0.6674  0.4319  0.3423
15507TIP3   OH267935   2.776   0.770   3.988  0.3143 -0.6712 -0.1285
15507TIP3    H167936   2.773   0.734   3.900  0.3710 -2.1841  0.4579
15507TIP3    H267937   2.705   0.834   3.990 -0.5034 -1.5123 -0.9082
15508TIP3   OH267938   0.324   0.895   1.482  0.3135 -0.0176 -0.3548
15508TIP3    H167939   0.282   0.980   1.472  0.1219 -0.1977 -1.1860
15508TIP3    H267940   0.253   0.832   1.471  0.3805 -0.2774  0.6802
15509TIP3   OH267941   2.258   0.218   0.342 -0.0459  0.4785  0.3042
15509TIP3    H167942   2.217   0.265   0.415 -0.7466  0.1367  0.1395
15509TIP3    H267943   2.320   0.281   0.306 -0.5582  1.0875  0.4499
15510TIP3   OH267944   1.887   5.163  11.062  0.2254  0.8266 -0.2045
15510TIP3    H167945   1.934   5.086  11.030  0.1695  1.9707 -3.3427
15510TIP3    H267946   1.857   5.138  11.149  3.1553 -1.4048  0.3312
15511TIP3   OH267947   1.750   4.047   6.237  0.6228  0.4350  0.1325
15511TIP3    H167948   1.677   4.097   6.274 -1.4855 -1.4875 -1.1293
15511TIP3    H267949   1.795   4.012   6.313  1.6098  3.3294  1.0229
15512TIP3   OH267950   1.949   4.250  15.218 -0.1680  0.2638 -0.3295
15512TIP3    H167951   2.025   4.277  15.165  1.0231 -2.4313 -0.1839
15512TIP3    H267952   1.953   4.306  15.296  0.9668  0.9825 -0.8651
15513TIP3   OH267953   6.792   0.823   2.797 -0.2174  0.2753 -0.0672
15513TIP3    H167954   6.732   0.851   2.867  0.0323  2.6635 -0.7151
15513TIP3    H267955   6.879   0.830   2.837 -0.2024 -0.4711  0.0324
15514TIP3   OH267956   5.239   2.770   5.116 -0.3738 -0.5205  0.5707
15514TIP3    H167957   5.329   2.791   5.092 -0.8247  1.3254  0.3666
15514TIP3    H267958   5.248   2.697   5.179  1.1591 -1.1626 -0.3245
15515TIP3   OH267959   3.203   2.242   2.482 -1.0401  0.5498  0.4661
15515TIP3    H167960   3.197   2.323   2.532  1.3069 -0.0425  1.8910
15515TIP3    H267961   3.142   2.182   2.527 -0.8987  0.7956  0.9947
15516TIP3   OH267962   6.265   1.478  13.045  0.0402  0.1027 -0.0299
15516TIP3    H167963   6.250   1.571  13.028  0.1878 -0.0746 -1.2017
15516TIP3    H267964   6.343   1.475  13.100  1.5841  0.5947 -2.0556
15517TIP3   OH267965   2.658   3.225   1.216  0.0854  0.0868  0.0564
15517TIP3    H167966   2.592   3.278   1.260 -0.2816  0.6759 -1.1547
15517TIP3    H267967   2.728   3.286   1.195  0.1892 -0.1498 -0.2954
15518TIP3   OH267968   0.034   0.354  15.248 -0.1050  0.4257  0.1821
15518TIP3    H167969  -0.040   0.296  15.267 -0.3878  1.1234  1.3196
15518TIP3    H267970  -0.007   0.436  15.220  0.2581  0.5556  0.0325
15519TIP3   OH267971   3.224   3.513   3.386 -0.3233  0.1144  0.1598
15519TIP3    H167972   3.194   3.560   3.464  0.4144 -0.0484  0.5596
15519TIP3    H267973   3.261   3.432   3.421  1.2502  0.6416 -0.2301
15520TIP3   OH267974   6.161   0.476  12.778 -0.0241  0.1461  0.0083
15520TIP3    H167975   6.094   0.491  12.712 -1.6628 -0.9739  1.2980
15520TIP3    H267976   6.225   0.545  12.765 -0.4215  0.1077 -2.5334
15521TIP3   OH267977   1.672   2.182  11.560  0.7355  0.1466 -0.1785
15521TIP3    H167978   1.744   2.239  11.533 -0.1006  0.1114 -2.7765
15521TIP3    H267979   1.714   2.101  11.589  1.7933  0.0826 -1.7602
15522TIP3   OH267980   2.225   1.577  16.162 -0.0742  0.7072 -0.4569
15522TIP3    H167981   2.280   1.558  16.238  0.8217  0.4705 -1.1568
15522TIP3    H267982   2.249   1.666  16.136 -3.4898  2.6933  2.1473
15523TIP3   OH267983   4.767   4.053  14.187 -0.5111 -0.6662  0.1294
15523TIP3    H167984   4.740   3.975  14.235  2.3896 -1.4066  0.7665
15523TIP3    H267985   4.846   4.026  14.140 -1.0994  1.1175 -2.0651
15524TIP3   OH267986   5.940   1.796  13.245  0.4805 -0.2761 -0.2550
15524TIP3    H167987   5.913   1.765  13.331 -0.1912  1.9015  0.3948
15524TIP3    H267988   5.884   1.750  13.183 -2.0983  1.2251  0.8155
15525TIP3   OH267989   6.158   6.509   3.975 -0.3178 -0.2896 -0.3298
15525TIP3    H167990   6.249   6.507   4.004 -0.4638  2.7491  0.7390
15525TIP3    H267991   6.128   6.418   3.982  2.0119 -1.0122  1.3694
15526TIP3   OH267992   1.493   1.722   3.460 -0.0317 -0.1658 -0.5803
15526TIP3    H167993   1.460   1.803   3.499 -0.0641 -0.8230  0.8403
15526TIP3    H267994   1.517   1.667   3.535  2.9170 -0.3156 -1.4655
15527TIP3   OH267995   4.723   2.717  14.331  0.5679 -0.0933 -0.2713
15527TIP3    H167996   4.806   2.760  14.351 -0.6836  1.8594  1.1677
15527TIP3    H267997   4.718   2.716  14.236  1.7305  0.8581 -0.3648
15528TIP3   OH267998   3.037   2.844   5.423  0.8463 -0.2438  1.0664
15528TIP3    H167999   3.090   2.824   5.346  1.8376 -1.3676  1.9783
15528TIP3    H268000   3.034   2.939   5.427  0.7549 -0.1705 -0.3516
15529TIP3   OH268001   5.455   1.694  14.038  0.4411  0.4556 -0.0767
15529TIP3    H168002   5.381   1.674  13.982 -0.4974  0.1455  1.2317
15529TIP3    H268003   5.421   1.756  14.102  1.1736 -0.0264  0.8100
15530TIP3   OH268004   2.014   1.943  12.965 -0.4516  0.3516 -0.0581
15530TIP3    H168005   2.103   1.977  12.961 -0.5406  0.7255  0.8868
15530TIP3    H268006   1.985   1.961  13.054 -1.2576 -0.3137 -0.1678
15531TIP3   OH268007   3.698   3.661   1.562  0.0063  0.3250  0.4767
15531TIP3    H168008   3.607   3.641   1.540  0.8147 -1.9701 -1.2460
15531TIP3    H268009   3.749   3.592   1.518  2.5174  0.9211  2.2190
15532TIP3   OH268010   6.563   3.895  15.935  0.4447  0.1745 -0.2205
15532TIP3    H168011   6.481   3.854  15.962  0.1312  0.7195 -0.3259
15532TIP3    H268012   6.536   3.970  15.882  0.9212  1.7028  1.5724
15533TIP3   OH268013   3.693   3.686   1.863  0.1627  0.0424  0.5855
15533TIP3    H168014   3.652   3.632   1.930 -0.7633  0.9676  0.7891
15533TIP3    H268015   3.634   3.681   1.788 -0.2835  1.2635  0.8297
15534TIP3   OH268016   1.369   3.420  13.218 -0.1180  0.6736 -0.0394
15534TIP3    H168017   1.321   3.469  13.151  0.5385  1.2512 -0.1049
15534TIP3    H268018   1.323   3.439  13.300 -0.6255  0.3682 -0.2493
15535TIP3   OH268019   0.599   1.415  14.208 -0.2831 -0.0692  0.2333
15535TIP3    H168020   0.688   1.382  14.217 -0.0167  0.3945 -0.5851
15535TIP3    H268021   0.574   1.442  14.296 -0.1962 -1.6303  0.7501
15536TIP3   OH268022   5.285   3.633   0.110  0.1768  0.2543 -0.1732
15536TIP3    H168023   5.351   3.592   0.166  0.5038 -1.8197 -1.9403
15536TIP3    H268024   5.204   3.585   0.130 -0.2471  1.0651  0.1326
15537TIP3   OH268025   0.272   3.644   4.293 -0.3264  0.3326 -0.9641
15537TIP3    H168026   0.334   3.677   4.228  0.3389 -0.3877 -0.7202
15537TIP3    H268027   0.326   3.589   4.351 -1.0285  0.4242 -0.2068
15538TIP3   OH268028   2.056   3.573   4.227  0.1902 -0.2027 -0.1854
15538TIP3    H168029   2.068   3.588   4.133 -1.3779  0.4040 -0.3330
15538TIP3    H268030   2.108   3.640   4.269  1.3797 -0.8453 -0.5930
15539TIP3   OH268031   6.005   2.533  11.876 -0.1876  0.0974 -0.0044
15539TIP3    H168032   6.027   2.626  11.887  0.0133 -0.1177  1.5007
15539TIP3    H268033   5.939   2.515  11.943 -0.3728 -0.8158 -0.4124
15540TIP3   OH268034   6.068   6.254   1.491 -0.4352  0.1807  0.3400
15540TIP3    H168035   5.979   6.281   1.471 -0.6351 -1.3835 -1.0300
15540TIP3    H268036   6.059   6.190   1.561 -0.0576  2.4618  2.6436
15541TIP3   OH268037   5.968   6.302  11.071  0.6633  0.5069 -0.0787
15541TIP3    H168038   5.891   6.265  11.027  0.0733 -0.9644  2.0296
15541TIP3    H268039   6.042   6.255  11.032  0.2905  0.2299 -0.4734
15542TIP3   OH268040   2.141   1.131  15.385 -0.2968  0.1358 -0.1752
15542TIP3    H168041   2.152   1.041  15.414 -2.4755 -0.5575 -1.2698
15542TIP3    H268042   2.229   1.161  15.363  0.3152 -2.2767 -1.3033
15543TIP3   OH268043   6.465   3.639  11.482 -0.0688 -0.2514 -0.0331
15543TIP3    H168044   6.427   3.726  11.491 -0.3263 -0.4780  1.2727
15543TIP3    H268045   6.541   3.651  11.425 -0.3688  0.7277 -0.2380
15544TIP3   OH268046   5.998   4.762  17.020  0.1690 -0.0522  0.5767
15544TIP3    H168047   6.017   4.828  16.953  1.2184 -2.3248 -1.5021
15544TIP3    H268048   5.986   4.813  17.101 -0.9966  2.8063 -1.2352
15545TIP3   OH268049   6.268   6.647  16.768 -0.0030 -0.2407  0.0261
15545TIP3    H168050   6.281   6.649  16.863 -0.2632 -3.3342  0.2074
15545TIP3    H268051   6.203   6.716  16.752  0.8710  1.1044  1.8965
15546TIP3   OH268052   2.767   6.715   5.624  0.5201  0.3194  0.4812
15546TIP3    H168053   2.687   6.686   5.667  1.1943  1.2165  2.4179
15546TIP3    H268054   2.743   6.797   5.581 -0.1828 -0.6366 -1.0417
15547TIP3   OH268055   3.857   6.811   4.366 -0.2164 -0.4066  0.2518
15547TIP3    H168056   3.812   6.888   4.400 -0.4570 -0.4186 -0.0298
15547TIP3    H268057   3.791   6.766   4.313  0.5297  0.3607 -1.3944
15548TIP3   OH268058   1.267   2.469   5.132 -0.4444 -0.3124 -0.7204
15548TIP3    H168059   1.348   2.420   5.116  0.8631  1.5524 -0.0564
15548TIP3    H268060   1.243   2.446   5.222  1.0462  1.3526  0.1770
15549TIP3   OH268061   5.789   5.920   4.857  0.6207  0.5856 -0.4087
15549TIP3    H168062   5.728   5.975   4.808  1.6745  0.8468 -1.4907
15549TIP3    H268063   5.875   5.961   4.844  0.8688  1.1563  2.3853
15550TIP3   OH268064   5.201   5.649  13.049  0.1059  0.4283  0.6040
15550TIP3    H168065   5.118   5.631  13.092 -0.2030  0.0002 -0.1447
15550TIP3    H268066   5.266   5.647  13.119 -0.4314  0.1456  1.0984
15551TIP3   OH268067   6.451   5.224   0.067  0.3460 -0.3684 -0.3165
15551TIP3    H168068   6.536   5.201   0.029  1.4502  0.9625  1.2466
15551TIP3    H268069   6.463   5.215   0.161 -1.1398  0.2147 -0.0415
15552TIP3   OH268070   0.303   5.068   4.530 -0.5336  0.1009 -0.3560
15552TIP3    H168071   0.237   5.061   4.599 -1.7191 -1.5625 -1.5744
15552TIP3    H268072   0.368   5.002   4.552  1.5164  2.5172  1.4974
15553TIP3   OH268073   5.790   4.534   0.778 -0.2315 -0.2811 -0.0928
15553TIP3    H168074   5.848   4.597   0.736 -2.5601  0.3322 -2.6837
15553TIP3    H268075   5.826   4.449   0.753  1.1629 -0.0008  0.8258
15554TIP3   OH268076   1.459   4.006  14.943 -0.0171 -0.1829 -0.3421
15554TIP3    H168077   1.450   4.025  14.850 -0.6101  0.1954 -0.2094
15554TIP3    H268078   1.463   4.091  14.986  2.9431 -0.2750 -0.2275
15555TIP3   OH268079   0.629   3.339  15.840 -0.4388 -0.6671  0.1072
15555TIP3    H168080   0.543   3.321  15.803 -0.3581 -0.7273 -0.0559
15555TIP3    H268081   0.623   3.311  15.931 -0.0499 -2.3854 -0.3599
15556TIP3   OH268082   6.515   6.271  14.131  0.1964 -0.4961  0.1467
15556TIP3    H168083   6.533   6.312  14.046  0.6002  0.1805  0.5583
15556TIP3    H268084   6.423   6.247  14.126 -0.2407  1.1121  0.1703
15557TIP3   OH268085   5.940   6.677  10.996  0.2749  0.6048 -0.0043
15557TIP3    H168086   5.866   6.622  10.972 -0.6318  1.7642  0.0425
15557TIP3    H268087   5.940   6.675  11.092  0.1254  0.8373  0.0002
15558TIP3   OH268088   6.341   5.462   0.625 -0.4729  0.2138 -0.1028
15558TIP3    H168089   6.392   5.543   0.639  0.6075 -0.6274  1.0995
15558TIP3    H268090   6.250   5.489   0.633 -0.1296  1.3252  0.2418
15559TIP3   OH268091   2.809   0.857   4.258  0.2082 -0.1243  0.7407
15559TIP3    H168092   2.814   0.812   4.173  0.6044 -0.7596  1.0955
15559TIP3    H268093   2.813   0.950   4.236 -1.0415 -0.2357 -0.0367
15560TIP3   OH268094   2.842   2.692   6.439  0.3675 -0.1453 -0.0578
15560TIP3    H168095   2.933   2.706   6.411  0.3929  1.0833  0.5812
15560TIP3    H268096   2.845   2.702   6.534 -0.2587 -1.2074  0.0862
15561TIP3   OH268097   5.750   5.027   2.871 -0.7737  0.0971 -0.0916
15561TIP3    H168098   5.755   5.068   2.957 -2.4731 -0.8937  0.5250
15561TIP3    H268099   5.771   4.935   2.887  0.8694  0.2419 -1.1110
15562TIP3   OH268100   5.169   4.498   5.208  0.0184 -0.0831 -0.4160
15562TIP3    H168101   5.091   4.553   5.214  0.0283 -0.0860 -0.2665
15562TIP3    H268102   5.201   4.511   5.118 -0.2194 -0.1721 -0.5123
15563TIP3   OH268103   1.421   2.992   3.592 -0.0256 -0.4632  0.0305
15563TIP3    H168104   1.377   2.920   3.547 -0.6069  0.2742 -0.6156
15563TIP3    H268105   1.357   3.024   3.655 -0.1409  0.1125 -0.3694
15564TIP3   OH268106   5.367   2.588  17.202  0.6146  0.8941  0.4871
15564TIP3    H168107   5.279   2.575  17.168  0.9137  1.4122 -0.5186
15564TIP3    H268108   5.354   2.641  17.281 -0.0793 -0.3033  1.2178
15565TIP3   OH268109   6.331   2.782  13.838  0.2720 -0.4566  0.3588
15565TIP3    H168110   6.307   2.768  13.746 -0.0522 -1.3123  0.5688
15565TIP3    H268111   6.262   2.839  13.872  0.6936  0.3236 -0.0646
15566TIP3   OH268112   0.318   2.482   1.001  0.7595 -0.4452  0.3653
15566TIP3    H168113   0.333   2.393   1.033 -0.4035 -1.0251 -0.6273
15566TIP3    H268114   0.306   2.535   1.080  1.6894 -1.1030  0.9700
15567TIP3   OH268115   0.226   6.460  13.183 -0.0987  0.4929  0.3279
15567TIP3    H168116   0.303   6.438  13.130 -0.0515  2.0854 -0.3090
15567TIP3    H268117   0.261   6.513  13.254 -0.4408  0.0706  0.8154
15568TIP3   OH268118   0.977   1.467   0.578  0.0338 -0.0810 -0.2748
15568TIP3    H168119   0.957   1.436   0.666 -3.0213  0.6333 -0.6122
15568TIP3    H268120   0.942   1.400   0.520 -0.0526  0.5514 -0.9612
15569TIP3   OH268121   0.720   1.497   1.626  0.7312 -0.6979  0.0947
15569TIP3    H168122   0.790   1.485   1.562 -0.1813 -1.6117 -0.7642
15569TIP3    H268123   0.713   1.592   1.636 -0.5042 -0.3741 -2.8005
15570TIP3   OH268124   2.063   3.649   0.074 -0.2916 -0.3303  0.1819
15570TIP3    H168125   2.048   3.619  -0.016  1.2158  2.8658 -1.2799
15570TIP3    H268126   2.157   3.644   0.085 -0.3371  0.6059  1.0980
15571TIP3   OH268127   5.166   3.732  13.901  0.8218  0.0307 -0.3799
15571TIP3    H168128   5.217   3.764  13.976  2.0998  0.4321 -1.3939
15571TIP3    H268129   5.154   3.639  13.918  0.5923  0.2242  0.5977
15572TIP3   OH268130   6.761   6.213  14.547  0.0389 -0.8145 -0.3959
15572TIP3    H168131   6.780   6.306  14.534 -2.2227 -0.1911  0.3485
15572TIP3    H268132   6.686   6.196  14.491 -1.1789 -1.5046  1.3523
15573TIP3   OH268133   0.467   3.030  13.742  0.3404 -0.3137 -0.2260
15573TIP3    H168134   0.442   3.014  13.833 -0.4235  1.1909 -0.1442
15573TIP3    H268135   0.428   3.114  13.721  1.2873 -0.2020 -1.6678
15574TIP3   OH268136   0.088   1.404  17.157  0.2683  0.3904 -0.0462
15574TIP3    H168137   0.036   1.484  17.153 -0.9706 -0.4197 -0.7399
15574TIP3    H268138   0.098   1.387  17.251 -1.7945 -0.0903  0.1212
15575TIP3   OH268139   1.230   2.569   5.489 -0.0519 -0.1247 -0.4106
15575TIP3    H168140   1.307   2.626   5.491  0.3083 -0.5873 -0.8698
15575TIP3    H268141   1.261   2.489   5.448 -0.3313 -0.9938  1.0070
15576TIP3   OH268142   5.555   3.195  17.049 -0.4278 -0.2249 -0.5640
15576TIP3    H168143   5.606   3.128  17.094  0.2198  0.7974  0.2809
15576TIP3    H268144   5.481   3.212  17.108 -0.2702  0.2136 -0.4909
15577TIP3   OH268145   0.919   0.436  14.028  0.5408  0.2709 -0.0677
15577TIP3    H168146   0.924   0.405  14.118  1.7116 -0.4662 -0.3586
15577TIP3    H268147   0.848   0.385  13.988 -0.5562  1.2032  0.6376
15578TIP3   OH268148   2.611   1.624  14.929 -0.5601  0.4651 -0.2066
15578TIP3    H168149   2.667   1.656  14.858 -1.9781  1.3601 -0.9681
15578TIP3    H268150   2.552   1.562  14.887 -1.0116  0.5361  0.3143
15579TIP3   OH268151   0.035   1.999   0.064  0.1383 -0.3488 -0.3411
15579TIP3    H168152   0.009   2.037  -0.020  0.2744  2.3279  0.7216
15579TIP3    H268153   0.011   2.065   0.129  2.2039 -1.2710  1.5104
15580TIP3   OH268154   0.569   0.865  14.579  0.1965 -0.8159  0.4780
15580TIP3    H168155   0.573   0.793  14.642 -2.8972 -0.2468  1.4607
15580TIP3    H268156   0.574   0.945  14.632 -0.0360 -0.3047 -0.2410
15581TIP3   OH268157   6.684   2.201  15.349  0.3352 -0.0469  0.8320
15581TIP3    H168158   6.778   2.217  15.343 -0.1388  2.6573 -1.2095
15581TIP3    H268159   6.646   2.248  15.275 -2.6279 -1.3743  1.3385
15582TIP3   OH268160   1.523   0.397   5.974  0.0681  0.0020 -0.0339
15582TIP3    H168161   1.449   0.397   6.034  0.3129  0.3825  0.2685
15582TIP3    H268162   1.580   0.326   6.005 -0.6634 -0.9892 -0.8884
15583TIP3   OH268163   3.410   2.641   5.070 -0.4547 -0.0486  0.5158
15583TIP3    H168164   3.457   2.721   5.051  0.5641 -0.9404 -0.8950
15583TIP3    H268165   3.478   2.577   5.091 -1.0781 -1.0650 -0.4331
15584TIP3   OH268166   1.260   5.216  15.538  0.5405 -0.5283 -0.5346
15584TIP3    H168167   1.252   5.126  15.506 -1.3125 -0.3356 -0.7076
15584TIP3    H268168   1.291   5.206  15.628 -0.6465 -1.4224 -0.1944
15585TIP3   OH268169   4.358   4.583  15.221 -0.1402  0.2341  0.8505
15585TIP3    H168170   4.287   4.529  15.184  2.2717 -2.0979 -0.7879
15585TIP3    H268171   4.384   4.640  15.149  0.4680  0.1821  1.0285
15586TIP3   OH268172   6.211   4.277  16.848  0.2046 -0.3826  0.3299
15586TIP3    H168173   6.169   4.209  16.794 -1.8713 -0.3241  1.7695
15586TIP3    H268174   6.233   4.346  16.785  0.6438 -1.5614 -0.8758
15587TIP3   OH268175   2.269   2.503   4.375  0.3717  0.6281 -0.3316
15587TIP3    H168176   2.207   2.493   4.447 -0.5298  0.5919 -1.0928
15587TIP3    H268177   2.263   2.420   4.327  0.0480  1.1119 -1.1470
15588TIP3   OH268178   1.646   4.888   1.658 -0.5751  0.2632 -0.2174
15588TIP3    H168179   1.646   4.792   1.661  2.0115  0.1853 -0.4664
15588TIP3    H268180   1.631   4.908   1.566 -0.4870  0.0746 -0.2742
15589TIP3   OH268181   3.203   6.567  12.204 -0.5409 -0.2070 -0.3908
15589TIP3    H168182   3.222   6.648  12.251 -0.0216 -0.5543  0.0083
15589TIP3    H268183   3.198   6.500  12.272 -0.3661 -0.6126 -0.7731
15590TIP3   OH268184   1.140   0.509   5.963 -0.5013 -0.4855 -0.1409
15590TIP3    H168185   1.208   0.477   6.022 -0.3432 -0.2723 -0.2043
15590TIP3    H268186   1.133   0.603   5.984  1.3916  0.2074 -2.2136
15591TIP3   OH268187   3.256   4.920  15.640  0.2065  0.2294 -0.2884
15591TIP3    H168188   3.233   4.971  15.562 -1.5817 -0.7172 -0.4178
15591TIP3    H268189   3.295   4.984  15.699 -0.8111  1.4898 -0.9338
15592TIP3   OH268190   1.372   5.377   0.280  0.0962 -0.5193 -0.5713
15592TIP3    H168191   1.298   5.377   0.341 -0.6995 -0.0695 -1.5013
15592TIP3    H268192   1.421   5.456   0.301  1.3937 -1.7429  1.2684
15593TIP3   OH268193   0.043   2.103   6.089  0.2852 -0.6800 -0.4880
15593TIP3    H168194   0.098   2.161   6.142 -1.4808  1.1793 -0.5507
15593TIP3    H268195   0.098   2.081   6.014  1.3384  0.1945 -0.0112
15594TIP3   OH268196   3.900   4.622   0.757 -0.0397  0.0306  0.6772
15594TIP3    H168197   3.808   4.643   0.769 -0.0777 -0.7883  2.0419
15594TIP3    H268198   3.912   4.616   0.662 -1.2032  0.9062  0.4650
15595TIP3   OH268199   3.315   4.751  15.110 -0.3298 -0.2191  0.3444
15595TIP3    H168200   3.274   4.823  15.158  1.0958  2.5916 -2.2705
15595TIP3    H268201   3.264   4.744  15.029  0.4792 -1.0799 -0.1132
15596TIP3   OH268202   0.795   0.727  11.874  0.2217 -0.0645  0.6289
15596TIP3    H168203   0.830   0.645  11.907 -0.3707 -0.3003  0.6795
15596TIP3    H268204   0.700   0.720  11.887 -0.1239 -0.4180 -1.6701
15597TIP3   OH268205   1.625   3.136   3.963  0.1845  0.2773 -0.3717
15597TIP3    H168206   1.643   3.223   3.927  3.1392 -0.3243 -0.5388
15597TIP3    H268207   1.691   3.079   3.923 -2.3751 -2.3689 -1.2015
15598TIP3   OH268208   4.127   5.130  14.802 -0.3825  0.3124 -0.0754
15598TIP3    H168209   4.220   5.111  14.817 -0.5624  0.0669  0.7865
15598TIP3    H268210   4.086   5.043  14.796 -0.2993  0.3652 -2.3701
15599TIP3   OH268211   0.312   3.436   1.817  0.2346 -0.0172 -0.7769
15599TIP3    H168212   0.340   3.509   1.872 -1.1153 -0.8554  1.1420
15599TIP3    H268213   0.372   3.365   1.840 -0.5569 -0.4764 -0.0722
15600TIP3   OH268214   4.543   5.418  14.621  0.0969  0.8445 -0.1401
15600TIP3    H168215   4.599   5.438  14.546  1.6078  0.5613  0.8656
15600TIP3    H268216   4.604   5.393  14.691 -1.3595 -0.8614  0.6004
15601TIP3   OH268217   3.767   1.735  12.223 -0.1878  0.0133  0.0944
15601TIP3    H168218   3.689   1.783  12.252 -0.2385  0.3723 -0.6053
15601TIP3    H268219   3.750   1.714  12.131  0.9976  1.0905 -0.4108
15602TIP3   OH268220   4.831   5.032   3.198 -0.3946  0.0302 -0.5312
15602TIP3    H168221   4.742   5.056   3.223 -0.0634  1.3913 -0.5679
15602TIP3    H268222   4.828   4.937   3.186 -1.6194 -0.0644  0.3328
15603TIP3   OH268223   6.076   1.117   2.710  0.4224 -0.0017  0.4474
15603TIP3    H168224   6.129   1.126   2.631 -0.4481 -0.4115 -0.2008
15603TIP3    H268225   5.997   1.167   2.691  0.4926  0.4745  1.3425
15604TIP3   OH268226   0.442   0.862  13.226 -0.4070  0.4347  0.1816
15604TIP3    H168227   0.371   0.908  13.271  0.7790  3.5201 -0.8348
15604TIP3    H268228   0.419   0.867  13.133 -0.9475 -2.5076  0.0513
15605TIP3   OH268229   4.521   3.627  15.521  0.5491 -0.5540  0.4113
15605TIP3    H168230   4.460   3.556  15.500 -0.4354  0.7693 -1.4623
15605TIP3    H268231   4.607   3.591  15.500 -0.0495 -0.7811 -1.9473
15606TIP3   OH268232   3.526   5.208   5.224  0.4231 -0.4820 -0.2532
15606TIP3    H168233   3.554   5.121   5.195  0.8048  0.4821 -3.1018
15606TIP3    H268234   3.431   5.202   5.232  0.3604 -0.9855 -1.2366
15607TIP3   OH268235   0.419   0.006  11.924  0.4570  0.5625  0.1183
15607TIP3    H168236   0.429   0.084  11.979 -0.9872 -0.1853  1.5366
15607TIP3    H268237   0.338  -0.034  11.955  1.8183 -2.2180  0.3437
15608TIP3   OH268238   3.793   5.117  15.820 -0.2345  0.3577 -0.1748
15608TIP3    H168239   3.862   5.152  15.764  0.6174 -1.6595 -0.4361
15608TIP3    H268240   3.835   5.050  15.872 -1.5364  0.6047  1.2674
15609TIP3   OH268241   2.374   1.341  11.231  0.1947  0.4528  0.2503
15609TIP3    H168242   2.280   1.343  11.211  0.0803  0.8986  0.7875
15609TIP3    H268243   2.407   1.424  11.199  0.2594  0.6104  0.7135
15610TIP3   OH268244   2.670   4.763   5.083  0.4869  0.1507  0.0388
15610TIP3    H168245   2.681   4.857   5.068 -1.4330  0.6279  1.2877
15610TIP3    H268246   2.659   4.726   4.995 -0.5116  1.3715 -0.3888
15611TIP3   OH268247   5.289   6.484  14.417 -0.1439  0.4450 -0.1389
15611TIP3    H168248   5.255   6.571  14.398 -1.7464 -0.2538 -0.6522
15611TIP3    H268249   5.339   6.460  14.339 -1.0271  0.2977 -0.6793
15612TIP3   OH268250   4.772   1.362   3.099  0.5738  0.4903 -0.0316
15612TIP3    H168251   4.762   1.273   3.066 -1.0275  0.7624 -0.3917
15612TIP3    H268252   4.791   1.350   3.192 -1.5388 -0.2718  0.3743
15613TIP3   OH268253   2.958   6.195  17.236 -0.1666  0.7415 -0.3886
15613TIP3    H168254   3.020   6.263  17.209  1.3707 -0.0060  1.1037
15613TIP3    H268255   2.934   6.218  17.325 -0.1678 -0.2769 -0.1155
15614TIP3   OH268256   1.933   1.304  11.972  0.6516  0.2750  0.2637
15614TIP3    H168257   1.967   1.347  12.050 -1.6420 -2.6738  3.1699
15614TIP3    H268258   1.852   1.352  11.952 -0.0291 -0.4196  1.2727
15615TIP3   OH268259   0.811   1.052   0.718  0.2868  0.5026  0.1509
15615TIP3    H168260   0.800   1.096   0.803 -1.0214  1.5994 -0.5411
15615TIP3    H268261   0.866   0.976   0.737 -0.2179  0.5593  2.0340
15616TIP3   OH268262   5.395   1.279  13.082 -0.4133  0.4723  0.1370
15616TIP3    H168263   5.354   1.363  13.105 -0.4454  0.4568  0.1370
15616TIP3    H268264   5.352   1.215  13.139  0.7948  0.6956  1.3526
15617TIP3   OH268265   3.223   4.124   3.185  0.1313 -0.6596  0.7796
15617TIP3    H168266   3.132   4.137   3.213 -0.7595 -0.7555 -1.7686
15617TIP3    H268267   3.221   4.040   3.137  1.0094  0.3796 -1.1956
15618TIP3   OH268268   5.416   6.697   4.294  0.2981 -0.2984 -0.2957
15618TIP3    H168269   5.485   6.638   4.324  0.1526 -0.8301 -0.9923
15618TIP3    H268270   5.419   6.770   4.356  1.7081 -0.1418 -0.5118
15619TIP3   OH268271   5.337   4.089   2.936 -0.1790  0.0007 -0.0004
15619TIP3    H168272   5.318   4.023   3.003  0.2573 -1.9282 -1.6386
15619TIP3    H268273   5.403   4.146   2.975 -0.1873 -0.8521  1.3126
15620TIP3   OH268274   1.778   2.531   0.446 -0.2604 -0.0293  0.2327
15620TIP3    H168275   1.835   2.463   0.411  0.8911  0.0132  1.9490
15620TIP3    H268276   1.758   2.504   0.535 -3.1564 -0.1515 -0.3415
15621TIP3   OH268277   4.789   3.019   2.091  0.3341  0.3552 -0.6812
15621TIP3    H168278   4.816   3.106   2.121  1.3599  0.2031 -1.1015
15621TIP3    H268279   4.815   2.960   2.162  0.7484  0.2589 -0.9071
15622TIP3   OH268280   4.339   3.786  12.433 -0.0468  0.0499  0.5127
15622TIP3    H168281   4.315   3.694  12.445  0.4108  0.0339  1.3918
15622TIP3    H268282   4.417   3.798  12.486  0.1544  0.8457  0.0612
15623TIP3   OH268283   2.125   0.568  17.138 -0.3944  0.0021  0.8097
15623TIP3    H168284   2.148   0.660  17.137  0.8533 -0.2592 -1.2257
15623TIP3    H268285   2.196   0.525  17.185 -0.9810  0.0561  1.7688
15624TIP3   OH268286   2.756   6.113   0.607  0.7463  0.0149  0.3842
15624TIP3    H168287   2.696   6.187   0.619 -1.2114 -1.6834  1.8161
15624TIP3    H268288   2.765   6.104   0.512 -3.0232 -0.8773 -0.0602
15625TIP3   OH268289   5.002   0.787  13.996 -0.3615  0.6538 -0.2427
15625TIP3    H168290   4.993   0.708  13.944 -1.8602  0.5344  0.1812
15625TIP3    H268291   5.076   0.769  14.054  0.2671  0.1610 -1.1718
15626TIP3   OH268292   3.112   4.421  17.218  0.1948  0.2031  0.6947
15626TIP3    H168293   3.188   4.423  17.160 -0.5671 -0.0519 -0.3568
15626TIP3    H268294   3.047   4.371  17.169 -0.4164 -0.1707  1.8691
15627TIP3   OH268295   4.716   3.870  13.436  0.5127  0.3891  0.2210
15627TIP3    H168296   4.809   3.875  13.457  0.0886  0.4626  2.2507
15627TIP3    H268297   4.672   3.878  13.520 -1.4205  2.3269 -0.8889
15628TIP3   OH268298   0.802   3.497  13.520  0.0606 -0.3856  0.6072
15628TIP3    H168299   0.801   3.568  13.584  1.6134  0.4366 -0.2490
15628TIP3    H268300   0.787   3.540  13.436  2.4252 -0.8313 -0.0978
15629TIP3   OH268301   4.460   5.824   1.084 -0.1283  0.2346  0.2345
15629TIP3    H168302   4.440   5.911   1.118 -0.9354  0.3544 -0.5004
15629TIP3    H268303   4.375   5.786   1.065  0.1617 -1.1897  1.6502
15630TIP3   OH268304   4.108   1.544  14.851  0.4553 -0.1024  0.2953
15630TIP3    H168305   4.026   1.520  14.809  0.7113 -0.3267 -0.0844
15630TIP3    H268306   4.176   1.500  14.799  0.7736 -0.4220  0.9671
15631TIP3   OH268307   3.037   6.453  15.984  0.0610  0.2643  0.0930
15631TIP3    H168308   3.082   6.527  15.943  0.6023  0.1935  0.5502
15631TIP3    H268309   2.983   6.492  16.052  2.0115  0.0976  1.8339
15632TIP3   OH268310   3.074   5.247  15.001  0.5619 -1.1898  0.1528
15632TIP3    H168311   3.155   5.288  14.971  0.2951 -1.1673 -0.5489
15632TIP3    H268312   3.064   5.170  14.946 -1.2228  0.1727 -1.5894
15633TIP3   OH268313   4.598   2.008   1.887  0.1893  0.1599 -0.5874
15633TIP3    H168314   4.571   1.957   1.810  0.8522 -0.8390 -0.1709
15633TIP3    H268315   4.530   1.989   1.952  1.2883 -1.5674  0.1275
15634TIP3   OH268316   2.869   6.296  16.557  0.1994  0.2676 -0.5588
15634TIP3    H168317   2.859   6.223  16.495 -0.5492 -0.4814  0.4050
15634TIP3    H268318   2.958   6.286  16.591  1.0197  1.3258 -2.2571
15635TIP3   OH268319   4.987   4.369  11.618 -0.0698 -0.3188 -0.7053
15635TIP3    H168320   5.026   4.442  11.569 -1.9137 -0.3035 -2.2791
15635TIP3    H268321   4.893   4.379  11.604 -0.8106 -0.0562  3.3311
15636TIP3   OH268322   3.068   5.047  11.333 -0.1245 -0.0181  0.0779
15636TIP3    H168323   3.136   4.981  11.349 -0.8008 -0.7519  0.0367
15636TIP3    H268324   2.995   4.997  11.296 -0.4612  0.8529 -0.4505
15637TIP3   OH268325   5.118   4.003   4.978 -0.0915  0.0195 -0.6081
15637TIP3    H168326   5.202   4.006   4.932 -1.2700  2.8296 -2.8243
15637TIP3    H268327   5.135   4.047   5.061  0.8601 -0.4493 -0.5357
15638TIP3   OH268328   4.195   2.088   0.835  0.0705  0.0998 -0.2924
15638TIP3    H168329   4.242   2.170   0.851 -1.4141  0.5833  1.9254
15638TIP3    H268330   4.263   2.021   0.841  1.0926  1.0437 -0.8982
15639TIP3   OH268331   5.618   2.093   2.003  0.0966 -0.1568  0.2612
15639TIP3    H168332   5.683   2.134   1.946  0.4837 -0.7715  0.2492
15639TIP3    H268333   5.540   2.148   1.995  0.3445  0.1044 -0.3798
15640TIP3   OH268334   5.646   4.247  16.694 -0.0498 -0.5935  0.3153
15640TIP3    H168335   5.621   4.191  16.620  0.4711 -0.7770  0.2679
15640TIP3    H268336   5.705   4.192  16.746 -0.0581 -0.3109  0.6281
15641TIP3   OH268337   2.145   4.697   4.708 -0.1510  0.3702  0.0717
15641TIP3    H168338   2.126   4.789   4.724  0.6653  0.2309  2.1160
15641TIP3    H268339   2.059   4.654   4.712 -0.6884  1.1325 -2.0665
15642TIP3   OH268340   6.150   0.586  12.179  0.8283 -0.2388  0.2442
15642TIP3    H168341   6.238   0.579  12.142  1.4755 -2.0286  1.9604
15642TIP3    H268342   6.153   0.533  12.258 -1.8883 -0.5800  0.2154
15643TIP3   OH268343   2.152   5.024  11.585 -0.7352  0.4203 -0.1859
15643TIP3    H168344   2.206   4.945  11.599 -2.1727 -0.2303  2.1525
15643TIP3    H268345   2.182   5.058  11.501  0.7713 -1.9575 -0.7164
15644TIP3   OH268346   2.715   4.071  10.879  0.0397  0.6441 -0.5620
15644TIP3    H168347   2.722   4.156  10.923 -0.8000  0.2512  0.3555
15644TIP3    H268348   2.647   4.024  10.927  0.6962 -0.6724 -0.8693
15645TIP3   OH268349   4.014   0.955  15.336  0.1153  0.0518 -0.5838
15645TIP3    H168350   3.978   1.018  15.274 -1.9164 -0.2662  0.1999
15645TIP3    H268351   3.975   0.871  15.309 -4.1741  0.4090  3.2952
15646TIP3   OH268352   1.960   1.614  14.514  0.4972  0.2468  0.2040
15646TIP3    H168353   1.918   1.532  14.539  0.8590 -0.1600 -0.5115
15646TIP3    H268354   1.916   1.680  14.568  0.0159 -0.3730  0.5891
15647TIP3   OH268355   4.237   3.281  15.927 -0.0576 -0.0441  0.3771
15647TIP3    H168356   4.234   3.211  15.992 -2.4624 -0.5582 -0.2024
15647TIP3    H268357   4.194   3.244  15.850  0.0605  1.5399 -0.4932
15648TIP3   OH268358   0.907   6.433  14.520  0.2368 -0.5054  0.4540
15648TIP3    H168359   0.970   6.445  14.448  1.0567  0.8096  1.3395
15648TIP3    H268360   0.962   6.426  14.598 -0.6787 -0.7610  1.0890
15649TIP3   OH268361   3.384   2.321   5.242 -0.1865  0.7072  0.2467
15649TIP3    H168362   3.324   2.363   5.179 -0.5275 -1.5115 -1.0210
15649TIP3    H268363   3.331   2.253   5.283 -0.2434  2.6413  3.7499
15650TIP3   OH268364   3.872   6.326   2.062  0.2354 -0.7174  0.2423
15650TIP3    H168365   3.778   6.308   2.060  0.0727  0.0410  0.6569
15650TIP3    H268366   3.909   6.255   2.115 -0.0329 -1.2766 -0.3008
15651TIP3   OH268367   0.300   3.099   4.846  0.3399  0.1579  0.5697
15651TIP3    H168368   0.378   3.081   4.795 -0.2573 -0.7417 -0.0542
15651TIP3    H268369   0.280   3.016   4.890  0.4749  0.7386  1.7791
15652TIP3   OH268370   4.523   5.434   4.690 -0.3271  0.4575  0.1642
15652TIP3    H168371   4.588   5.493   4.729 -0.5132  0.0038  1.2063
15652TIP3    H268372   4.491   5.481   4.613  1.4653  0.5630 -0.5744
15653TIP3   OH268373   6.377   1.205  15.919 -0.2113 -0.1542  0.0690
15653TIP3    H168374   6.416   1.191  15.833  0.7176  1.7064  0.1468
15653TIP3    H268375   6.408   1.291  15.946  0.6641 -1.2346  2.8789
15654TIP3   OH268376   5.806   0.855   0.990 -0.0048 -0.3628 -0.8696
15654TIP3    H168377   5.865   0.846   1.065 -0.2892 -0.9633 -0.7108
15654TIP3    H268378   5.792   0.765   0.961 -1.6530 -0.3156 -0.2852
15655TIP3   OH268379   6.280   4.195  12.990  0.0112 -0.1606 -0.2145
15655TIP3    H168380   6.314   4.128  12.931  1.4928 -1.1386  1.6701
15655TIP3    H268381   6.211   4.151  13.040 -0.5828  0.4016 -0.5082
15656TIP3   OH268382   5.732   2.078   3.845 -0.3500 -0.0723  0.0553
15656TIP3    H168383   5.655   2.023   3.829 -0.2094 -0.2401 -0.0348
15656TIP3    H268384   5.791   2.058   3.773 -0.5025  0.5588 -0.2517
15657TIP3   OH268385   6.263   1.493   5.785  0.5585  0.1262 -0.0061
15657TIP3    H168386   6.312   1.429   5.837  2.3043  0.8165 -0.7229
15657TIP3    H268387   6.321   1.515   5.713 -1.4277 -0.0911 -1.7611
15658TIP3   OH268388   4.533   5.104   6.441 -0.1711 -0.4702 -0.1550
15658TIP3    H168389   4.527   5.020   6.395  0.8798 -0.6154 -0.0546
15658TIP3    H268390   4.603   5.090   6.506 -2.0375 -0.5107  1.9910
15659TIP3   OH268391   5.457   4.375   5.220 -0.0968 -0.1573  0.1193
15659TIP3    H168392   5.499   4.448   5.175  1.2134 -0.9141  0.0757
15659TIP3    H268393   5.386   4.415   5.270  0.6755  1.1614  0.1870
15660TIP3   OH268394   3.047   4.080   6.094 -0.4584 -0.1751 -0.3900
15660TIP3    H168395   3.107   4.134   6.146 -0.2502  0.5506 -1.3538
15660TIP3    H268396   3.079   4.087   6.005 -1.4653 -0.4898 -0.7974
15661TIP3   OH268397   0.406   6.566  13.383 -0.0349 -0.2723 -0.0234
15661TIP3    H168398   0.457   6.499  13.429 -0.3096 -1.0685 -0.8443
15661TIP3    H268399   0.466   6.640  13.375  1.4415 -1.5640 -1.9044
15662TIP3   OH268400   4.110   0.211  11.892 -0.0373  0.1760  0.1622
15662TIP3    H168401   4.066   0.266  11.828  0.9645  0.5203 -0.2496
15662TIP3    H268402   4.165   0.271  11.942 -1.0369 -0.0365  1.5859
15663TIP3   OH268403   0.793   6.347   4.442  0.4935  0.0397 -0.4051
15663TIP3    H168404   0.868   6.400   4.471  0.3411  0.5210 -0.8750
15663TIP3    H268405   0.829   6.289   4.375  0.7437 -0.7367  0.3859
15664TIP3   OH268406   3.220   0.830   4.663  0.2358 -0.3330  0.0419
15664TIP3    H168407   3.190   0.803   4.576 -0.3086 -0.9849  0.4220
15664TIP3    H268408   3.238   0.748   4.709  0.1220 -0.0081  0.6785
15665TIP3   OH268409   1.208   1.787   0.805  0.1869  0.1910 -0.2744
15665TIP3    H168410   1.179   1.725   0.873 -0.5038  1.6858  0.8491
15665TIP3    H268411   1.140   1.781   0.737  0.6612 -1.0001 -0.6807
15666TIP3   OH268412   4.818   4.673   1.670  0.2130 -0.6415 -0.1087
15666TIP3    H168413   4.765   4.614   1.724  1.4734 -1.5076  0.2158
15666TIP3    H268414   4.886   4.705   1.729  0.0318  0.5247 -0.4994
15667TIP3   OH268415   2.156   2.578   3.474 -0.2333 -0.0641  0.2022
15667TIP3    H168416   2.244   2.615   3.469 -0.4816  0.6407  0.9760
15667TIP3    H268417   2.102   2.636   3.421 -0.3286 -0.2076  0.1419
15668TIP3   OH268418   1.268   5.280  12.921 -0.5953  0.1529 -0.1003
15668TIP3    H168419   1.244   5.219  12.851 -0.8265  0.7230 -0.5209
15668TIP3    H268420   1.364   5.283  12.918 -0.6408  1.5979 -1.6549
15669TIP3   OH268421   1.765   5.252  10.367 -0.4388 -0.4424  0.1795
15669TIP3    H168422   1.771   5.159  10.390 -1.9802 -0.8993 -1.0193
15669TIP3    H268423   1.806   5.258  10.281 -1.6745 -0.3559 -0.4353
15670TIP3   OH268424   5.718   3.887   6.528 -0.0349  0.5629  0.2188
15670TIP3    H168425   5.792   3.855   6.477 -0.3276 -0.2874  0.3150
15670TIP3    H268426   5.756   3.916   6.611  0.1315 -0.3928  0.4908
15671TIP3   OH268427   5.359   4.060   6.036  0.0961  0.1715  0.4795
15671TIP3    H168428   5.332   4.096   6.120  0.0845 -1.8528  1.4067
15671TIP3    H268429   5.446   4.097   6.021 -1.4251  3.7759 -0.7077
15672TIP3   OH268430   2.099   4.865  14.892 -0.4740  0.2149  0.2919
15672TIP3    H168431   2.078   4.808  14.818  0.1976  0.6845 -0.2722
15672TIP3    H268432   2.017   4.912  14.910 -0.7066 -0.0779  0.0100
15673TIP3   OH268433   4.218   4.609   6.587  0.3820 -0.2990 -0.1209
15673TIP3    H168434   4.303   4.649   6.605  0.1545  1.2429 -2.0214
15673TIP3    H268435   4.215   4.600   6.492 -1.2660 -1.0682 -0.0454
15674TIP3   OH268436   2.424   3.050  17.218 -0.5800  0.2181 -1.2599
15674TIP3    H168437   2.474   3.080  17.143  2.6395 -1.3960  0.0299
15674TIP3    H268438   2.485   3.057  17.292 -2.3370 -1.7241  0.5227
15675TIP3   OH268439   1.535   3.581  12.372  0.4503 -0.1378 -0.1499
15675TIP3    H168440   1.575   3.627  12.446 -0.1449 -1.2923  0.9488
15675TIP3    H268441   1.457   3.633  12.352  1.1454  0.7386 -0.6500
15676TIP3   OH268442   4.221   0.754   5.036 -0.0826  0.0150 -0.3304
15676TIP3    H168443   4.253   0.825   5.091  2.8447  0.9647 -2.9421
15676TIP3    H268444   4.146   0.718   5.084 -1.0173  4.0440  1.6800
15677TIP3   OH268445   2.291   3.652  16.286 -0.8058 -0.4483 -0.2858
15677TIP3    H168446   2.313   3.603  16.207  1.4708 -1.2281  0.7416
15677TIP3    H268447   2.338   3.735  16.277  1.2551 -1.3996  1.1407
15678TIP3   OH268448   1.235   0.663   1.370  0.3987  0.2938 -0.0582
15678TIP3    H168449   1.185   0.742   1.351 -1.0716 -0.6472 -0.2813
15678TIP3    H268450   1.201   0.597   1.309  2.5644 -0.1671 -0.8341
15679TIP3   OH268451   6.520   6.691  11.761 -0.3603  0.0153 -0.0914
15679TIP3    H168452   6.532   6.615  11.705 -1.9000 -0.2191 -0.1326
15679TIP3    H268453   6.595   6.747  11.742  0.4711 -1.2086 -0.5031
15680TIP3   OH268454   3.273   0.928  13.453  0.2040  0.4773  0.4970
15680TIP3    H168455   3.195   0.980  13.472 -0.1696  0.3054 -0.5056
15680TIP3    H268456   3.308   0.965  13.371 -0.0757 -0.8236 -0.2434
15681TIP3   OH268457   4.617   1.975   0.008 -0.4306 -0.3718 -0.4188
15681TIP3    H168458   4.572   1.911  -0.047 -0.5411 -0.9867  0.3738
15681TIP3    H268459   4.670   1.923   0.068 -0.9695  0.2548  0.6214
15682TIP3   OH268460   5.497   1.371   5.282  0.3697 -0.2359 -0.1362
15682TIP3    H168461   5.510   1.297   5.223 -0.9030 -0.6163  0.0496
15682TIP3    H268462   5.566   1.361   5.348 -0.9388 -2.4189  1.0364
15683TIP3   OH268463   5.513   2.285   5.135 -0.1389 -0.1733  0.0288
15683TIP3    H168464   5.520   2.294   5.040 -1.6208  0.2244 -0.0634
15683TIP3    H268465   5.533   2.193   5.151  0.9265 -0.0628 -0.5688
15684TIP3   OH268466   2.580   0.723  11.844  0.2483 -0.1915  0.1798
15684TIP3    H168467   2.598   0.776  11.921 -2.9547  2.4116 -0.6448
15684TIP3    H268468   2.571   0.634  11.878 -1.5829  0.9259  2.9650
15685TIP3   OH268469   1.436   5.583   4.705  0.0326 -0.1938  0.3025
15685TIP3    H168470   1.394   5.665   4.678  2.1565  1.3848  1.5402
15685TIP3    H268471   1.434   5.585   4.800 -1.8289 -2.7220  0.4223
15686TIP3   OH268472   4.632   0.521   3.766  0.3540  0.1869 -0.5468
15686TIP3    H168473   4.552   0.567   3.741  0.3617 -0.0972 -1.1176
15686TIP3    H268474   4.624   0.436   3.724 -0.2097 -0.8057  1.4517
15687TIP3   OH268475   6.328   6.586  13.407 -0.4101 -0.3258 -0.1748
15687TIP3    H168476   6.269   6.588  13.332  0.7661 -0.9772 -1.1623
15687TIP3    H268477   6.413   6.614  13.372  0.6418 -2.5282  0.4137
15688TIP3   OH268478   6.255   6.300  13.593  0.2398 -0.7100  0.3564
15688TIP3    H168479   6.273   6.357  13.668 -0.4583 -1.3635  1.0561
15688TIP3    H268480   6.312   6.332  13.524  0.8678 -0.0422  1.1523
15689TIP3   OH268481   3.871   1.456  11.147 -0.2048  0.0532  0.1737
15689TIP3    H168482   3.870   1.538  11.096 -0.9451  0.4100  0.7517
15689TIP3    H268483   3.821   1.394  11.094 -4.1951  1.4004  1.9768
15690TIP3   OH268484   1.280   3.066  14.395 -0.6866 -0.0378  0.5404
15690TIP3    H168485   1.290   3.131  14.464  1.5090 -1.6830  1.9223
15690TIP3    H268486   1.327   3.104  14.320 -1.7478  1.0893  0.4189
15691TIP3   OH268487   4.728   5.862   3.455  0.5988 -0.1127  0.1460
15691TIP3    H168488   4.700   5.898   3.540 -0.2851 -1.4403  0.4514
15691TIP3    H268489   4.650   5.816   3.423  1.4148 -0.9577 -0.6404
15692TIP3   OH268490   0.738   0.513   5.436  0.2543  0.7964  0.5805
15692TIP3    H168491   0.673   0.478   5.376  0.0199  1.0796  0.6643
15692TIP3    H268492   0.730   0.608   5.427  2.5900  0.8791 -1.4768
15693TIP3   OH268493   0.155   2.413  14.897 -0.3320  0.0818 -0.1618
15693TIP3    H168494   0.243   2.422  14.933  0.0628  1.3617 -1.3700
15693TIP3    H268495   0.149   2.321  14.870 -0.4836 -0.8109  2.6373
15694TIP3   OH268496   4.628   6.001  13.979  0.3618  0.4735  0.2396
15694TIP3    H168497   4.619   6.088  13.939  0.3044  0.8168  0.9888
15694TIP3    H268498   4.666   5.947  13.909 -0.8141  0.7672 -0.6558
15695TIP3   OH268499   2.817   6.458   5.486  0.2843  0.2671 -0.2202
15695TIP3    H168500   2.821   6.540   5.536 -0.8100 -0.1009  0.5052
15695TIP3    H268501   2.760   6.479   5.411 -0.3147  0.0771  0.1741
15696TIP3   OH268502   4.739   2.235   0.051 -0.0251  0.0231  0.0734
15696TIP3    H168503   4.826   2.198   0.069 -0.5052 -0.7329  0.9194
15696TIP3    H268504   4.702   2.178  -0.017  0.5316  0.9783 -1.0743
15697TIP3   OH268505   3.567   3.120  13.615 -0.4561  0.3486  0.1323
15697TIP3    H168506   3.538   3.105  13.704  0.0602  0.0280  0.2535
15697TIP3    H268507   3.548   3.212  13.598  0.3730  0.6845  0.9291
15698TIP3   OH268508   1.623   1.711  14.365 -0.3206 -0.1731 -0.6779
15698TIP3    H168509   1.694   1.670  14.316 -0.4844  0.1973 -1.2230
15698TIP3    H268510   1.649   1.701  14.457  1.3832  1.6223 -0.9094
15699TIP3   OH268511   5.030   3.813   1.027 -0.0897  0.2972 -0.1991
15699TIP3    H168512   5.121   3.788   1.045 -0.3561 -0.2636  0.3983
15699TIP3    H268513   5.031   3.909   1.027  0.2586  0.3123  1.0690
15700TIP3   OH268514   3.319   6.614  13.668 -0.3742  0.5570 -0.3560
15700TIP3    H168515   3.297   6.620  13.575 -0.2893 -1.0716 -0.5091
15700TIP3    H268516   3.319   6.520  13.686 -1.1869  0.8708  1.4802
15701TIP3   OH268517   3.905   3.571  13.373 -0.2161  0.1464  0.1187
15701TIP3    H168518   3.818   3.532  13.368  0.1581 -0.5360 -1.6977
15701TIP3    H268519   3.890   3.658  13.409 -1.5309 -0.2791  0.6689
15702TIP3   OH268520   0.996   1.754   3.074  0.2705 -0.2289 -0.1730
15702TIP3    H168521   1.046   1.748   3.156  0.5458 -0.0759 -0.3317
15702TIP3    H268522   1.039   1.824   3.024  0.0401 -0.2536 -0.4060
15703TIP3   OH268523   4.682   5.088   5.979  0.5036 -0.0629 -0.1977
15703TIP3    H168524   4.599   5.054   5.947  1.2066 -1.5802 -0.5210
15703TIP3    H268525   4.710   5.023   6.044  1.1987  0.7017  0.2918
15704TIP3   OH268526   5.635   4.325  14.600 -0.6774  0.0222  0.4281
15704TIP3    H168527   5.678   4.250  14.559  0.5763  1.0861 -0.2710
15704TIP3    H268528   5.586   4.287  14.674 -2.2291 -1.8160 -1.4168
15705TIP3   OH268529   3.234   5.992   3.917 -0.1753  0.6843 -0.6227
15705TIP3    H168530   3.257   5.945   3.837  2.7665 -0.5402  0.7722
15705TIP3    H268531   3.266   5.936   3.987  0.1167  3.1055  1.3120
15706TIP3   OH268532   4.093   3.284   2.057  0.5899 -0.2312  0.0622
15706TIP3    H168533   4.022   3.337   2.020  0.2161 -1.4994 -1.1342
15706TIP3    H268534   4.058   3.250   2.139  0.4859  0.5900  0.3678
15707TIP3   OH268535   6.222   6.305  15.029  0.2180 -0.0676 -0.3778
15707TIP3    H168536   6.207   6.388  14.982 -0.3150  0.2941  0.4127
15707TIP3    H268537   6.134   6.273  15.048  0.3866  0.7057  1.9491
15708TIP3   OH268538   1.865   0.874   1.692  0.4475 -0.0411  0.0436
15708TIP3    H168539   1.929   0.894   1.623 -0.7711  0.0205 -1.1156
15708TIP3    H268540   1.782   0.868   1.646 -0.2805 -0.8760  1.4049
15709TIP3   OH268541   5.766   4.686   1.117 -0.2619  0.1719  0.2781
15709TIP3    H168542   5.803   4.606   1.080  1.2577  1.5437 -1.3634
15709TIP3    H268543   5.792   4.684   1.209 -0.7518 -1.4467  0.4231
15710TIP3   OH268544   1.739   3.667   1.384 -0.0137  0.2464  0.9462
15710TIP3    H168545   1.772   3.751   1.353  1.8932 -0.2285  1.5335
15710TIP3    H268546   1.762   3.605   1.315  2.0974 -0.4015  2.1322
15711TIP3   OH268547   6.630   6.360  10.746  0.4791 -0.4312  0.0994
15711TIP3    H168548   6.593   6.277  10.714  0.7685 -0.3146 -0.5540
15711TIP3    H268549   6.564   6.426  10.723  1.1842 -0.1783 -1.3407
15712TIP3   OH268550   0.776   6.345  12.940  0.1195 -0.1761 -0.7354
15712TIP3    H168551   0.711   6.301  12.886 -1.2252 -1.7265  1.9334
15712TIP3    H268552   0.805   6.278  13.002  0.6412  1.7683  1.2590
15713TIP3   OH268553   5.847   1.008  15.729  0.5657  0.0352 -0.5787
15713TIP3    H168554   5.904   0.936  15.703 -1.7527 -2.6907  1.2949
15713TIP3    H268555   5.770   1.000  15.673  0.5001  1.5011 -0.7569
15714TIP3   OH268556   5.436   3.419   1.131  0.3101  0.7311  0.5168
15714TIP3    H168557   5.395   3.353   1.187  0.1870  0.4916  0.1474
15714TIP3    H268558   5.526   3.425   1.163  0.5298 -0.1442  0.0874
15715TIP3   OH268559   3.984   4.576   2.922  0.3543 -0.2537  0.0150
15715TIP3    H168560   4.010   4.544   2.835 -0.2301  0.2758 -0.3719
15715TIP3    H268561   4.064   4.576   2.973  0.5352 -1.5115 -0.2208
15716TIP3   OH268562   4.561   2.795  15.573 -0.7110  0.5932 -0.0439
15716TIP3    H168563   4.519   2.758  15.651 -0.2672  0.5876  0.1958
15716TIP3    H268564   4.618   2.864  15.607  2.9937 -2.2425  0.2279
15717TIP3   OH268565   3.084   2.754  14.927 -0.4501  0.4146 -0.3491
15717TIP3    H168566   3.129   2.691  14.982  1.1133  2.0417  0.3584
15717TIP3    H268567   3.149   2.824  14.913 -1.4531  1.0076 -2.6194
15718TIP3   OH268568   3.575   1.460   2.177  0.0672 -0.0545  0.2106
15718TIP3    H168569   3.505   1.525   2.173 -1.4099 -1.6416 -3.1055
15718TIP3    H268570   3.655   1.511   2.189 -1.4232  1.8673  3.3880
15719TIP3   OH268571   1.292   5.445  11.865 -0.1571  0.2628 -0.5481
15719TIP3    H168572   1.252   5.370  11.821  0.1492  0.8813 -1.9685
15719TIP3    H268573   1.375   5.412  11.898  0.0857  0.0172 -1.3742
15720TIP3   OH268574   5.972   5.688  15.853 -0.0482  0.2825  0.2016
15720TIP3    H168575   5.923   5.636  15.918  2.5821 -1.9007  0.6714
15720TIP3    H268576   6.004   5.763  15.903  0.1543 -0.2547  0.9196
15721TIP3   OH268577   5.839   0.341   2.615 -0.4259 -0.7903  0.0467
15721TIP3    H168578   5.927   0.301   2.614 -0.6081 -1.2989 -2.3946
15721TIP3    H268579   5.783   0.275   2.656  0.3356 -0.3367  1.9148
15722TIP3   OH268580   2.989   6.485  11.270  0.0421 -0.1417  0.6258
15722TIP3    H168581   3.070   6.483  11.323 -0.1827  2.5054  1.2375
15722TIP3    H268582   2.992   6.404  11.219  2.5633 -0.6407  1.3801
15723TIP3   OH268583   5.832   0.975   3.545 -0.1576 -0.3781  0.3972
15723TIP3    H168584   5.843   0.913   3.618  0.2283  0.8183  1.4022
15723TIP3    H268585   5.800   1.055   3.587  2.6737  1.2484 -0.3118
15724TIP3   OH268586   0.705   5.840  16.322  0.0757 -0.3535  0.0842
15724TIP3    H168587   0.641   5.801  16.262 -0.4927 -0.6045  0.8434
15724TIP3    H268588   0.787   5.798  16.300 -0.1135 -0.3973 -0.5611
15725TIP3   OH268589   3.935   1.104  12.744  0.6186  0.2011  0.7667
15725TIP3    H168590   3.943   1.120  12.650 -0.1812 -3.1697  0.0083
15725TIP3    H268591   4.025   1.097  12.775  0.8939 -0.7508 -0.2016
15726TIP3   OH268592   2.090   1.472   5.842  0.4852  0.3071 -0.4360
15726TIP3    H168593   2.097   1.551   5.789  1.9775  0.9744  0.6775
15726TIP3    H268594   2.144   1.490   5.919  1.0407 -1.8728 -0.2492
15727TIP3   OH268595   0.455   0.275  13.162  0.7690  0.4449  0.6483
15727TIP3    H168596   0.423   0.248  13.076  0.7694  0.6553  0.5822
15727TIP3    H268597   0.490   0.195  13.201  2.0532  0.6123 -0.1074
15728TIP3   OH268598   5.505   3.688   5.345 -0.2173 -0.2213 -0.6289
15728TIP3    H168599   5.503   3.773   5.389  1.1925 -0.3014 -0.3924
15728TIP3    H268600   5.413   3.661   5.343 -0.4517  0.2647  1.3183
15729TIP3   OH268601   6.782   3.009  13.937 -0.1386 -0.3263  0.1379
15729TIP3    H168602   6.769   2.948  14.009  1.0706  0.4686  1.0821
15729TIP3    H268603   6.827   3.084  13.977  0.0367  0.3939 -1.3268
15730TIP3   OH268604   3.209   0.800  13.039 -0.5634 -0.3977  0.2200
15730TIP3    H168605   3.193   0.715  12.999 -0.2802  0.7362 -2.5179
15730TIP3    H268606   3.291   0.788  13.088  1.1094 -1.0678 -2.4849
15731TIP3   OH268607   6.663   5.824  12.462  0.0644  0.2792  0.5564
15731TIP3    H168608   6.611   5.760  12.414 -0.4672  2.1181 -1.4607
15731TIP3    H268609   6.626   5.823  12.551 -1.4077 -0.5959 -0.0353
15732TIP3   OH268610   3.035   2.947  11.526 -0.0627 -0.1422  0.0149
15732TIP3    H168611   3.024   2.855  11.504 -1.0761 -0.6233  2.3184
15732TIP3    H268612   2.948   2.985  11.513  0.5470  0.7562 -1.8136
15733TIP3   OH268613   5.615   4.037  17.242  0.0453 -0.4624  0.5528
15733TIP3    H168614   5.622   4.068  17.333 -0.9675 -0.2705  0.5860
15733TIP3    H268615   5.609   3.942  17.250 -1.6018 -0.3733  0.8400
15734TIP3   OH268616   5.962   1.176  14.174  0.3273 -0.0393 -0.3409
15734TIP3    H168617   5.908   1.177  14.095 -0.8630  1.1843  0.4406
15734TIP3    H268618   5.899   1.184  14.246  1.4627  0.1114  0.6665
15735TIP3   OH268619   3.546   2.493   0.393 -0.1840 -0.0915 -0.6492
15735TIP3    H168620   3.599   2.427   0.438 -1.7583 -1.0360 -0.1093
15735TIP3    H268621   3.610   2.551   0.352  1.2847 -0.2769  1.2572
15736TIP3   OH268622   1.034   6.284   5.387  0.3357 -0.2846  0.3415
15736TIP3    H168623   1.111   6.274   5.331 -0.2252 -0.1080 -0.4856
15736TIP3    H268624   1.029   6.378   5.405  0.9740 -0.4412  1.3655
15737TIP3   OH268625   6.461   2.481   1.948 -0.1722  0.1903  0.3398
15737TIP3    H168626   6.463   2.466   2.042  0.6173 -0.8168  0.1768
15737TIP3    H268627   6.539   2.437   1.914  1.5187  3.4302 -0.4201
15738TIP3   OH268628   5.384   1.881   1.127 -0.5435 -0.4075  0.0300
15738TIP3    H168629   5.373   1.810   1.063  2.3219 -1.0818  0.1718
15738TIP3    H268630   5.375   1.961   1.075  0.7278 -0.9368 -1.0460
15739TIP3   OH268631   6.801   1.109  16.356 -0.1529  0.0453  0.0923
15739TIP3    H168632   6.775   1.196  16.326 -1.5944 -0.0972  0.8744
15739TIP3    H268633   6.772   1.105  16.447  1.3967 -0.6606  0.5968
15740TIP3   OH268634   6.197   5.348  15.547 -0.4868 -0.5763  0.3232
15740TIP3    H168635   6.239   5.315  15.467  1.1434  1.6433  0.1773
15740TIP3    H268636   6.116   5.390  15.515  0.4484  0.8298 -0.3078
15741TIP3   OH268637   5.630   5.284  13.162  0.7148 -0.3139 -0.6792
15741TIP3    H168638   5.554   5.227  13.177  0.0603  0.4949 -0.8753
15741TIP3    H268639   5.664   5.256  13.076 -0.3509  0.4012 -1.3572
15742TIP3   OH268640   0.905   5.602  14.197  1.1378 -0.0922 -0.3896
15742TIP3    H168641   0.816   5.581  14.224  1.2447  0.5458  0.5239
15742TIP3    H268642   0.920   5.550  14.118  0.2729 -0.8731 -0.0495
15743TIP3   OH268643   6.202   2.779   0.152 -0.2978  0.7397 -0.2407
15743TIP3    H168644   6.263   2.792   0.079  0.2807  0.9600  0.2754
15743TIP3    H268645   6.253   2.735   0.219 -1.4091 -1.4932 -0.7678
15744TIP3   OH268646   6.705   6.596  13.884  0.1970  0.2737 -0.5322
15744TIP3    H168647   6.701   6.663  13.816  0.4540  1.6122  0.7278
15744TIP3    H268648   6.743   6.641  13.960  0.4189 -1.3152  0.3413
15745TIP3   OH268649   0.580   1.838  16.827  0.4437  0.0287 -0.5652
15745TIP3    H168650   0.579   1.932  16.843 -0.7988 -0.2220  1.1626
15745TIP3    H268651   0.490   1.816  16.805  1.1529 -0.4665 -3.3223
15746TIP3   OH268652   5.911   3.873  13.845  0.5512 -0.5109  0.1821
15746TIP3    H168653   5.960   3.819  13.908 -0.3609 -1.3580  0.1938
15746TIP3    H268654   5.870   3.810  13.786  1.8508  0.2908 -1.6554
15747TIP3   OH268655   0.249   2.010  13.880 -0.1668  0.0844 -0.2873
15747TIP3    H168656   0.320   2.016  13.944  1.8602  2.3924 -2.5241
15747TIP3    H268657   0.252   1.920  13.850  0.0634 -0.5415  1.4921
15748TIP3   OH268658   5.680   1.830  12.078 -0.2246 -0.4262  0.4937
15748TIP3    H168659   5.591   1.805  12.052 -0.1025 -0.5441  0.1748
15748TIP3    H268660   5.686   1.807  12.170 -1.3951  1.9671  1.2583
15749TIP3   OH268661   5.695   4.062  13.879  0.0539 -0.5616  0.2552
15749TIP3    H168662   5.755   3.994  13.908  0.1098  0.1197  1.8395
15749TIP3    H268663   5.637   4.077  13.954 -0.7234  0.2847 -0.4866
15750TIP3   OH268664   0.278   6.392  17.040  0.2481 -0.2335 -0.3894
15750TIP3    H168665   0.237   6.400  17.126  0.5717 -0.7510 -0.1832
15750TIP3    H268666   0.204   6.379  16.980  0.0536 -0.3361 -0.1300
15751TIP3   OH268667   3.151   6.669  17.016  0.2877  0.0312  0.0321
15751TIP3    H168668   3.164   6.675  16.922 -0.6046 -0.3118 -0.1133
15751TIP3    H268669   3.110   6.752  17.040  0.3336  0.0369  0.0927
15752TIP3   OH268670   5.012   5.628  13.277  0.0816 -0.0802 -0.7634
15752TIP3    H168671   5.049   5.553  13.323 -0.1265  0.3433  0.1147
15752TIP3    H268672   4.957   5.672  13.342 -0.4296  0.3936 -1.4874
15753TIP3   OH268673   6.205   2.695  13.594 -0.3492 -0.3770  0.2724
15753TIP3    H168674   6.246   2.627  13.540 -1.3079 -0.9190  0.2126
15753TIP3    H268675   6.152   2.746  13.533  0.9372  0.9220  0.1794
15754TIP3   OH268676   2.822   4.832  13.421 -0.7403 -0.1320  0.0449
15754TIP3    H168677   2.844   4.744  13.391 -0.8225 -0.0827 -0.1619
15754TIP3    H268678   2.727   4.838  13.412 -0.8835 -0.4284  1.1554
15755TIP3   OH268679   3.963   3.308  12.205  0.2272 -0.3317 -0.2395
15755TIP3    H168680   3.977   3.398  12.175  0.8747 -0.7324 -1.1890
15755TIP3    H268681   4.034   3.292  12.267 -0.4686  0.1262  0.7065
15756TIP3   OH268682   5.880   2.829  14.136 -0.3591  0.5389 -0.2182
15756TIP3    H168683   5.920   2.916  14.146  2.0652 -0.7090  2.3166
15756TIP3    H268684   5.857   2.804  14.225  0.0968 -1.8742 -0.7230
15757TIP3   OH268685   0.929   1.196  10.984 -0.0666 -0.4606 -0.3222
15757TIP3    H168686   0.958   1.114  11.023 -1.5313 -0.9669 -0.2517
15757TIP3    H268687   1.010   1.244  10.967  0.7278 -1.1346  1.3173
15758TIP3   OH268688   1.753   0.216  15.647 -0.4131  0.2867 -0.2634
15758TIP3    H168689   1.807   0.181  15.718  2.2201  1.0510 -1.7416
15758TIP3    H268690   1.712   0.294  15.684 -0.5021 -0.3031  0.9180
15759TIP3   OH268691   5.075   2.034   2.419  0.2899  0.2353 -0.0356
15759TIP3    H168692   5.048   2.037   2.511 -0.5465  0.4899 -0.2825
15759TIP3    H268693   5.037   1.953   2.386  0.8601 -0.0172 -0.0794
15760TIP3   OH268694   1.238   0.812  16.584  0.4100 -0.2536 -0.1065
15760TIP3    H168695   1.187   0.760  16.521  0.4593 -0.2606 -0.1402
15760TIP3    H268696   1.173   0.841  16.648  0.4588 -0.7193  0.1554
15761TIP3   OH268697   3.483   0.331   1.909  0.0439 -0.1060  0.1797
15761TIP3    H168698   3.478   0.315   1.814  0.0059  1.5822 -0.1403
15761TIP3    H268699   3.493   0.244   1.947  0.4373 -0.8050 -1.4029
15762TIP3   OH268700   4.772   0.352   4.373  0.0755 -0.0535  0.1013
15762TIP3    H168701   4.796   0.372   4.283  0.7416 -0.5064  0.1711
15762TIP3    H268702   4.825   0.275   4.396 -0.2609 -0.0900  0.7981
15763TIP3   OH268703   4.379   2.359  16.906 -0.2065 -0.0156 -0.5258
15763TIP3    H168704   4.432   2.439  16.904  1.4154 -1.0004  0.1733
15763TIP3    H268705   4.328   2.367  16.987  2.6807 -1.2270  1.5836
15764TIP3   OH268706   2.026   6.781  12.229 -0.6058 -0.4232 -0.1242
15764TIP3    H168707   1.957   6.844  12.245  0.1963  0.7146 -0.9274
15764TIP3    H268708   2.105   6.823  12.263 -0.1297 -1.1954 -0.2549
15765TIP3   OH268709   2.656   5.664  14.839 -0.5651  0.2362  0.5111
15765TIP3    H168710   2.639   5.756  14.822  0.3409  0.1520 -1.0804
15765TIP3    H268711   2.585   5.617  14.795 -0.8524  0.1639  1.0509
15766TIP3   OH268712   0.495   5.473   4.397  0.3969 -1.6657 -0.3361
15766TIP3    H168713   0.545   5.533   4.452  1.5042 -1.9092 -1.0530
15766TIP3    H268714   0.542   5.471   4.314 -0.6603 -2.1111 -0.9536
15767TIP3   OH268715   6.036   1.096   6.078  0.5614 -0.0404  0.6346
15767TIP3    H168716   6.102   1.155   6.043  2.0570 -1.4822  0.8740
15767TIP3    H268717   6.009   1.135   6.161  1.1456  0.5599  0.5451
15768TIP3   OH268718   4.055   1.688   2.384 -0.8066  0.2939  0.1543
15768TIP3    H168719   4.103   1.609   2.361  0.2932  0.2176  2.4109
15768TIP3    H268720   4.033   1.728   2.300 -0.5436 -1.8811 -1.0193
15769TIP3   OH268721   0.225   0.369  11.909  0.3477  0.3995 -0.4584
15769TIP3    H168722   0.264   0.455  11.896 -0.0387  0.4683 -1.2554
15769TIP3    H268723   0.281   0.309  11.860  0.7197  0.1622  0.2444
15770TIP3   OH268724   4.918   4.682   3.679 -0.0337  0.4696 -0.0029
15770TIP3    H168725   4.906   4.696   3.773  1.0451  1.7909 -0.0259
15770TIP3    H268726   4.975   4.605   3.673  0.5599  0.8538  0.4826
15771TIP3   OH268727   3.365   4.873  11.470 -0.1264 -0.2095  0.1078
15771TIP3    H168728   3.407   4.819  11.403  1.5054  0.6694  0.3376
15771TIP3    H268729   3.438   4.902  11.525 -0.7058  3.0299 -0.6203
15772TIP3   OH268730   0.000   6.009   3.098 -0.4719 -0.1237  0.3889
15772TIP3    H168731   0.012   5.978   3.008 -0.7236  0.3071  0.2065
15772TIP3    H268732  -0.059   6.084   3.090 -0.4407 -0.0426  0.9054
15773TIP3   OH268733   3.231   3.465   1.422 -0.3559  0.3321 -0.4445
15773TIP3    H168734   3.231   3.429   1.334  2.3340 -3.4337  0.8445
15773TIP3    H268735   3.153   3.427   1.464 -0.7187  0.8012 -0.6746
15774TIP3   OH268736   0.065   1.009  15.192 -0.5187  0.3899 -0.1535
15774TIP3    H168737   0.005   1.060  15.246 -0.3465 -0.9792  1.4377
15774TIP3    H268738   0.151   1.025  15.230 -0.5386 -1.5372  0.8622
15775TIP3   OH268739   2.578   4.864  13.322  0.8992 -0.3799  0.1835
15775TIP3    H168740   2.627   4.936  13.283  0.9578 -1.7748 -2.5392
15775TIP3    H268741   2.486   4.887  13.310  0.8978  0.0091  0.8922
15776TIP3   OH268742   0.649   0.324   4.328  0.2416  0.2815  0.1321
15776TIP3    H168743   0.657   0.399   4.386 -0.4966 -0.1583  0.8243
15776TIP3    H268744   0.646   0.248   4.387  1.0885 -0.3094 -0.5529
15777TIP3   OH268745   0.611   0.211  12.423 -0.2934  0.2599 -0.4432
15777TIP3    H168746   0.620   0.287  12.481  0.4698 -0.4491  0.3918
15777TIP3    H268747   0.517   0.192  12.422 -0.3434  0.4680  0.3147
15778TIP3   OH268748   2.530   1.384   3.256 -0.0914 -0.1768  0.0827
15778TIP3    H168749   2.497   1.420   3.173 -2.3147 -0.6205  0.7054
15778TIP3    H268750   2.597   1.446   3.284  0.8669 -0.1153 -2.1256
15779TIP3   OH268751   5.169   2.280   3.761  0.0952  0.1587 -0.1746
15779TIP3    H168752   5.254   2.251   3.728 -0.3164 -1.1983 -0.0909
15779TIP3    H268753   5.130   2.202   3.799  0.3220  1.5092  3.1680
15780TIP3   OH268754   6.051   6.051   2.283 -0.4329 -0.4104  0.5699
15780TIP3    H168755   6.046   6.145   2.266 -0.1923 -0.4394  0.3311
15780TIP3    H268756   6.109   6.017   2.214 -0.5293 -0.7344  0.6471
15781TIP3   OH268757   6.136   5.830   3.903  0.0718 -0.6521  0.4361
15781TIP3    H168758   6.223   5.851   3.869 -0.3380 -0.0566 -0.2608
15781TIP3    H268759   6.125   5.888   3.978  0.1572 -0.5293  0.3537
15782TIP3   OH268760   6.113   0.260  11.956  0.6702  0.2712  0.3599
15782TIP3    H168761   6.101   0.344  11.911  2.5772 -0.2051 -1.1955
15782TIP3    H268762   6.035   0.209  11.932  1.1543  0.4008 -1.6706
15783TIP3   OH268763   5.129   1.690   3.545 -0.5966  0.0482 -0.2734
15783TIP3    H168764   5.199   1.691   3.610  0.4758 -1.4137 -1.3368
15783TIP3    H268765   5.099   1.780   3.541  1.1174  0.6864  0.3431
15784TIP3   OH268766   4.373   3.403  15.437 -0.0637  0.7889 -0.2972
15784TIP3    H168767   4.400   3.322  15.394 -0.3913  0.4399  0.1389
15784TIP3    H268768   4.324   3.451  15.370 -3.0438 -1.0042  0.3981
15785TIP3   OH268769   5.072   5.548   4.624 -0.1316 -0.2769  0.1382
15785TIP3    H168770   5.037   5.602   4.553  0.0699 -0.7315 -0.3190
15785TIP3    H268771   5.081   5.608   4.698  0.2039  0.3442 -0.3911
15786TIP3   OH268772   5.068   5.586  15.760 -0.0149 -0.0078  0.2752
15786TIP3    H168773   5.041   5.524  15.828  1.5541  0.4952  1.4008
15786TIP3    H268774   4.999   5.653  15.761 -0.3098 -0.3064  0.9754
15787TIP3   OH268775   3.647   5.446   4.863  0.2315 -0.3514 -0.0731
15787TIP3    H168776   3.633   5.537   4.836 -0.0172 -0.6448 -0.9637
15787TIP3    H268777   3.560   5.405   4.857  0.0884 -0.3376  1.5717
15788TIP3   OH268778   5.701   2.134  13.868 -0.1610  0.1877  0.1352
15788TIP3    H168779   5.706   2.151  13.774  0.1069  0.8374  0.2596
15788TIP3    H268780   5.648   2.055  13.876  2.9767 -2.1974 -0.7980
15789TIP3   OH268781   0.245   4.545   3.818  0.0477  0.1035 -0.0174
15789TIP3    H168782   0.197   4.508   3.744  1.3708 -0.5757 -0.5684
15789TIP3    H268783   0.177   4.581   3.875 -1.0685 -0.3480 -1.0216
15790TIP3   OH268784   1.363   2.927   0.325  0.3329  0.3305 -0.0017
15790TIP3    H168785   1.295   2.861   0.324  0.4724  0.1925 -1.2316
15790TIP3    H268786   1.426   2.895   0.390 -0.1301 -0.1799  0.2068
15791TIP3   OH268787   4.502   5.185  12.702 -0.0765 -0.2392 -0.3680
15791TIP3    H168788   4.500   5.106  12.756 -0.0667 -0.4700 -0.7004
15791TIP3    H268789   4.589   5.222  12.717 -0.4837  0.3371  0.6706
15792TIP3   OH268790   0.338   0.516   1.511 -0.6857 -0.7806  0.0506
15792TIP3    H168791   0.300   0.542   1.427 -0.6965 -1.0159 -0.0196
15792TIP3    H268792   0.420   0.473   1.487 -0.7026 -0.8741  0.1593
15793TIP3   OH268793   2.333   1.577   5.946 -0.1250 -0.3460  1.3698
15793TIP3    H168794   2.372   1.637   5.882 -2.5815 -1.8443 -1.7748
15793TIP3    H268795   2.408   1.544   5.996  2.1407  0.1851 -1.3914
15794TIP3   OH268796   1.922   6.065  16.474  0.7336  0.4214 -0.3854
15794TIP3    H168797   1.923   5.983  16.524  0.3227  0.4762 -0.2813
15794TIP3    H268798   1.860   6.050  16.403 -1.1479  1.3963  0.9687
15795TIP3   OH268799   1.219   5.034  11.968 -0.8471 -0.4680 -0.0469
15795TIP3    H168800   1.250   4.969  12.033 -0.0681 -0.8662 -0.7975
15795TIP3    H268801   1.268   5.013  11.889  0.3005  1.7770  0.0011
15796TIP3   OH268802   5.973   6.630  15.268 -0.0635  0.0028 -0.2150
15796TIP3    H168803   5.913   6.576  15.216 -0.1415  0.4548 -0.6030
15796TIP3    H268804   5.978   6.713  15.220 -1.2745  0.9835  1.2664
15797TIP3   OH268805   4.467   2.033   6.101 -0.2137  0.9319 -0.7811
15797TIP3    H168806   4.399   1.988   6.050  0.0495 -0.2755 -0.1234
15797TIP3    H268807   4.549   2.010   6.057  0.0219 -0.1778  0.1602
15798TIP3   OH268808   4.021   2.391  14.785 -0.0938 -0.4361  0.4390
15798TIP3    H168809   4.074   2.312  14.773  0.4614  0.0170 -0.2180
15798TIP3    H268810   4.082   2.454  14.824 -0.3547 -0.1334  0.3606
15799TIP3   OH268811   5.209   4.174  14.614 -0.3175 -0.4657 -0.8624
15799TIP3    H168812   5.143   4.105  14.622  0.8675 -1.4669  1.1741
15799TIP3    H268813   5.210   4.196  14.521 -2.1046 -1.8139 -1.2518
15800TIP3   OH268814   3.297   5.542   4.194 -0.1323  0.1488 -0.2007
15800TIP3    H168815   3.292   5.458   4.150  0.9699 -0.9950  1.7114
15800TIP3    H268816   3.229   5.538   4.261  0.3859  0.4875  0.3579
15801TIP3   OH268817   5.410   6.493  14.129  0.0671 -0.0866 -0.1551
15801TIP3    H168818   5.316   6.508  14.117  0.2617  0.5042 -0.9633
15801TIP3    H268819   5.438   6.563  14.187 -0.2565 -1.1102  1.2938
15802TIP3   OH268820   3.566   5.618   0.522  0.0737  0.0471  0.5337
15802TIP3    H168821   3.490   5.673   0.503  1.1477  1.4407  0.1550
15802TIP3    H268822   3.543   5.571   0.602 -1.5851 -0.3440 -0.1348
15803TIP3   OH268823   1.411   4.004  16.679  0.3538  0.1286 -0.2895
15803TIP3    H168824   1.486   3.995  16.737 -0.6115  2.4963  1.4806
15803TIP3    H268825   1.444   4.053  16.604  0.8033  0.2444 -0.0166
15804TIP3   OH268826   2.445   2.155  16.290  0.1387 -0.0568 -0.4481
15804TIP3    H168827   2.522   2.106  16.321  1.3702  1.2415 -1.3040
15804TIP3    H268828   2.437   2.228  16.351 -2.7364 -2.0794  1.8671
15805TIP3   OH268829   6.211   4.760  10.969 -0.5523 -0.3504 -0.3462
15805TIP3    H168830   6.205   4.725  11.057  0.4269  0.1847 -0.0450
15805TIP3    H268831   6.297   4.732  10.938 -1.2568 -1.3179 -1.4909
15806TIP3   OH268832   2.460   3.890   1.152  0.0467 -0.2153  0.3895
15806TIP3    H168833   2.541   3.885   1.102 -0.1292 -2.6177  0.2012
15806TIP3    H268834   2.391   3.882   1.086 -0.3774  1.4271  0.5886
15807TIP3   OH268835   0.015   0.096  16.246 -0.4736  0.6668  0.2339
15807TIP3    H168836  -0.053   0.151  16.285 -1.9178  0.1770 -1.4664
15807TIP3    H268837   0.008   0.013  16.292  0.8769  1.4429  1.9497
15808TIP3   OH268838   2.604   5.662   3.094  0.2509 -0.2745 -0.0126
15808TIP3    H168839   2.536   5.644   3.029  0.7597  0.2438 -0.6938
15808TIP3    H268840   2.671   5.710   3.046  1.1161 -0.8070  0.6476
15809TIP3   OH268841   2.297   5.227   3.232  0.1626  0.1080 -0.2222
15809TIP3    H168842   2.206   5.248   3.214  0.3469  0.3072 -0.9636
15809TIP3    H268843   2.337   5.310   3.258  0.0978 -0.0053  0.2314
15810TIP3   OH268844   0.920   2.402   1.985 -0.1638  0.4087 -0.2830
15810TIP3    H168845   0.960   2.489   1.992 -0.9213  0.7469 -0.0958
15810TIP3    H268846   0.918   2.383   1.891  1.4292 -0.0920 -0.2490
15811TIP3   OH268847   3.232   5.761  11.524 -0.1156  0.7374  0.8371
15811TIP3    H168848   3.292   5.779  11.452 -0.7058 -0.1945  0.0845
15811TIP3    H268849   3.260   5.676  11.558  0.9574  1.7281  2.5764
15812TIP3   OH268850   5.951   3.054  14.701 -0.4673  0.6843 -0.2892
15812TIP3    H168851   5.870   3.007  14.679 -0.8206  1.5721 -0.9278
15812TIP3    H268852   5.970   3.027  14.790 -0.2804 -1.2149 -0.8615
15813TIP3   OH268853   6.444   6.265   4.224  0.2718 -0.2502 -0.4958
15813TIP3    H168854   6.515   6.294   4.281 -0.2583  2.3403 -1.0557
15813TIP3    H268855   6.373   6.242   4.283  1.3949 -2.6899  0.0615
15814TIP3   OH268856   1.295   2.720   3.980  0.5724 -0.7187 -0.4872
15814TIP3    H168857   1.295   2.665   4.059 -0.2226  1.6125  1.2329
15814TIP3    H268858   1.364   2.784   3.996  0.3159 -0.1377 -1.6658
15815TIP3   OH268859   4.336   1.920  15.101  0.6762 -0.0101 -0.4044
15815TIP3    H168860   4.278   1.847  15.125  2.1747 -0.7466  1.1867
15815TIP3    H268861   4.294   1.997  15.138  0.3365 -0.4211  0.0822
15816TIP3   OH268862   6.549   6.475  11.534  0.2233 -0.4152 -0.8067
15816TIP3    H168863   6.465   6.516  11.516  0.9157  1.0368 -0.8674
15816TIP3    H268864   6.559   6.409  11.465 -1.1137 -1.0170 -0.4474
15817TIP3   OH268865   3.135   0.733   1.939 -0.4976 -0.3732  0.4255
15817TIP3    H168866   3.047   0.765   1.957 -1.2277 -1.5327 -0.8327
15817TIP3    H268867   3.150   0.754   1.847  0.5243 -0.2376  0.6092
15818TIP3   OH268868   2.150   3.709  14.390 -0.1316 -0.0036  0.5019
15818TIP3    H168869   2.125   3.752  14.471 -2.2013  0.0064 -0.0896
15818TIP3    H268870   2.075   3.654  14.368  1.1137 -1.4017 -0.4778
15819TIP3   OH268871   4.172   5.734   3.907  0.2087 -0.4406 -0.2617
15819TIP3    H168872   4.170   5.649   3.950 -0.7602  0.1657  0.9502
15819TIP3    H268873   4.221   5.790   3.967 -2.4101  0.7947  0.8790
15820TIP3   OH268874   4.326   4.445   0.091 -0.0318 -0.0125 -0.4679
15820TIP3    H168875   4.242   4.426   0.135 -0.1709 -1.0025 -1.1138
15820TIP3    H268876   4.303   4.505   0.020 -0.0239  0.5304 -0.0139
15821TIP3   OH268877   4.858   2.226   1.321 -0.3553 -0.0707 -0.7389
15821TIP3    H168878   4.882   2.159   1.385 -1.1367  0.1924 -0.1465
15821TIP3    H268879   4.773   2.258   1.351 -0.8763 -0.1371 -2.0770
15822TIP3   OH268880   2.947   1.182   5.134 -0.4228 -0.0286  0.4250
15822TIP3    H168881   2.998   1.189   5.214 -1.0151  3.8430  0.6364
15822TIP3    H268882   3.007   1.140   5.071  1.4131  0.3719  1.8301
15823TIP3   OH268883   4.392   0.581   0.785  0.2970  0.0466 -0.4335
15823TIP3    H168884   4.386   0.509   0.848  3.3781  0.0364 -0.0043
15823TIP3    H268885   4.398   0.538   0.700 -2.4135  0.0293 -0.7195
15824TIP3   OH268886   0.067   2.601  11.232 -0.1794  0.0119 -0.5618
15824TIP3    H168887   0.139   2.644  11.186  0.0403 -1.5762 -1.8053
15824TIP3    H268888   0.108   2.530  11.280 -0.8255 -0.5123 -0.7661
15825TIP3   OH268889   3.569   0.735  13.429  0.1292 -0.1350 -0.4577
15825TIP3    H168890   3.529   0.651  13.450 -2.0738  1.3489  1.7421
15825TIP3    H268891   3.598   0.770  13.513  2.4813  0.6755 -1.5111
15826TIP3   OH268892   2.348   4.988   5.212 -0.2054 -0.0979 -0.6589
15826TIP3    H168893   2.379   4.980   5.302 -0.7437  0.6050 -0.4056
15826TIP3    H268894   2.405   5.053   5.172 -0.7816  0.5496 -0.4440
15827TIP3   OH268895   5.115   5.104  12.150  0.7695 -0.1813 -0.0423
15827TIP3    H168896   5.055   5.050  12.097  0.2768 -0.1819  0.5040
15827TIP3    H268897   5.192   5.049  12.162  1.2316  0.1177 -1.4250
15828TIP3   OH268898   4.459   0.561   6.068  0.4075 -0.0882  0.2269
15828TIP3    H168899   4.457   0.577   6.162  0.7819 -2.8899  0.8008
15828TIP3    H268900   4.381   0.509   6.050  0.3806  0.3438 -0.9958
15829TIP3   OH268901   4.042   2.255  15.450  0.6217 -0.6615 -0.5006
15829TIP3    H168902   4.008   2.331  15.497  1.8148 -0.7504  0.5415
15829TIP3    H268903   4.039   2.281  15.358 -0.8481 -0.1239 -0.3278
15830TIP3   OH268904   0.957   0.219   0.602  0.3402  0.5382  0.0951
15830TIP3    H168905   0.974   0.295   0.546 -0.3785 -0.8298 -2.0987
15830TIP3    H268906   0.908   0.159   0.546  3.5536 -2.9325  0.5954
15831TIP3   OH268907   3.205   1.273  16.249  0.4810 -0.2665 -0.0146
15831TIP3    H168908   3.259   1.289  16.171 -1.2849 -0.4409 -1.3326
15831TIP3    H268909   3.158   1.355  16.263 -0.6740 -0.8376 -0.3716
15832TIP3   OH268910   1.966   6.740   3.843  0.4357  0.2308 -0.4608
15832TIP3    H168911   2.033   6.776   3.784  0.7548 -1.6097 -1.2833
15832TIP3    H268912   2.015   6.684   3.902 -0.2170  0.0244 -0.1200
15833TIP3   OH268913   6.699   5.547   4.768  0.0549 -0.0329  0.1357
15833TIP3    H168914   6.714   5.557   4.862 -0.6833  2.6085  0.0558
15833TIP3    H268915   6.780   5.576   4.727  0.3607 -1.1402 -0.0715
15834TIP3   OH268916   5.622   0.320   6.979  0.0575  0.7760  0.1764
15834TIP3    H168917   5.620   0.349   7.070  1.8282  2.1633 -0.1779
15834TIP3    H268918   5.704   0.272   6.971 -1.5822 -2.3106  0.0705
15835TIP3   OH268919   1.463   1.967  11.175 -0.0779 -0.2814  0.0714
15835TIP3    H168920   1.557   1.984  11.180  0.0310 -0.3419 -1.4533
15835TIP3    H268921   1.429   2.037  11.120 -1.0443  0.0731  1.0666
15836TIP3   OH268922   2.918   3.961  12.916 -0.2287 -0.0330 -0.0756
15836TIP3    H168923   2.996   4.015  12.931  2.0530 -2.4433 -2.2686
15836TIP3    H268924   2.901   3.919  13.001  0.4584  1.0043  0.5961
15837TIP3   OH268925   1.350   0.281  12.801  0.2452 -0.3853  0.4362
15837TIP3    H168926   1.322   0.198  12.840  3.8459 -1.5501  0.8705
15837TIP3    H268927   1.369   0.259  12.710  2.6065 -0.5141  0.8936
15838TIP3   OH268928   1.873   4.721   5.625  0.1125 -0.6017  0.1669
15838TIP3    H168929   1.902   4.809   5.599  0.3468 -0.5183  0.6958
15838TIP3    H268930   1.781   4.732   5.649  0.6735 -0.0247  2.3205
15839TIP3   OH268931   6.765   4.495  13.620 -0.3134 -0.0760 -0.2872
15839TIP3    H168932   6.721   4.579  13.613 -0.0190  0.0792 -0.2944
15839TIP3    H268933   6.712   4.445  13.682 -0.4877  0.1150 -0.2822
15840TIP3   OH268934   3.221   4.869  12.502 -0.4215 -0.6795 -0.2539
15840TIP3    H168935   3.253   4.816  12.576  3.3017  0.9942 -0.3923
15840TIP3    H268936   3.165   4.810  12.452 -1.1808 -2.6073  2.5953
15841TIP3   OH268937   1.000   5.295  11.978 -0.2183  0.6049  1.1485
15841TIP3    H168938   1.017   5.384  12.008  1.4755  0.6007  0.3219
15841TIP3    H268939   1.087   5.256  11.970 -0.8478 -0.6050 -0.0637
15842TIP3   OH268940   4.521   2.683  16.455  0.2687 -0.3948  0.0463
15842TIP3    H168941   4.589   2.748  16.474  0.5728 -0.6994 -0.0059
15842TIP3    H268942   4.560   2.625  16.390  0.2521 -1.0503  0.6054
15843TIP3   OH268943   5.957   0.145  15.494  0.0010  0.6108 -0.2040
15843TIP3    H168944   5.862   0.156  15.496 -0.0599  0.0672  1.3969
15843TIP3    H268945   5.972   0.061  15.537  0.9489 -1.6967 -4.4962
15844TIP3   OH268946   2.942   1.196   1.849  0.2119 -0.0439 -0.3992
15844TIP3    H168947   2.960   1.159   1.935  0.1099  0.8728  0.0233
15844TIP3    H268948   3.012   1.161   1.793  1.4670  0.9413  0.5072
15845TIP3   OH268949   2.736   1.835   4.192 -0.7141  0.4674  0.5602
15845TIP3    H168950   2.792   1.779   4.245 -0.0433  0.5504 -0.0436
15845TIP3    H268951   2.656   1.844   4.243  0.0554  0.8712  1.7440
15846TIP3   OH268952   1.544   5.774   3.831 -0.1857 -0.8516  0.2914
15846TIP3    H168953   1.465   5.827   3.843  0.0470  0.2378 -2.3154
15846TIP3    H268954   1.512   5.684   3.821 -0.7893 -0.8966  2.3226
15847TIP3   OH268955   1.450   3.704  16.635  0.7418 -0.1925  0.3117
15847TIP3    H168956   1.463   3.790  16.675 -0.6346  0.8875 -1.4609
15847TIP3    H268957   1.536   3.661  16.642  1.4582  1.3251  1.1758
15848TIP3   OH268958   3.622   4.604  16.887 -0.3583 -0.0648 -0.4763
15848TIP3    H168959   3.526   4.602  16.881 -0.3410  0.4887 -1.0228
15848TIP3    H268960   3.648   4.512  16.885 -0.9596 -0.3216  1.3241
15849TIP3   OH268961   4.145   3.950  11.699 -0.5742 -0.2643  0.4016
15849TIP3    H168962   4.117   3.979  11.786 -0.1662 -0.7639  0.7084
15849TIP3    H268963   4.160   4.030  11.650  0.7136  0.0572  1.2834
15850TIP3   OH268964   0.538   5.526  11.417  0.1126 -0.0414  0.2220
15850TIP3    H168965   0.467   5.570  11.462  0.6088 -0.5008  1.4989
15850TIP3    H268966   0.511   5.434  11.414 -0.1365  0.0487 -0.8898
15851TIP3   OH268967   4.863   3.804   5.238  0.6652 -0.0209 -0.3465
15851TIP3    H168968   4.926   3.874   5.221 -1.7232  1.9218 -2.0186
15851TIP3    H268969   4.778   3.845   5.222 -1.2266 -1.9683  3.4395
15852TIP3   OH268970   6.642   3.807   5.101 -0.3940  0.2029 -0.3254
15852TIP3    H168971   6.659   3.794   5.194  1.1226  0.3688 -0.5490
15852TIP3    H268972   6.604   3.895   5.096 -2.1741 -0.4955  0.2878
15853TIP3   OH268973   0.524   3.266   3.366 -0.4710  0.3411  0.0005
15853TIP3    H168974   0.533   3.283   3.459 -0.1912 -0.5910  0.1521
15853TIP3    H268975   0.539   3.351   3.324 -0.1488  0.6679  0.7724
15854TIP3   OH268976   3.351   1.724  12.943 -0.2435  0.3011 -0.4776
15854TIP3    H168977   3.274   1.681  12.906  1.0718 -0.4561 -2.5076
15854TIP3    H268978   3.326   1.816  12.951 -2.1265 -0.2760  1.2114
15855TIP3   OH268979   5.151   3.133   3.839 -0.1573 -0.0391 -0.2628
15855TIP3    H168980   5.163   3.225   3.861  0.0303  0.0905 -0.8771
15855TIP3    H268981   5.239   3.095   3.842 -0.0372  0.1210 -1.3543
15856TIP3   OH268982   6.503   0.383   6.636  0.0473 -0.0665  0.8644
15856TIP3    H168983   6.456   0.416   6.559 -0.5797 -2.0991  0.3010
15856TIP3    H268984   6.561   0.454   6.661 -0.1220  0.8702 -1.1754
15857TIP3   OH268985   2.154   4.296  15.063 -0.9396  0.6679 -0.1925
15857TIP3    H168986   2.132   4.378  15.019  0.8993  0.5546 -1.4070
15857TIP3    H268987   2.236   4.315  15.110 -1.3668 -0.0271  0.8695
15858TIP3   OH268988   5.899   5.404  15.145  0.1198 -0.2079 -0.4284
15858TIP3    H168989   5.820   5.456  15.157  1.1691  1.3182  0.2241
15858TIP3    H268990   5.891   5.333  15.208 -0.2348  0.5536  0.4063
15859TIP3   OH268991   0.194   5.690  10.399 -0.3651  0.2948  0.1305
15859TIP3    H168992   0.275   5.687  10.348 -0.9818 -1.0595 -0.8375
15859TIP3    H268993   0.213   5.636  10.476  0.0271  0.9498  0.4955
15860TIP3   OH268994   0.142   1.305  13.968  0.1287  0.4064 -0.3089
15860TIP3    H168995   0.173   1.317  14.058  1.4658  1.7304 -0.9020
15860TIP3    H268996   0.221   1.291  13.917 -0.7492 -2.7795 -1.0171
15861TIP3   OH268997   3.896   6.039   6.675  0.2509  0.5936  0.0351
15861TIP3    H168998   3.860   6.019   6.761 -1.0555  1.8677 -0.1638
15861TIP3    H268999   3.884   6.134   6.666  4.7994  1.4091  0.4010
15862TIP3   OH269000   3.301   4.466  15.554  0.0043  1.0036  0.1496
15862TIP3    H169001   3.226   4.494  15.502 -0.4266  1.9720  1.2348
15862TIP3    H269002   3.286   4.373  15.571  0.3369  0.5628 -1.6949
15863TIP3   OH269003   5.525   5.176  14.496 -0.2332  0.0722 -0.1538
15863TIP3    H169004   5.453   5.137  14.546 -1.5339  0.4529 -1.6340
15863TIP3    H269005   5.483   5.244  14.444  1.7316  2.4830  1.2172
15864TIP3   OH269006   2.837   3.528   2.537  0.1282  0.1293  0.5987
15864TIP3    H169007   2.846   3.579   2.618 -0.2577 -0.6195  1.1261
15864TIP3    H269008   2.794   3.588   2.476 -0.0710  0.5332  1.1225
15865TIP3   OH269009   5.380   4.035  15.763  0.2054 -0.1961  0.3267
15865TIP3    H169010   5.332   4.066  15.840  2.6073  1.0690  1.4143
15865TIP3    H269011   5.471   4.060  15.779  1.5122 -3.4026 -1.1360
15866TIP3   OH269012   3.180   4.875   5.766  0.0139 -0.3808 -0.4894
15866TIP3    H169013   3.216   4.826   5.840  1.6172 -0.4568 -1.2712
15866TIP3    H269014   3.217   4.962   5.775  0.2786 -0.4098 -1.2258
15867TIP3   OH269015   6.260   5.219  15.297 -0.0273  0.6289 -0.0589
15867TIP3    H169016   6.247   5.141  15.242  0.0778  0.9470 -0.5491
15867TIP3    H269017   6.249   5.292  15.236 -0.5285  1.0067  0.4828
15868TIP3   OH269018   5.248   2.817  13.849 -0.3231  0.3158  0.0156
15868TIP3    H169019   5.324   2.872  13.829  1.0690 -1.7245 -0.5234
15868TIP3    H269020   5.262   2.788  13.938 -0.7319  0.2975  0.0762
15869TIP3   OH269021   1.534   1.513  16.512 -0.1673 -0.1606  0.1983
15869TIP3    H169022   1.447   1.535  16.478 -0.2821  0.4131  0.8369
15869TIP3    H269023   1.518   1.484  16.601  0.2210 -0.8306  0.0561
15870TIP3   OH269024   6.808   4.485   2.834 -0.2306  0.0181 -0.5409
15870TIP3    H169025   6.786   4.578   2.844  0.8747  0.2521 -0.1463
15870TIP3    H269026   6.772   4.444   2.913 -0.6591  0.1208 -0.6801
15871TIP3   OH269027   2.575   0.642   3.299 -0.0893  0.3568 -0.2451
15871TIP3    H169028   2.548   0.603   3.216  0.9743 -0.2534 -0.3214
15871TIP3    H269029   2.602   0.731   3.276  0.3262  0.1473 -0.5798
15872TIP3   OH269030   1.006   6.137   0.268 -0.1814  0.1587  0.2620
15872TIP3    H169031   1.100   6.139   0.252 -0.2318 -0.9335 -0.2729
15872TIP3    H269032   0.982   6.229   0.284  0.6534  0.6964 -1.4126
15873TIP3   OH269033   4.272   0.950  12.443 -0.6291 -0.1810 -0.4326
15873TIP3    H169034   4.182   0.919  12.429 -0.8898 -0.2245  1.1821
15873TIP3    H269035   4.264   1.015  12.512  0.4106  0.8816 -1.2792
15874TIP3   OH269036   1.884   2.660   2.616 -0.3445 -0.2159 -0.5806
15874TIP3    H169037   1.929   2.744   2.604 -1.2215  0.2984 -0.3437
15874TIP3    H269038   1.833   2.649   2.536 -1.2803  0.1455 -0.0488
15875TIP3   OH269039   3.813   4.668  10.608 -0.3406 -0.7146  0.2366
15875TIP3    H169040   3.840   4.755  10.636 -0.1576 -0.7713  0.2393
15875TIP3    H269041   3.895   4.620  10.595 -0.4238 -0.7499 -0.2050
15876TIP3   OH269042   5.385   3.770   3.148 -0.3089  0.3618  0.2188
15876TIP3    H169043   5.353   3.752   3.236  3.1839  0.2585  1.5892
15876TIP3    H269044   5.411   3.684   3.113  2.8198  0.8244  1.1050
15877TIP3   OH269045   4.207   5.985   4.663 -0.4331 -0.2555 -0.4517
15877TIP3    H169046   4.117   6.016   4.658 -0.2864  0.3048  0.2156
15877TIP3    H269047   4.203   5.895   4.629 -1.3238 -0.4077  0.0116
15878TIP3   OH269048   5.973   5.466  14.889  0.1177 -0.1926 -0.2954
15878TIP3    H169049   6.043   5.406  14.910 -0.5786 -1.6186 -1.8023
15878TIP3    H269050   5.909   5.456  14.960  0.7059 -0.0367  0.2642
15879TIP3   OH269051   3.441   4.829   5.402 -0.3633  0.0243  0.4253
15879TIP3    H169052   3.428   4.735   5.390 -0.6931  0.1353 -0.1212
15879TIP3    H269053   3.532   4.837   5.432 -0.0750 -0.4145 -0.3098
15880TIP3   OH269054   0.290   5.105   2.471  0.1021 -0.6860 -0.2140
15880TIP3    H169055   0.345   5.113   2.392  1.5980 -0.7457  0.7873
15880TIP3    H269056   0.219   5.047   2.444 -0.0323  0.1745 -1.8405
15881TIP3   OH269057   6.073   1.744  17.058 -0.1978  0.3036  0.1314
15881TIP3    H169058   6.102   1.778  16.973  1.0719  0.3420  0.5459
15881TIP3    H269059   6.022   1.666  17.037 -0.5337  0.7353 -0.6946
15882TIP3   OH269060   2.913   1.478   3.703 -0.3367 -0.0752 -0.3067
15882TIP3    H169061   2.874   1.565   3.691  0.1313  0.1280 -0.3794
15882TIP3    H269062   3.008   1.495   3.708 -0.3164 -0.4484  0.8477
15883TIP3   OH269063   1.081   2.635   5.044  0.2800 -0.1871  0.0037
15883TIP3    H169064   1.160   2.598   5.084 -0.3447 -0.9778  0.5392
15883TIP3    H269065   1.049   2.699   5.107  0.8414  0.6199 -0.5079
15884TIP3   OH269066   3.741   5.494   5.706 -0.3460  0.0253 -0.2484
15884TIP3    H169067   3.758   5.551   5.781  0.1522 -1.0629  0.4824
15884TIP3    H269068   3.645   5.488   5.703 -0.3628 -0.5209  0.7803
15885TIP3   OH269069   0.979   0.415   3.351 -0.0989 -0.0422 -0.7783
15885TIP3    H169070   0.932   0.422   3.268 -3.0008 -0.8907  0.6549
15885TIP3    H269071   0.943   0.485   3.405 -0.6057 -1.3884  0.7312
15886TIP3   OH269072   4.362   0.606   2.428  0.1681  0.1293 -0.5765
15886TIP3    H169073   4.440   0.564   2.463 -0.0577  1.1349  1.2557
15886TIP3    H269074   4.312   0.633   2.505 -0.2265  2.7159 -1.6099
15887TIP3   OH269075   0.552   6.603   3.616  0.8887  0.0566  0.0059
15887TIP3    H169076   0.625   6.602   3.678 -0.0721 -1.4011  1.1941
15887TIP3    H269077   0.556   6.517   3.574 -0.1893 -0.0730  0.1492
15888TIP3   OH269078   3.557   6.452  16.965 -0.0196  0.3398 -0.5611
15888TIP3    H169079   3.573   6.368  17.008 -1.1371 -0.2074 -1.1607
15888TIP3    H269080   3.595   6.443  16.878  0.3667  0.6820 -0.4358
15889TIP3   OH269081   4.315   0.291  15.870 -0.0147 -0.1379 -0.2175
15889TIP3    H169082   4.250   0.242  15.821  1.9324 -1.5594 -1.5090
15889TIP3    H269083   4.398   0.268  15.830  1.4823  0.3594  2.3778
15890TIP3   OH269084   1.353   0.025   0.151 -0.0662 -0.1100  0.6695
15890TIP3    H169085   1.355   0.058   0.061 -0.9268 -4.6748 -1.2907
15890TIP3    H269086   1.261   0.032   0.177 -0.6241 -2.3725 -0.4739
15891TIP3   OH269087   1.941   2.833   6.673 -0.1934  0.4502  0.2815
15891TIP3    H169088   1.950   2.741   6.697 -0.2123  0.8588  1.9232
15891TIP3    H269089   1.994   2.841   6.593  1.3516 -0.5740  1.1476
15892TIP3   OH269090   2.284   0.782  17.252  0.4692 -0.6161 -0.4178
15892TIP3    H169091   2.271   0.877  17.254  0.8118 -0.5746 -0.0357
15892TIP3    H269092   2.365   0.768  17.301  1.1195 -0.9946 -1.5575
15893TIP3   OH269093   5.321   2.890  14.124  0.0393  0.3064 -0.4706
15893TIP3    H169094   5.388   2.828  14.153  1.1144  0.8332 -1.7354
15893TIP3    H269095   5.326   2.961  14.188  0.4112  0.1452 -0.3130
15894TIP3   OH269096   3.798   2.908  16.021  0.7409 -0.0927 -0.1154
15894TIP3    H169097   3.854   2.981  15.995  0.2355  0.6145  0.7218
15894TIP3    H269098   3.859   2.842  16.055  1.0839  0.7918  1.0747
15895TIP3   OH269099   2.225   4.727   1.941 -0.2176 -0.1453  0.0620
15895TIP3    H169100   2.165   4.659   1.971 -0.8695  0.6730  0.6672
15895TIP3    H269101   2.192   4.807   1.981  0.0765  0.6590 -1.2444
15896TIP3   OH269102   5.295   6.501  10.461 -0.0481  1.0483  0.1475
15896TIP3    H169103   5.218   6.520  10.515  0.0926  0.7082  0.4694
15896TIP3    H269104   5.360   6.466  10.523  0.0844  0.5774 -0.2561
15897TIP3   OH269105   1.351   3.777  15.812  0.3762  0.7092 -0.3343
15897TIP3    H169106   1.331   3.735  15.728  2.6327 -0.0826 -0.5531
15897TIP3    H269107   1.368   3.869  15.790 -0.9258  0.9536 -0.4120
15898TIP3   OH269108   3.375   6.140   0.472 -0.3357  0.2259 -0.5889
15898TIP3    H169109   3.437   6.071   0.494 -0.7643 -0.0615 -0.2854
15898TIP3    H269110   3.421   6.192   0.406  1.4472  1.7663  1.6914
15899TIP3   OH269111   2.667   3.808   2.828  0.4303  0.1900 -0.6347
15899TIP3    H169112   2.687   3.809   2.922 -1.3419  0.2977 -0.2144
15899TIP3    H269113   2.700   3.891   2.795 -0.6324  1.0156  0.3156
15900TIP3   OH269114   0.096   1.752   4.935  0.0945 -0.7457  0.1763
15900TIP3    H169115   0.054   1.830   4.897  0.8476 -0.7438 -0.7098
15900TIP3    H269116   0.159   1.725   4.868 -0.8444 -2.7251  0.0236
15901TIP3   OH269117   0.369   6.777   2.208  0.0767 -0.8033 -0.1715
15901TIP3    H169118   0.313   6.841   2.163  1.0614  0.4745  0.3535
15901TIP3    H269119   0.310   6.732   2.269 -0.3528  0.7791  0.6468
15902TIP3   OH269120   1.600   1.340   1.485 -0.1686  0.1907  0.2397
15902TIP3    H169121   1.580   1.346   1.579  0.8284 -0.5905  0.5195
15902TIP3    H269122   1.671   1.402   1.472 -1.0707  1.1519 -0.2550
15903TIP3   OH269123   0.437   4.733   1.646 -0.0809 -0.3183 -0.7245
15903TIP3    H169124   0.426   4.655   1.700 -1.8592 -0.9764 -1.9563
15903TIP3    H269125   0.524   4.723   1.607  1.0238 -0.0867  1.4878
15904TIP3   OH269126   0.954   2.718  15.155  0.0366  0.0212  0.2072
15904TIP3    H169127   0.931   2.645  15.098 -0.1073  0.1216  0.1365
15904TIP3    H269128   0.980   2.788  15.096  2.2430 -0.6320  0.2915
15905TIP3   OH269129   2.676   4.651   4.827 -0.4831  0.2593 -0.1853
15905TIP3    H169130   2.667   4.723   4.764  0.1928 -0.1227 -0.7333
15905TIP3    H269131   2.596   4.599   4.815 -0.1721 -0.0500 -1.0504
15906TIP3   OH269132   5.841   5.641  11.471  0.0381 -0.0295 -0.5252
15906TIP3    H169133   5.899   5.633  11.395  0.6253  0.9844 -0.2039
15906TIP3    H269134   5.764   5.590  11.447  0.2173  0.2518 -1.7979
15907TIP3   OH269135   6.515   1.524   4.605  0.0111  0.2085  0.3964
15907TIP3    H169136   6.587   1.463   4.620  1.0935  1.0364 -1.1106
15907TIP3    H269137   6.545   1.607   4.643  0.9314  1.1657 -2.1541
15908TIP3   OH269138   3.895   3.909  12.287  0.0553  0.0615  0.5345
15908TIP3    H169139   3.894   3.814  12.293  1.0768 -0.1374 -1.5468
15908TIP3    H269140   3.978   3.935  12.328 -0.3082  0.0870  1.2666
15909TIP3   OH269141   2.022   2.770  15.247  0.5592  0.2362  0.1371
15909TIP3    H169142   2.033   2.742  15.338  0.1700 -1.2417 -0.2411
15909TIP3    H269143   1.955   2.839  15.251  0.4833  0.1235  0.9584
15910TIP3   OH269144   0.477   5.875  13.728  0.1301  0.3779 -0.5711
15910TIP3    H169145   0.442   5.927  13.801  0.3691 -2.3084  1.6255
15910TIP3    H269146   0.400   5.834  13.689  0.1920 -0.0285 -0.2754
15911TIP3   OH269147   6.291   1.984   0.901 -0.0022 -0.1801  0.1225
15911TIP3    H169148   6.208   1.936   0.909  0.0437 -0.2688  0.0728
15911TIP3    H269149   6.281   2.058   0.960  0.5469 -1.1308  1.4570
15912TIP3   OH269150   0.657   6.325   0.124  0.0033 -0.2226 -0.1453
15912TIP3    H169151   0.751   6.330   0.110  0.2302 -0.9028  1.0622
15912TIP3    H269152   0.644   6.357   0.214 -1.0061  0.5507 -0.5404
15913TIP3   OH269153   6.303   6.020   4.851 -0.6286  0.0217 -0.1171
15913TIP3    H169154   6.362   5.951   4.881 -0.5170 -0.8755 -2.2176
15913TIP3    H269155   6.327   6.097   4.903  1.9829 -0.4738 -0.4367
15914TIP3   OH269156   0.224   5.049  14.952  1.0534 -0.8952 -0.1688
15914TIP3    H169157   0.151   5.039  14.890  0.1553 -0.4156  0.7827
15914TIP3    H269158   0.183   5.077  15.033  2.3453 -0.2707  0.2997
15915TIP3   OH269159   4.131   2.189  17.015  0.0075  0.5748  0.4257
15915TIP3    H169160   4.064   2.151  16.957  0.6449  0.8861 -0.5538
15915TIP3    H269161   4.127   2.136  17.094 -0.6774 -0.0801 -0.0269
15916TIP3   OH269162   6.647   6.176   3.388  0.5759  0.0196 -0.1314
15916TIP3    H169163   6.742   6.184   3.393  0.4468  2.0040  0.2116
15916TIP3    H269164   6.623   6.219   3.306 -0.0180 -0.8324 -0.4253
15917TIP3   OH269165   5.372   2.574   2.362 -0.1413 -0.1363 -0.1711
15917TIP3    H169166   5.380   2.669   2.372  0.3725 -0.1508 -0.4399
15917TIP3    H269167   5.450   2.538   2.404  0.6944 -0.3287 -1.8031
15918TIP3   OH269168   3.395   3.755   2.328 -0.2926 -0.0557  0.7111
15918TIP3    H169169   3.328   3.723   2.388  0.2343 -0.5252  1.0492
15918TIP3    H269170   3.438   3.676   2.295  0.5667  0.2645  1.0354
15919TIP3   OH269171   2.536   1.819   4.374 -0.7858 -0.1255  0.3582
15919TIP3    H169172   2.484   1.826   4.294  1.3571  0.7989 -1.0456
15919TIP3    H269173   2.484   1.763   4.432 -1.9285 -1.7034 -2.0483
15920TIP3   OH269174   0.691   3.970  13.847  0.7032 -0.4214  0.2215
15920TIP3    H169175   0.662   3.980  13.757 -0.4549  0.7302  0.7021
15920TIP3    H269176   0.632   3.905  13.884  0.3015  0.1089  0.5192
15921TIP3   OH269177   4.598   4.926   2.609 -0.2644 -0.6124  0.1371
15921TIP3    H169178   4.543   4.996   2.643  2.6532  1.2764  1.3815
15921TIP3    H269179   4.598   4.859   2.678 -2.1949 -1.4244 -0.5885
15922TIP3   OH269180   5.444   1.218  12.011  0.3264 -0.2153 -0.6855
15922TIP3    H169181   5.468   1.240  11.921 -0.2692 -0.6632 -0.9588
15922TIP3    H269182   5.428   1.124  12.010  0.2214 -0.2111 -0.1327
15923TIP3   OH269183   2.847   0.202  14.015  0.3483 -0.3367  0.1978
15923TIP3    H169184   2.818   0.215  13.925  0.8433 -0.6824 -0.0162
15923TIP3    H269185   2.928   0.253  14.022 -0.1649  0.4292  0.7183
15924TIP3   OH269186   0.680   4.539  15.948 -0.0148 -0.3654 -0.2898
15924TIP3    H169187   0.635   4.602  15.893  0.1177 -1.4770 -1.7472
15924TIP3    H269188   0.695   4.584  16.031 -0.5552  1.2411 -1.0425
15925TIP3   OH269189   5.213   1.521   5.209 -0.5649  0.6059 -0.6942
15925TIP3    H169190   5.217   1.612   5.179 -1.4394  1.1811  0.7909
15925TIP3    H269191   5.253   1.523   5.296 -2.6217  0.0556  0.3206
15926TIP3   OH269192   6.171   2.587  15.673 -0.1450  0.0466  0.1078
15926TIP3    H169193   6.163   2.655  15.606 -1.1046  0.7080  0.8669
15926TIP3    H269194   6.136   2.508  15.632  2.7842 -0.5430 -1.4713
15927TIP3   OH269195   4.479   1.217  12.072 -0.4632  0.3156  0.0548
15927TIP3    H169196   4.477   1.299  12.023 -0.9560 -0.8437 -2.0204
15927TIP3    H269197   4.444   1.152  12.010 -1.3901 -1.2243  2.0784
15928TIP3   OH269198   6.174   0.310  13.511  0.0402  0.1298  0.4960
15928TIP3    H169199   6.117   0.382  13.484  2.7926  1.8607 -1.2222
15928TIP3    H269200   6.163   0.305  13.606 -3.0504  0.1614  0.2533
15929TIP3   OH269201   3.512   4.535  15.033 -0.5868  0.1201  0.1728
15929TIP3    H169202   3.438   4.593  15.052  0.7262  1.3393  1.8656
15929TIP3    H269203   3.576   4.592  14.991 -0.4093 -0.8299 -0.8890
15930TIP3   OH269204   6.194   2.590   5.574  0.4378  0.4038  0.0301
15930TIP3    H169205   6.199   2.501   5.611  1.5066  0.1989 -0.5642
15930TIP3    H269206   6.265   2.638   5.618  0.7649  0.5638 -0.6518
15931TIP3   OH269207   5.622   4.494  11.418 -0.0050  0.0142  0.9737
15931TIP3    H169208   5.590   4.552  11.487  0.9339  1.5092  0.2173
15931TIP3    H269209   5.579   4.525  11.338 -0.0073 -0.7780  0.6559
15932TIP3   OH269210   5.508   1.277   5.937  0.2324 -0.4437 -0.5610
15932TIP3    H169211   5.429   1.291   5.884 -0.0931  0.9063  0.2433
15932TIP3    H269212   5.482   1.212   6.001 -1.1691  1.9056  1.4460
15933TIP3   OH269213   0.352   2.099   1.584 -0.1749  0.7821  0.1892
15933TIP3    H169214   0.415   2.038   1.622 -0.5444  1.7118  2.4716
15933TIP3    H269215   0.387   2.185   1.603 -0.1774  1.3577 -2.0891
15934TIP3   OH269216   1.202   2.345   5.980  0.4063 -0.1937  0.0744
15934TIP3    H169217   1.269   2.379   5.920 -0.4968 -2.7132 -2.5976
15934TIP3    H269218   1.120   2.386   5.951  0.3963  1.3235  2.0278
15935TIP3   OH269219   2.243   6.122  15.936 -0.4772 -0.0612  0.3719
15935TIP3    H169220   2.326   6.145  15.978 -0.5718  1.6019 -0.2842
15935TIP3    H269221   2.191   6.202  15.939 -1.4127 -0.5865 -0.7364
15936TIP3   OH269222   3.368   2.468  11.299 -0.4440 -0.0748  0.0360
15936TIP3    H169223   3.360   2.562  11.284  0.8418 -0.2254 -2.1147
15936TIP3    H269224   3.460   2.455  11.322 -0.2185 -0.9247 -1.2230
15937TIP3   OH269225   3.714   2.077   0.613 -0.3560  0.8281  0.6502
15937TIP3    H169226   3.730   1.983   0.627  0.0990  0.8133  0.0903
15937TIP3    H269227   3.783   2.120   0.663  0.0188  0.8316  0.1404
15938TIP3   OH269228   4.336   0.686  15.475 -0.0144  0.4041 -0.0692
15938TIP3    H169229   4.400   0.679  15.405 -0.1882  3.6730 -0.7383
15938TIP3    H269230   4.383   0.661  15.555  0.8674 -1.0825 -1.0224
15939TIP3   OH269231   3.781   5.926   0.784  0.0580  0.0159 -0.1504
15939TIP3    H169232   3.807   5.957   0.871 -0.5486  0.3684 -0.0911
15939TIP3    H269233   3.843   5.968   0.724  0.2236  0.0946  0.0751
15940TIP3   OH269234   6.114   3.299  15.021 -0.2432  0.4269  0.0787
15940TIP3    H169235   6.031   3.253  15.031 -0.5626  0.5402 -1.6985
15940TIP3    H269236   6.092   3.392  15.032 -0.1521  0.3833  0.6497
15941TIP3   OH269237   4.745   1.272   1.321 -0.6408  0.1122  0.5816
15941TIP3    H169238   4.830   1.286   1.279 -0.1632 -0.7477  1.2158
15941TIP3    H269239   4.732   1.348   1.377 -0.0937  0.0518  0.7931
15942TIP3   OH269240   2.994   5.459   6.070 -0.3555 -0.1800 -0.0318
15942TIP3    H169241   3.004   5.383   6.127 -0.2380  0.3919  0.7212
15942TIP3    H269242   2.997   5.534   6.129  2.1220  0.5674 -0.9979
15943TIP3   OH269243   4.310   6.271   1.232 -0.1414  0.1659 -0.0521
15943TIP3    H169244   4.270   6.352   1.263  0.1020 -0.1349  1.0943
15943TIP3    H269245   4.403   6.281   1.250 -0.2037 -0.6646  0.8539
15944TIP3   OH269246   2.106   1.282  12.943 -0.4715 -0.0850  1.0462
15944TIP3    H169247   2.153   1.234  12.875  1.4519  1.2691  1.3375
15944TIP3    H269248   2.089   1.368  12.904 -0.1497  0.3917  1.9264
15945TIP3   OH269249   6.413   2.928  12.621  0.3109  0.3583 -0.6580
15945TIP3    H169250   6.413   2.835  12.642 -0.8795  0.4132 -0.2870
15945TIP3    H269251   6.470   2.936  12.545  1.1546 -0.5289 -0.1411
15946TIP3   OH269252   6.484   0.626   4.031  0.2807 -0.2580 -0.7558
15946TIP3    H169253   6.535   0.650   3.953 -0.7818  0.2374 -1.3164
15946TIP3    H269254   6.547   0.582   4.088  1.9108  2.2231 -0.4874
15947TIP3   OH269255   6.359   6.336  14.452  0.1965  0.9355  0.1649
15947TIP3    H169256   6.350   6.413  14.396 -0.2952 -0.2280 -1.4483
15947TIP3    H269257   6.451   6.335  14.478  0.4343  1.4962 -0.6334
15948TIP3   OH269258   3.135   0.883  12.637 -0.1021 -0.4064  0.1697
15948TIP3    H169259   3.193   0.880  12.561  0.9068 -0.9084  0.9402
15948TIP3    H269260   3.186   0.927  12.704 -1.6508  1.7913  0.0441
15949TIP3   OH269261   6.724   3.349  12.287  0.0143  0.5790  0.7981
15949TIP3    H169262   6.707   3.353  12.381  2.1106  2.7742  1.1668
15949TIP3    H269263   6.637   3.349  12.248 -0.9134  1.3984  2.7097
15950TIP3   OH269264   2.861   0.959  16.420 -0.2532 -0.0102  0.1434
15950TIP3    H169265   2.796   0.984  16.354 -1.3451  1.3802  1.6594
15950TIP3    H269266   2.944   0.965  16.374 -1.0014  0.6053 -1.2055
15951TIP3   OH269267   6.509   4.460  14.177 -0.7070  0.0257 -0.3250
15951TIP3    H169268   6.585   4.475  14.233  0.0996  1.0972 -1.6507
15951TIP3    H269269   6.451   4.534  14.195 -0.3424  0.4979 -1.0424
15952TIP3   OH269270   0.584   0.677   0.795 -0.4292 -0.4652 -0.4955
15952TIP3    H169271   0.537   0.702   0.874  1.3523  0.8962  0.1987
15952TIP3    H269272   0.582   0.581   0.795 -1.2042 -0.4645  0.6991
15953TIP3   OH269273   1.075   5.562   5.568  0.1761 -0.2089 -0.1173
15953TIP3    H169274   0.990   5.594   5.541 -0.4831 -1.8604 -0.1298
15953TIP3    H269275   1.057   5.510   5.646  1.5152  1.3124  1.2769
15954TIP3   OH269276   2.776   3.275   4.619  0.6278  0.2572  0.2618
15954TIP3    H169277   2.856   3.225   4.635  1.2698  0.4951 -1.8898
15954TIP3    H269278   2.717   3.248   4.690  1.6642 -1.9517  0.3913
15955TIP3   OH269279   3.040   5.802  11.772  0.4496  0.1632 -0.3491
15955TIP3    H169280   2.966   5.791  11.832  0.2837  0.5694 -0.4737
15955TIP3    H269281   3.022   5.742  11.700  0.6689 -0.3575  0.0273
15956TIP3   OH269282   6.680   4.737  11.614 -0.2218 -0.4716  0.5061
15956TIP3    H169283   6.641   4.687  11.542  1.1164 -0.5636 -0.1909
15956TIP3    H269284   6.694   4.671  11.683  3.3107 -1.6394 -1.0969
15957TIP3   OH269285   6.118   6.279   4.832  0.2013 -0.5888 -0.3418
15957TIP3    H169286   6.143   6.326   4.752  2.8316 -4.1859 -1.9240
15957TIP3    H269287   6.165   6.324   4.902 -1.1470  1.8732 -0.8996
15958TIP3   OH269288   3.724   1.504  16.305 -0.0033 -0.2127 -0.1675
15958TIP3    H169289   3.799   1.560  16.283  0.1765 -0.1185  0.6714
15958TIP3    H269290   3.648   1.556  16.279  0.1664  0.3782  0.4744
15959TIP3   OH269291   6.052   2.420   0.280 -0.2133 -0.0108 -0.2561
15959TIP3    H169292   6.003   2.339   0.267  2.0976 -1.3696 -1.2657
15959TIP3    H269293   6.095   2.409   0.365 -0.1455  0.3063 -0.2474
15960TIP3   OH269294   5.028   6.245  15.008 -0.2287  0.0455 -0.0718
15960TIP3    H169295   5.079   6.175  14.965 -0.1876  0.4804 -0.7406
15960TIP3    H269296   5.087   6.278  15.075  0.1195  0.0767 -0.3861
15961TIP3   OH269297   6.148   6.589   1.490  0.3412 -0.5340  0.0461
15961TIP3    H169298   6.127   6.539   1.569  0.8722  0.0428  0.5653
15961TIP3    H269299   6.167   6.523   1.424  1.2240 -1.0379  0.7743
15962TIP3   OH269300   5.603   4.762  13.301 -0.1222  0.0115  0.0608
15962TIP3    H169301   5.624   4.822  13.372  1.7061 -0.3205 -0.1511
15962TIP3    H269302   5.655   4.794  13.227  1.5556 -2.2567  0.1674
15963TIP3   OH269303   0.702   4.291  14.847  0.1400 -0.2780  0.3699
15963TIP3    H169304   0.667   4.295  14.758 -0.1720  0.7343  0.5239
15963TIP3    H269305   0.628   4.266  14.901  0.2626 -0.6083  0.3894
15964TIP3   OH269306   5.158   2.485  14.052  0.3181  0.0340  0.7143
15964TIP3    H169307   5.207   2.503  13.972  1.0149  0.7005  1.2803
15964TIP3    H269308   5.068   2.511  14.032  0.9536  2.6979  0.9604
15965TIP3   OH269309   1.224   4.629  14.123 -0.5583 -0.1230 -0.3101
15965TIP3    H169310   1.204   4.576  14.046  2.1042  0.1902 -1.3245
15965TIP3    H269311   1.248   4.565  14.191 -1.2868 -0.3334 -0.2450
15966TIP3   OH269312   3.179   1.258  13.750  0.1952 -0.1575  0.3676
15966TIP3    H169313   3.167   1.216  13.835  1.2118  0.4867  0.8423
15966TIP3    H269314   3.166   1.351  13.766  0.4598 -0.0215 -0.1689
15967TIP3   OH269315   5.710   5.811  13.380  0.3932  0.0456 -0.5655
15967TIP3    H169316   5.741   5.899  13.400 -2.2974  0.8746  0.3127
15967TIP3    H269317   5.652   5.822  13.305 -0.3388 -0.8863 -0.1574
15968TIP3   OH269318   5.021   6.368  10.811  0.3222 -0.2045 -0.4494
15968TIP3    H169319   4.939   6.416  10.817 -1.0728 -2.4615 -0.2676
15968TIP3    H269320   5.036   6.357  10.717  0.8344  0.8346 -0.5007
15969TIP3   OH269321   0.165   2.992   5.895  0.1543  0.1869  0.2279
15969TIP3    H169322   0.080   2.956   5.870 -0.0340  0.4185  0.5261
15969TIP3    H269323   0.173   2.973   5.988  0.4803  0.0709  0.1799
15970TIP3   OH269324   6.663   6.654   2.503  0.1322 -0.7008  0.1923
15970TIP3    H169325   6.570   6.669   2.518  0.2202  0.9966 -0.7452
15970TIP3    H269326   6.690   6.724   2.444  1.9818 -1.2353  0.3273
15971TIP3   OH269327   2.860   3.653  14.493  0.5074  0.1600  0.4958
15971TIP3    H169328   2.802   3.643  14.568  1.3337 -0.3410  1.0909
15971TIP3    H269329   2.809   3.620  14.419  0.3760 -1.2720  1.1707
15972TIP3   OH269330   5.404   5.588  13.547 -0.0025  0.0521 -0.1927
15972TIP3    H169331   5.489   5.616  13.582  0.7348 -0.0658 -1.8005
15972TIP3    H269332   5.349   5.577  13.625  2.0907 -2.1331  1.1349
15973TIP3   OH269333   2.795   2.808   5.719 -0.3782  0.2269  0.0902
15973TIP3    H169334   2.756   2.894   5.730 -0.9198  0.0584 -0.4895
15973TIP3    H269335   2.764   2.778   5.634  1.1243  0.1461 -0.4567
15974TIP3   OH269336   3.881   0.129  11.088  0.1747 -0.3252 -0.2271
15974TIP3    H169337   3.913   0.164  11.006  0.3259  0.5196  0.1836
15974TIP3    H269338   3.795   0.092  11.067 -0.6687  1.6291 -0.3967
15975TIP3   OH269339   2.533   3.187  15.589  0.8379  0.1777 -0.3878
15975TIP3    H169340   2.461   3.176  15.650 -0.7975 -0.9092 -2.4193
15975TIP3    H269341   2.507   3.260  15.533  2.4196  1.3133  0.2429
15976TIP3   OH269342   6.784   2.561   4.179  0.2483  0.4864 -0.6439
15976TIP3    H169343   6.757   2.645   4.141 -0.7799  0.8170  0.7231
15976TIP3    H269344   6.756   2.566   4.271  0.4142 -1.2503 -0.4614
15977TIP3   OH269345   0.175   0.651   4.747  0.1749 -0.2298  0.5469
15977TIP3    H169346   0.126   0.573   4.720 -2.0969  1.2991  0.0567
15977TIP3    H269347   0.121   0.692   4.813  1.0361  1.2792  0.3565
15978TIP3   OH269348   4.396   1.876   1.175 -0.4644 -0.4227 -0.0554
15978TIP3    H169349   4.308   1.910   1.182 -0.4886 -0.6635  1.0024
15978TIP3    H269350   4.432   1.883   1.264  0.7710  0.1768 -0.5730
15979TIP3   OH269351   5.222   5.089   2.278  0.1629  0.0925  0.0272
15979TIP3    H169352   5.216   4.999   2.310 -0.8475 -0.2407 -1.0706
15979TIP3    H269353   5.198   5.143   2.354 -0.1811 -0.6006  0.4201
15980TIP3   OH269354   1.427   2.099   1.976  0.1050 -0.1264 -0.0147
15980TIP3    H169355   1.341   2.133   2.002  0.3667  0.2472  0.3800
15980TIP3    H269356   1.425   2.007   2.003  0.4938  0.3318  1.7071
15981TIP3   OH269357   4.798   5.471  15.893 -0.0580 -0.2115  0.3029
15981TIP3    H169358   4.734   5.399  15.899  0.0493 -0.2143  1.7826
15981TIP3    H269359   4.780   5.524  15.970  0.3542  0.9642 -0.3956
15982TIP3   OH269360   3.643   0.531   0.021 -0.2720 -0.4980 -0.1909
15982TIP3    H169361   3.715   0.480  -0.017 -0.5571 -0.9381 -0.1393
15982TIP3    H269362   3.675   0.555   0.108 -0.2907 -0.9187 -0.0652
15983TIP3   OH269363   3.457   0.529   3.126  0.3417 -0.1206 -0.1696
15983TIP3    H169364   3.475   0.455   3.068  0.8040  0.1197 -0.3364
15983TIP3    H269365   3.519   0.596   3.100  0.1328  0.2198  0.1886
15984TIP3   OH269366   4.042   6.292   2.912 -0.1088 -0.5127 -0.0924
15984TIP3    H169367   4.133   6.314   2.932 -0.1554 -0.5502  0.1728
15984TIP3    H269368   3.994   6.316   2.992 -0.6325  1.3343 -0.9122
15985TIP3   OH269369   1.332   6.537  17.015  0.0070  0.4260  0.2591
15985TIP3    H169370   1.396   6.578  17.073  0.9720  1.4833 -1.4755
15985TIP3    H269371   1.384   6.487  16.952 -1.0675 -2.1222  1.2248
15986TIP3   OH269372   2.336   6.235   1.323 -0.2014  0.0070 -0.0280
15986TIP3    H169373   2.380   6.293   1.385 -0.4979  1.0117 -0.7275
15986TIP3    H269374   2.243   6.260   1.329 -0.3547 -0.5042 -0.2206
15987TIP3   OH269375   5.733   1.163   1.823 -0.0605 -0.3898 -0.6307
15987TIP3    H169376   5.698   1.129   1.740  0.8389 -2.4783 -0.2236
15987TIP3    H269377   5.728   1.089   1.883  1.0224  0.5376  0.6542
15988TIP3   OH269378   2.968   6.089  11.976 -0.3808  0.4246 -0.6630
15988TIP3    H169379   2.948   6.036  12.053 -1.4345 -0.6378 -1.6225
15988TIP3    H269380   3.047   6.137  12.000 -0.8986  0.4250  1.2163
15989TIP3   OH269381   6.300   2.628   2.971  0.5789 -0.6180  0.6082
15989TIP3    H169382   6.251   2.699   2.929  0.9514 -1.0612 -0.5995
15989TIP3    H269383   6.279   2.550   2.920  1.1186 -1.1556  1.1892
15990TIP3   OH269384   5.257   0.123   0.149 -1.1191  0.3886  0.6926
15990TIP3    H169385   5.166   0.148   0.169 -0.9311  0.6211  1.2813
15990TIP3    H269386   5.253   0.028   0.138 -1.5617  0.4822 -0.0049
15991TIP3   OH269387   4.389   1.880   4.509  0.0956  0.0520  0.5873
15991TIP3    H169388   4.307   1.885   4.460  0.2346  1.7692  0.4455
15991TIP3    H269389   4.439   1.957   4.480 -0.2633  1.8272  4.1327
15992TIP3   OH269390   5.189   4.531  13.481 -0.0976 -0.3824 -0.2017
15992TIP3    H169391   5.267   4.585  13.471 -1.5568  1.5536 -1.8891
15992TIP3    H269392   5.181   4.517  13.575  1.9016 -0.0874  0.0548
15993TIP3   OH269393   2.561   0.968   6.341 -0.5968  0.8201  0.8783
15993TIP3    H169394   2.648   0.980   6.303  0.0197 -0.8253  1.6580
15993TIP3    H269395   2.553   1.038   6.405 -0.1949  1.4812  0.2161
15994TIP3   OH269396   3.380   1.379  11.873 -0.3566 -0.4111 -0.4422
15994TIP3    H169397   3.463   1.340  11.900 -0.7862 -0.4803  0.8236
15994TIP3    H269398   3.402   1.429  11.794  0.6144 -1.4719 -0.8736
15995TIP3   OH269399   2.733   4.085   5.483  0.1012  0.6421 -0.4642
15995TIP3    H169400   2.754   4.005   5.435 -0.9285 -0.6689  1.1385
15995TIP3    H269401   2.756   4.156   5.423  1.9870 -0.8096 -1.5667
15996TIP3   OH269402   1.331   1.861   4.829  0.4450  0.3252 -0.0925
15996TIP3    H169403   1.337   1.956   4.828  0.8592  0.3733  2.0773
15996TIP3    H269404   1.258   1.842   4.888 -0.6252 -0.7134 -1.6623
15997TIP3   OH269405   3.667   2.979   2.929 -0.5206  0.1730  0.2920
15997TIP3    H169406   3.743   2.940   2.974 -0.0489  0.5871 -0.1271
15997TIP3    H269407   3.674   2.948   2.839  1.2718  3.0627 -0.7131
15998TIP3   OH269408   1.539   3.797   0.568 -0.0868 -0.0762  0.3890
15998TIP3    H169409   1.485   3.840   0.634 -0.2989  1.4366 -0.7155
15998TIP3    H269410   1.512   3.837   0.485 -0.0349 -2.1195 -0.6790
15999TIP3   OH269411   2.732   1.521   0.284  0.2551  0.1878  0.3466
15999TIP3    H169412   2.773   1.501   0.200 -1.5490 -2.7038  0.0145
15999TIP3    H269413   2.687   1.604   0.270 -0.0829 -0.2914 -1.5918
16000TIP3   OH269414   5.499   4.482   6.333  0.1615  0.1014  0.3717
16000TIP3    H169415   5.592   4.507   6.333 -0.3129  2.1167  1.6312
16000TIP3    H269416   5.454   4.560   6.365 -1.8393 -1.3348  1.2254
16001TIP3   OH269417   2.406   2.150  13.405 -0.0393 -0.2246  0.3232
16001TIP3    H169418   2.353   2.229  13.397  1.9563  1.3076  1.3880
16001TIP3    H269419   2.495   2.182  13.424  0.6624 -2.7246  1.7180
16002TIP3   OH269420   4.651   5.691  11.524 -0.0251  0.1993  0.0705
16002TIP3    H169421   4.614   5.694  11.435  1.4082  0.4523 -0.5414
16002TIP3    H269422   4.635   5.778  11.560 -0.7396  0.0517  0.1372
16003TIP3   OH269423   4.400   5.963   4.393  0.2007 -0.2291  0.5057
16003TIP3    H169424   4.384   6.055   4.411 -0.2781 -0.3449  0.7066
16003TIP3    H269425   4.442   5.961   4.308 -1.0613  0.0999 -0.1493
16004TIP3   OH269426   2.774   4.272   3.149 -0.1994  0.8103 -0.1276
16004TIP3    H169427   2.679   4.269   3.141 -0.0624  0.0509 -1.9645
16004TIP3    H269428   2.803   4.185   3.123  1.0030  0.9722  0.5853
16005TIP3   OH269429   1.817   1.265  16.033 -0.2092 -0.4200  0.0772
16005TIP3    H169430   1.782   1.265  15.944  1.4054  0.7477 -0.5960
16005TIP3    H269431   1.779   1.343  16.074 -1.7497 -1.4936  0.7904
16006TIP3   OH269432   0.213   1.413   2.945 -0.4354 -0.1019  0.4268
16006TIP3    H169433   0.132   1.428   2.994  0.0918 -0.0379  1.3010
16006TIP3    H269434   0.280   1.457   2.996 -0.0749  1.2714 -1.1427
16007TIP3   OH269435   4.906   2.892   4.803 -0.5151  0.0263 -0.1469
16007TIP3    H169436   4.871   2.842   4.729  0.4699 -1.1370  0.1258
16007TIP3    H269437   4.904   2.983   4.775 -1.6875 -0.2321 -0.9544
16008TIP3   OH269438   6.636   3.482  16.320 -0.1807 -0.1778  0.4471
16008TIP3    H169439   6.605   3.532  16.245 -0.1648 -0.1804  0.4388
16008TIP3    H269440   6.728   3.509  16.331 -0.5027  0.6746  1.1648
16009TIP3   OH269441   2.535   1.637   3.612 -0.8655  0.4734 -0.6275
16009TIP3    H169442   2.591   1.674   3.680 -2.6466  1.4641  0.3995
16009TIP3    H269443   2.479   1.574   3.659 -1.2122  0.1529 -1.4425
16010TIP3   OH269444   5.119   0.073  14.670  0.1999 -0.4199  0.1123
16010TIP3    H169445   5.050   0.104  14.611  0.7060  3.2466  1.2123
16010TIP3    H269446   5.091   0.100  14.757  2.6490  0.5465  0.6803
16011TIP3   OH269447   6.074   0.620  13.021  0.7164 -0.4506 -0.1040
16011TIP3    H169448   6.109   0.564  12.951 -0.5572  0.0160 -1.1719
16011TIP3    H269449   6.106   0.707  12.999 -0.4732 -0.1366 -0.7070
16012TIP3   OH269450   1.716   1.215   2.701  0.1297 -0.2649  0.3866
16012TIP3    H169451   1.722   1.235   2.607  0.5130 -3.2425 -0.3333
16012TIP3    H269452   1.791   1.259   2.740  0.4875  0.2582 -0.8362
16013TIP3   OH269453   0.396   1.620   4.927  0.1207  0.0734 -0.4539
16013TIP3    H169454   0.427   1.696   4.877  0.0554 -0.4392 -1.2960
16013TIP3    H269455   0.328   1.582   4.872 -0.0854 -0.4039  0.1210
16014TIP3   OH269456   1.759   5.509  16.944  0.5003 -0.1722  0.2143
16014TIP3    H169457   1.764   5.438  17.008 -1.2484 -1.4915 -1.0228
16014TIP3    H269458   1.797   5.472  16.865 -0.0440  0.4121 -0.3246
16015TIP3   OH269459   5.265   6.723  16.784  0.4941  0.3088 -0.0227
16015TIP3    H169460   5.172   6.706  16.772  0.3219  0.2736  1.1677
16015TIP3    H269461   5.287   6.787  16.716 -0.3718  0.2396 -0.3841
16016TIP3   OH269462   1.709   0.460  15.066  0.1013  0.4850 -0.0460
16016TIP3    H169463   1.649   0.494  15.000 -1.0729  1.2862  1.3642
16016TIP3    H269464   1.793   0.502  15.046 -0.0894  0.3063 -1.3052
16017TIP3   OH269465   1.673   4.073  12.125  0.3605  0.7699  0.4346
16017TIP3    H169466   1.731   4.149  12.121  0.6134  0.5154 -1.0431
16017TIP3    H269467   1.620   4.088  12.203  0.5174  2.3790  0.2595
16018TIP3   OH269468   3.612   0.719  14.435  0.5053  0.0094  0.0451
16018TIP3    H169469   3.652   0.632  14.447  1.4674  0.6587  2.1017
16018TIP3    H269470   3.624   0.738  14.342  0.4216 -1.9802 -0.4193
16019TIP3   OH269471   5.909   2.110  14.433  0.1183 -0.6798  0.1117
16019TIP3    H169472   5.965   2.054  14.488 -1.3644 -1.7709  0.5750
16019TIP3    H269473   5.821   2.096  14.467 -0.5231  0.5780 -0.9574
16020TIP3   OH269474   2.632   2.043  17.100  0.1343 -0.1692  0.0277
16020TIP3    H169475   2.564   2.007  17.157 -0.7745  0.3822 -0.6621
16020TIP3    H269476   2.626   2.137  17.112  1.0733 -0.1313  0.2647
16021TIP3   OH269477   0.842   1.485  16.580  0.1278  0.2577  0.3473
16021TIP3    H169478   0.779   1.518  16.516  0.8990  0.9759 -0.0724
16021TIP3    H269479   0.888   1.414  16.535 -1.4696 -1.4015  1.2179
16022TIP3   OH269480   5.350   6.424  10.731  0.7347  1.0951 -0.2183
16022TIP3    H169481   5.446   6.423  10.731  0.7655  1.4237  1.1587
16022TIP3    H269482   5.325   6.342  10.774  0.3207  0.0855 -2.2651
16023TIP3   OH269483   5.594   1.689  15.749  0.7510  0.2258 -0.3550
16023TIP3    H169484   5.570   1.674  15.657  1.7908 -1.4732 -0.3916
16023TIP3    H269485   5.643   1.771  15.748 -0.0840  0.7404 -1.1430
16024TIP3   OH269486   1.409   5.498   0.004  0.1569 -0.4554 -0.1677
16024TIP3    H169487   1.397   5.450   0.086  0.0073  0.6709  0.4835
16024TIP3    H269488   1.321   5.531  -0.017  0.4849  0.5788  0.0569
16025TIP3   OH269489   4.202   0.882   2.140 -0.5600  0.8341  0.0945
16025TIP3    H169490   4.125   0.938   2.132 -1.3130 -0.2145 -0.2778
16025TIP3    H269491   4.243   0.908   2.223 -2.8289 -0.3940  1.6958
16026TIP3   OH269492   4.469   4.271   5.634 -0.4696  0.1968  0.1174
16026TIP3    H169493   4.530   4.345   5.638 -0.2609 -0.0214  2.1986
16026TIP3    H269494   4.382   4.312   5.630 -0.3102  0.5490  0.2416
16027TIP3   OH269495   1.616   0.357  11.470 -0.1666 -0.7927  0.2702
16027TIP3    H169496   1.559   0.424  11.433 -2.3712 -2.5737  0.2724
16027TIP3    H269497   1.652   0.312  11.393 -0.6814 -1.1977  0.2610
16028TIP3   OH269498   2.644   1.707  16.636  0.1875 -0.3896  0.2824
16028TIP3    H169499   2.642   1.698  16.541  1.3256 -1.3676  0.3241
16028TIP3    H269500   2.650   1.802  16.652  0.2171 -0.2384 -0.6208
16029TIP3   OH269501   2.254   1.579   3.678 -1.0331 -0.1281 -0.8438
16029TIP3    H169502   2.159   1.575   3.662 -1.1803  2.1372 -0.9573
16029TIP3    H269503   2.272   1.673   3.688  1.1409 -0.5441 -0.3709
16030TIP3   OH269504   0.343   4.919  12.043 -0.6169  1.0016  1.1317
16030TIP3    H169505   0.358   5.013  12.050  2.8286  1.0577 -3.0219
16030TIP3    H269506   0.426   4.880  12.072 -0.9158 -0.5176  0.0681
16031TIP3   OH269507   3.917   3.328   0.416 -0.2874  0.4938 -0.6550
16031TIP3    H169508   4.011   3.315   0.421 -0.3989 -0.0825  0.3080
16031TIP3    H269509   3.905   3.423   0.427  0.2040  0.6686 -1.5480
16032TIP3   OH269510   2.871   4.004   0.802 -0.1648 -0.5384  0.1035
16032TIP3    H169511   2.932   3.931   0.791 -0.9484 -0.9828 -1.8142
16032TIP3    H269512   2.824   4.008   0.718 -1.4153  1.0087  0.8300
16033TIP3   OH269513   4.402   0.397   0.993 -0.1419 -0.5563  0.0593
16033TIP3    H169514   4.387   0.477   1.043 -0.4387 -0.4188 -0.2503
16033TIP3    H269515   4.342   0.333   1.031 -0.0735 -0.5671  0.1500
16034TIP3   OH269516   0.459   0.722  12.801 -0.7414 -0.1523  0.3071
16034TIP3    H169517   0.526   0.768  12.750 -0.0202 -0.2037  1.1967
16034TIP3    H269518   0.440   0.643  12.750 -0.4434  0.0799 -0.1649
16035TIP3   OH269519   1.761   1.111  16.442 -0.1272 -0.0092  0.6655
16035TIP3    H169520   1.676   1.098  16.402 -0.7411  2.4140  0.9919
16035TIP3    H269521   1.812   1.034  16.417 -2.0404 -0.9719 -0.4756
16036TIP3   OH269522   0.014   0.699  15.408 -0.0459 -0.7040 -0.2998
16036TIP3    H169523  -0.023   0.784  15.430 -1.6190 -1.3795 -0.1923
16036TIP3    H269524  -0.021   0.640  15.474  1.6526 -1.3237  0.0969
16037TIP3   OH269525   3.894   3.894  12.805 -0.3059 -0.2353 -0.2220
16037TIP3    H169526   3.818   3.837  12.791 -0.0917 -0.3467 -0.9792
16037TIP3    H269527   3.874   3.942  12.885 -0.7506 -0.9546  0.1081
16038TIP3   OH269528   1.946   4.156   5.731 -0.2691 -0.7805 -0.5837
16038TIP3    H169529   1.854   4.131   5.719 -1.2147  1.3572  1.4723
16038TIP3    H269530   1.963   4.140   5.824  0.0387  2.6895  0.1077
16039TIP3   OH269531   1.523   5.518  14.717  0.3770  0.6407  0.0766
16039TIP3    H169532   1.601   5.472  14.687 -0.8138 -1.0776 -0.5579
16039TIP3    H269533   1.506   5.583  14.649 -0.5822 -1.2135 -1.5667
16040TIP3   OH269534   6.264   1.472  17.040 -0.2398  0.3328  0.2541
16040TIP3    H169535   6.185   1.502  16.996  0.3257  1.5147 -0.0026
16040TIP3    H269536   6.234   1.407  17.103 -1.4068  0.7767  0.1704
16041TIP3   OH269537   0.778   4.894   1.546 -0.5033  0.5815 -0.0960
16041TIP3    H169538   0.784   4.816   1.491 -0.4564 -0.2394  1.0477
16041TIP3    H269539   0.850   4.885   1.609 -1.6937  0.5124  1.3177
16042TIP3   OH269540   2.539   6.515   5.658  0.5750 -0.1664  0.6150
16042TIP3    H169541   2.487   6.483   5.584  1.4383 -0.1180 -0.0210
16042TIP3    H269542   2.487   6.588   5.693  0.3363  0.0564 -0.1822
16043TIP3   OH269543   1.859   5.767  16.419  0.3079 -0.2578 -0.3846
16043TIP3    H169544   1.765   5.755  16.407  0.4944  0.2057 -3.2488
16043TIP3    H269545   1.898   5.721  16.345  2.0931  2.2067 -1.1133
16044TIP3   OH269546   1.809   2.865   6.255  0.2796 -0.3157 -0.2056
16044TIP3    H169547   1.887   2.845   6.307  2.2722  1.5295 -2.2729
16044TIP3    H269548   1.790   2.957   6.275 -0.8652 -0.4913 -0.4069
16045TIP3   OH269549   3.714   6.460   3.729  0.4484 -0.1826 -0.5147
16045TIP3    H169550   3.720   6.475   3.823  1.4427  1.9093 -0.8707
16045TIP3    H269551   3.800   6.482   3.695 -0.1406 -0.0853 -2.0246
16046TIP3   OH269552   0.111   6.191   4.078  0.1972  0.3559  0.2573
16046TIP3    H169553   0.065   6.272   4.101  1.9285  0.9114  2.0976
16046TIP3    H269554   0.189   6.221   4.031  0.1202 -0.3617 -0.3396
16047TIP3   OH269555   5.802   2.108   4.570  0.3855 -0.2096  0.0356
16047TIP3    H169556   5.754   2.186   4.596 -0.5796 -0.4537 -0.9267
16047TIP3    H269557   5.805   2.053   4.648 -0.7100 -0.0845  0.1675
16048TIP3   OH269558   3.507   2.460  14.869  0.3271  0.3839 -0.5861
16048TIP3    H169559   3.546   2.538  14.907  2.2111  0.1864 -1.9555
16048TIP3    H269560   3.496   2.482  14.776 -0.3345 -0.5310 -0.7374
16049TIP3   OH269561   6.194   6.766   5.455 -0.1764 -0.3472  0.4353
16049TIP3    H169562   6.202   6.670   5.453  1.4127 -0.2326 -1.2111
16049TIP3    H269563   6.167   6.786   5.545 -2.9212 -2.4572  0.2201
16050TIP3   OH269564   2.478   3.535   0.739  0.2576  0.0225  0.4076
16050TIP3    H169565   2.538   3.539   0.814  1.1821 -1.4004 -0.2243
16050TIP3    H269566   2.525   3.578   0.668 -0.1833  0.4173  0.3478
16051TIP3   OH269567   5.382   0.844  17.068  0.5512 -0.2215 -0.4872
16051TIP3    H169568   5.346   0.922  17.110  0.0738  0.2280 -1.6932
16051TIP3    H269569   5.309   0.783  17.065  0.7848 -0.5324 -0.0206
16052TIP3   OH269570   3.573   0.095  11.946  0.4265 -0.0450  0.1463
16052TIP3    H169571   3.517   0.061  12.015 -0.0026  0.9774  0.3209
16052TIP3    H269572   3.512   0.137  11.884  0.7391 -1.4512 -1.1691
16053TIP3   OH269573   4.519   0.589   1.587 -0.3787  0.0217  0.0234
16053TIP3    H169574   4.595   0.549   1.629 -1.7582  0.3706  3.1499
16053TIP3    H269575   4.447   0.529   1.606 -1.2698  0.7295 -1.0084
16054TIP3   OH269576   4.736   1.209   0.094 -0.2443  0.0235  0.1177
16054TIP3    H169577   4.660   1.265   0.076 -0.2263 -0.2456 -0.8930
16054TIP3    H269578   4.699   1.127   0.125 -0.3290  0.1956  0.4672
16055TIP3   OH269579   3.515   4.709  15.295  0.2399 -0.1492  1.0737
16055TIP3    H169580   3.436   4.711  15.241  1.6859 -0.4352 -1.1939
16055TIP3    H269581   3.523   4.798  15.329 -0.3093  0.2578  0.1680
16056TIP3   OH269582   5.513   0.178  11.793 -0.0634  0.7884 -0.4026
16056TIP3    H169583   5.588   0.233  11.813  0.9414 -0.3968 -0.8002
16056TIP3    H269584   5.546   0.114  11.730 -1.2706 -0.0697 -0.2027
16057TIP3   OH269585   4.301   4.018  16.129 -0.1682  0.1946  0.1291
16057TIP3    H169586   4.299   4.017  16.033 -0.1700  0.1164  0.1292
16057TIP3    H269587   4.341   4.102  16.151  2.2100 -0.8117  0.0140
16058TIP3   OH269588   4.322   3.875   3.901  0.0075 -0.3340 -0.0634
16058TIP3    H169589   4.298   3.829   3.821  0.5197 -0.6361 -0.0486
16058TIP3    H269590   4.239   3.893   3.945 -0.2080 -1.0608 -0.1682
16059TIP3   OH269591   1.511   0.488  14.539 -0.1197  0.3684  0.7877
16059TIP3    H169592   1.418   0.507  14.530  0.1924  2.5258  1.6225
16059TIP3    H269593   1.555   0.564  14.501  1.3315 -0.6627  0.3017
16060TIP3   OH269594   1.283   0.277  13.888  0.0127 -0.4404 -0.1224
16060TIP3    H169595   1.259   0.336  13.960  1.6200  1.7451 -1.2768
16060TIP3    H269596   1.207   0.279  13.830  0.1225  0.6889 -0.2470
16061TIP3   OH269597   5.313   2.183  13.846  0.2530  0.2087 -0.0333
16061TIP3    H169598   5.229   2.221  13.820  0.2243  0.5481  0.5412
16061TIP3    H269599   5.289   2.114  13.908  0.3749  0.0215 -0.1938
16062TIP3   OH269600   4.300   2.914   1.699  0.0142  0.4715 -0.1845
16062TIP3    H169601   4.393   2.934   1.710 -0.1979  1.3785  0.1093
16062TIP3    H269602   4.299   2.829   1.655  0.9575 -1.2007  2.7335
16063TIP3   OH269603   1.806   4.498  13.596 -0.2623  0.2182  0.0725
16063TIP3    H169604   1.802   4.592  13.579 -0.5809  0.8440  3.1442
16063TIP3    H269605   1.784   4.489  13.688  1.3992 -2.7415  0.3006
16064TIP3   OH269606   1.508   4.991  12.334  0.2653 -0.1262 -0.3558
16064TIP3    H169607   1.452   5.063  12.363  0.7675 -0.3632  1.2959
16064TIP3    H269608   1.508   4.997  12.239 -0.5300  1.4165 -0.2812
16065TIP3   OH269609   6.490   6.306   5.606  0.7926  0.1495 -0.0050
16065TIP3    H169610   6.442   6.386   5.583  0.0375 -0.2578  0.1253
16065TIP3    H269611   6.576   6.337   5.633 -0.4969  1.3008  3.3884
16066TIP3   OH269612   0.832   3.425   3.762 -0.2671 -0.3777 -0.2185
16066TIP3    H169613   0.790   3.475   3.832 -0.3059 -0.8652  0.1107
16066TIP3    H269614   0.795   3.461   3.682 -1.0978 -0.5988  0.0558
16067TIP3   OH269615   3.511   3.116  13.186 -0.1219 -0.2491 -0.7485
16067TIP3    H169616   3.446   3.066  13.136 -2.2133  1.0908  0.4881
16067TIP3    H269617   3.510   3.076  13.273 -0.5758  0.8474 -0.2322
16068TIP3   OH269618   0.968   1.773   0.179  0.1407  0.6943  0.3198
16068TIP3    H169619   1.021   1.836   0.130  1.0959 -0.8080 -0.6831
16068TIP3    H269620   0.887   1.766   0.129  0.4307  0.4207 -0.1209
16069TIP3   OH269621   6.134   0.215   0.940  0.1975  0.2707  0.0144
16069TIP3    H169622   6.042   0.195   0.957  0.1999 -0.5248 -0.8229
16069TIP3    H269623   6.165   0.141   0.887  1.3479  0.4791  0.3737
16070TIP3   OH269624   2.237   4.540  15.802 -0.7920  0.2245  0.1869
16070TIP3    H169625   2.193   4.487  15.736 -1.9678  3.4508 -1.8191
16070TIP3    H269626   2.325   4.556  15.767  0.1087 -1.4333  1.4885
16071TIP3   OH269627   5.287   0.807  15.167  0.4474 -0.4965 -0.2950
16071TIP3    H169628   5.245   0.721  15.173  0.0112 -0.1945  1.3661
16071TIP3    H269629   5.372   0.795  15.211  0.1342  0.0635  0.4766
16072TIP3   OH269630   0.586   5.982   2.699 -0.0808  0.2503 -0.3702
16072TIP3    H169631   0.557   5.908   2.751 -0.5837  0.3810 -0.4594
16072TIP3    H269632   0.677   5.963   2.677 -0.0692 -0.1126  0.0048
16073TIP3   OH269633   0.324   2.824  10.369 -0.5121 -0.0918  0.0781
16073TIP3    H169634   0.415   2.838  10.343 -0.2993 -0.2244  0.7316
16073TIP3    H269635   0.283   2.909  10.359 -0.0772  0.1990  0.6952
16074TIP3   OH269636   2.791   5.341   2.445  0.0374 -0.2319  0.0110
16074TIP3    H169637   2.855   5.395   2.493 -0.0212 -1.0344  1.0367
16074TIP3    H269638   2.712   5.394   2.443  0.0434 -0.1793  0.8142
16075TIP3   OH269639   5.867   1.297   2.709  0.5907  0.6963  0.0379
16075TIP3    H169640   5.786   1.296   2.657  0.1924 -2.2036  0.5217
16075TIP3    H269641   5.836   1.305   2.800  0.6758 -1.4710  0.3123
16076TIP3   OH269642   6.609   4.733   0.497 -0.4954 -0.3443 -0.4972
16076TIP3    H169643   6.688   4.786   0.489 -1.0134  0.7956  1.2421
16076TIP3    H269644   6.545   4.777   0.440  0.0842 -1.2705 -1.9092
16077TIP3   OH269645   6.010   5.583  11.946 -0.2881  0.1448  0.3572
16077TIP3    H169646   6.095   5.618  11.970  0.9068 -0.6736 -2.3147
16077TIP3    H269647   5.955   5.661  11.932  1.0708  0.8606 -1.2818
16078TIP3   OH269648   1.004   6.752  16.904 -0.2710 -0.3006 -0.5529
16078TIP3    H169649   1.011   6.846  16.921  1.2060 -0.2578 -1.2024
16078TIP3    H269650   0.910   6.734  16.907 -0.5210  1.0149  0.4738
16079TIP3   OH269651   4.228   4.667  11.577 -0.2288  0.5108 -0.0380
16079TIP3    H169652   4.238   4.743  11.635 -0.1935  1.0689 -0.7515
16079TIP3    H269653   4.304   4.672  11.518  0.7292 -1.0839  0.9982
16080TIP3   OH269654   3.467   0.806  15.089  0.0774 -0.1326 -0.2379
16080TIP3    H169655   3.463   0.825  15.183  1.2160  0.6219 -0.3163
16080TIP3    H269656   3.458   0.711  15.083  0.9213 -0.2855  0.7109
16081TIP3   OH269657   6.496   3.825   2.652  0.3288  0.1100  0.6039
16081TIP3    H169658   6.439   3.769   2.704  0.0267 -1.0967 -0.9536
16081TIP3    H269659   6.437   3.880   2.601  0.5974  0.2244  0.4116
16082TIP3   OH269660   1.469   5.012   3.053 -0.1686  0.5110 -0.0893
16082TIP3    H169661   1.464   4.983   2.961  1.0052 -0.0521 -0.0024
16082TIP3    H269662   1.457   4.931   3.103 -0.1078  0.7015  0.2309
16083TIP3   OH269663   0.323   0.303  12.722  0.5940  0.2495  0.0884
16083TIP3    H169664   0.232   0.289  12.747  1.0259 -0.4043  1.4041
16083TIP3    H269665   0.333   0.256  12.639 -0.4200  0.8800 -0.4061
16084TIP3   OH269666   4.912   2.358  13.000 -0.2245  0.1406 -0.1859
16084TIP3    H169667   4.874   2.302  12.932 -0.7474  1.2733 -0.8508
16084TIP3    H269668   5.007   2.351  12.986 -0.2754 -0.5720 -0.2433
16085TIP3   OH269669   2.198   2.586   0.999  0.2523  0.5532  0.3171
16085TIP3    H169670   2.193   2.500   1.040 -0.7064  0.2689 -0.3709
16085TIP3    H269671   2.287   2.591   0.965 -0.4713 -1.3712 -2.1623
16086TIP3   OH269672   0.887   4.745   2.410 -0.0036  0.4100  0.0034
16086TIP3    H169673   0.866   4.838   2.399 -3.5145 -0.2487 -0.2412
16086TIP3    H269674   0.810   4.709   2.454  1.4268 -2.3313  0.4442
16087TIP3   OH269675   3.935   5.881   1.915 -0.3023  0.4699 -0.2134
16087TIP3    H169676   3.985   5.839   1.985 -1.1286  0.3540  0.3221
16087TIP3    H269677   3.978   5.853   1.834  1.0823  1.1554  0.2678
16088TIP3   OH269678   5.208   3.428   0.775 -0.5808 -0.0210 -0.1536
16088TIP3    H169679   5.161   3.359   0.728  2.0894 -1.5827 -0.7536
16088TIP3    H269680   5.212   3.396   0.865  0.3538 -0.5375 -0.3615
16089TIP3   OH269681   0.691   5.066   2.740  0.0992  0.0546  0.0121
16089TIP3    H169682   0.675   5.014   2.819  1.4304  1.2755  1.1652
16089TIP3    H269683   0.605   5.098   2.714 -0.5269 -1.3738  0.2098
16090TIP3   OH269684   2.201   2.476  15.711  0.1684 -0.3327 -0.1987
16090TIP3    H169685   2.255   2.399  15.691  1.4584  0.6628 -0.6658
16090TIP3    H269686   2.168   2.459  15.799  1.8385 -0.6655  0.3969
16091TIP3   OH269687   6.753   6.770   4.359 -0.1576 -0.6121  0.1344
16091TIP3    H169688   6.703   6.766   4.440 -1.0093 -0.8627 -0.3900
16091TIP3    H269689   6.843   6.748   4.385 -0.6949 -2.2015  0.7645
16092TIP3   OH269690   4.358   6.734   3.039 -0.2953  0.7799  0.3182
16092TIP3    H169691   4.364   6.802   3.106 -1.0319  0.9941  0.1836
16092TIP3    H269692   4.339   6.782   2.958  0.3923  0.5085 -0.0138
16093TIP3   OH269693   0.363   2.167   5.581  0.0918 -0.0740 -0.0373
16093TIP3    H169694   0.281   2.146   5.536 -0.0250  2.9853 -1.5253
16093TIP3    H269695   0.430   2.158   5.513  0.4174  1.1668  0.1004
16094TIP3   OH269696   3.470   4.979   2.976 -0.0896  0.5083  0.2368
16094TIP3    H169697   3.528   4.911   3.011  0.1724 -0.0760 -1.2667
16094TIP3    H269698   3.448   4.949   2.888  0.5946  2.6900 -0.7586
16095TIP3   OH269699   6.595   3.018   0.830 -0.4003  0.2131  0.0989
16095TIP3    H169700   6.620   3.034   0.921 -1.7491  0.3232  0.4703
16095TIP3    H269701   6.580   2.924   0.825 -1.6547  0.3712  0.3765
16096TIP3   OH269702   0.871   2.562   0.440 -0.6693  0.0230  0.4520
16096TIP3    H169703   0.904   2.547   0.529  1.0393 -1.7276 -0.4001
16096TIP3    H269704   0.776   2.564   0.450 -0.5506 -0.9628  2.2142
16097TIP3   OH269705   2.032   3.925   2.729 -0.3414 -0.5768  0.6652
16097TIP3    H169706   2.066   3.992   2.670  0.5866 -1.1062  0.5915
16097TIP3    H269707   1.950   3.897   2.688 -0.7123  0.4584  0.6652
16098TIP3   OH269708   4.959   1.299   4.249  0.1087 -0.1016 -0.0690
16098TIP3    H169709   4.869   1.264   4.246  0.2088 -0.2746 -1.3489
16098TIP3    H269710   5.010   1.238   4.196  0.3686  1.7305 -2.0368
16099TIP3   OH269711   5.318   5.337  15.580 -0.5984  0.2044  0.6255
16099TIP3    H169712   5.223   5.350  15.581 -1.0412 -2.2840 -0.7427
16099TIP3    H269713   5.332   5.253  15.625  0.8332  0.0176 -0.1041
16100TIP3   OH269714   4.235   3.781   4.263 -0.4232  0.3538 -0.3163
16100TIP3    H169715   4.152   3.748   4.298 -0.5420  0.2478 -0.6888
16100TIP3    H269716   4.287   3.702   4.248 -0.1569  0.4411  0.1659
16101TIP3   OH269717   5.929   3.597   0.453  0.2193  0.1745  0.1199
16101TIP3    H169718   5.930   3.588   0.549 -1.1779  2.0765  0.3652
16101TIP3    H269719   5.837   3.605   0.430  0.6061  1.3182 -1.1937
16102TIP3   OH269720   4.118   2.435   5.488 -0.3457  0.2015 -0.0868
16102TIP3    H169721   4.070   2.501   5.438 -0.5760 -1.3468 -2.0251
16102TIP3    H269722   4.058   2.410   5.558 -0.6179  1.3669  0.1192
16103TIP3   OH269723   5.666   4.076  10.734  0.3434 -0.2151 -0.9838
16103TIP3    H169724   5.704   4.121  10.809 -1.7966 -0.1940  0.1404
16103TIP3    H269725   5.727   4.093  10.662  2.6286 -0.4998  0.7765
16104TIP3   OH269726   6.232   6.476   5.914 -0.2124  0.1513 -0.5964
16104TIP3    H169727   6.230   6.380   5.909 -2.7981  0.1202 -0.5508
16104TIP3    H269728   6.249   6.494   6.007  1.7848 -0.1740 -0.8502
16105TIP3   OH269729   3.645   2.250  11.203 -0.2752 -0.3927 -0.2232
16105TIP3    H169730   3.591   2.197  11.145 -0.8958  0.9147 -0.8990
16105TIP3    H269731   3.720   2.276  11.148  0.0003 -0.5345  0.0849
16106TIP3   OH269732   3.441   6.039  12.689  0.3801 -0.5051 -0.2081
16106TIP3    H169733   3.519   6.094  12.679  1.5884 -1.8648  1.2407
16106TIP3    H269734   3.463   5.958  12.645 -0.2553 -0.8785  0.1429
16107TIP3   OH269735   1.183   3.729   4.511 -0.1869  0.0028  0.3103
16107TIP3    H169736   1.163   3.642   4.478 -0.2474  0.6617 -1.4632
16107TIP3    H269737   1.270   3.749   4.478 -0.4002  0.8329  0.2147
16108TIP3   OH269738   5.154   6.484  12.676 -0.0606  0.4058 -0.6613
16108TIP3    H169739   5.116   6.489  12.589 -0.4789  0.2953 -0.4900
16108TIP3    H269740   5.121   6.562  12.721 -2.1820 -0.9480  0.2951
16109TIP3   OH269741   4.168   5.893  17.132 -0.5435 -0.2345  0.3441
16109TIP3    H169742   4.078   5.861  17.122 -1.6498  2.7757 -0.5558
16109TIP3    H269743   4.189   5.933  17.048  1.8184 -1.1327  0.4293
16110TIP3   OH269744   5.768   5.997  15.963  0.4671 -0.1562 -0.3546
16110TIP3    H169745   5.688   6.029  15.922 -0.4394  0.5898  1.8140
16110TIP3    H269746   5.768   5.903  15.947  0.2055  0.1150 -2.0399
16111TIP3   OH269747   0.509   0.159  17.207  0.5413  0.9480 -0.2724
16111TIP3    H169748   0.574   0.229  17.218  1.5516  0.0963 -0.5626
16111TIP3    H269749   0.425   0.202  17.215  1.1486  2.0806  0.2447
16112TIP3   OH269750   5.158   4.463  14.701  0.3275  0.0473 -0.3818
16112TIP3    H169751   5.139   4.372  14.680  3.7162 -0.8037 -0.2346
16112TIP3    H269752   5.098   4.513  14.645 -1.1929 -2.2075 -0.9196
16113TIP3   OH269753   5.235   3.435   2.538 -0.2634 -0.0593  0.0809
16113TIP3    H169754   5.227   3.366   2.471 -1.6023  0.3162 -0.1800
16113TIP3    H269755   5.209   3.515   2.492 -1.6430  0.1384  1.1439
16114TIP3   OH269756   5.723   2.118   1.463  0.6821 -0.3852 -0.8098
16114TIP3    H169757   5.736   2.193   1.404 -2.0959 -0.8375 -2.1937
16114TIP3    H269758   5.703   2.157   1.548  3.7543  0.2906 -0.2700
16115TIP3   OH269759   2.033   6.650  16.410  0.5899 -0.3154 -0.8687
16115TIP3    H169760   2.127   6.654  16.425  0.1927  0.0772  1.8956
16115TIP3    H269761   1.996   6.617  16.492 -1.7064 -0.3509 -1.8377
16116TIP3   OH269762   4.437   4.182   0.925 -0.1401  0.3325 -0.1847
16116TIP3    H169763   4.425   4.236   0.847  0.1396  2.1233  0.9390
16116TIP3    H269764   4.530   4.190   0.945 -0.0242 -0.8957 -0.2034
16117TIP3   OH269765   0.383   2.055  11.424  0.0524  0.5963 -0.0853
16117TIP3    H169766   0.474   2.083  11.435  0.5725 -1.5930  1.8189
16117TIP3    H269767   0.333   2.109  11.485  0.3502  0.5030  0.2376
16118TIP3   OH269768   3.067   0.408   4.525 -0.0891 -0.2790  0.2045
16118TIP3    H169769   3.093   0.452   4.444 -0.8745  0.3392  0.2879
16118TIP3    H269770   3.066   0.315   4.501  2.7826 -0.4498  0.3467
16119TIP3   OH269771   1.383   0.793   3.268 -0.0177 -0.2938 -0.2979
16119TIP3    H169772   1.458   0.852   3.278  0.5758 -1.1672  0.6594
16119TIP3    H269773   1.307   0.851   3.271  0.5628  0.4694  0.3270
16120TIP3   OH269774   0.620   2.674  16.445 -0.9346 -0.1994  0.4619
16120TIP3    H169775   0.598   2.645  16.357 -1.1027  1.3732 -0.0493
16120TIP3    H269776   0.540   2.716  16.478 -0.4627  0.4590  0.8071
16121TIP3   OH269777   6.376   5.573   3.724 -0.7651  0.3497 -0.2538
16121TIP3    H169778   6.324   5.559   3.803 -0.8976  0.3500 -0.3388
16121TIP3    H269779   6.374   5.668   3.711  0.2528  0.4754  0.4044
16122TIP3   OH269780   2.364   1.064   5.669  0.2239 -0.1108 -0.0225
16122TIP3    H169781   2.442   1.028   5.628  0.6438 -0.5641  1.1180
16122TIP3    H269782   2.331   0.993   5.724  0.6894  0.9895  1.7604
16123TIP3   OH269783   2.992   0.483  15.914 -0.1844  0.0562 -0.2831
16123TIP3    H169784   3.050   0.555  15.889 -1.6671  0.9921 -1.1596
16123TIP3    H269785   2.939   0.519  15.985  0.2500 -0.7809  0.4846
16124TIP3   OH269786   1.811   4.498   2.305 -0.1440 -1.0273 -0.0563
16124TIP3    H169787   1.885   4.535   2.257 -0.1338 -0.3087  0.5063
16124TIP3    H269788   1.851   4.437   2.368 -0.1860 -2.3349 -1.2476
16125TIP3   OH269789   5.478   3.105  15.341  0.4728  0.3426  0.2179
16125TIP3    H169790   5.520   3.068  15.419  0.3404  0.1331  0.1902
16125TIP3    H269791   5.392   3.133  15.371 -0.0678 -0.8830 -0.1232
16126TIP3   OH269792   2.776   4.961   1.170 -0.0709  0.0901 -0.8015
16126TIP3    H169793   2.812   4.877   1.141  0.3174  0.5308 -1.6342
16126TIP3    H269794   2.810   5.025   1.107 -0.3472  0.8785 -0.1719
16127TIP3   OH269795   3.363   1.834   0.365  0.6709  0.0368 -0.2486
16127TIP3    H169796   3.307   1.837   0.288  1.8501  0.1155 -1.1255
16127TIP3    H269797   3.344   1.915   0.412 -0.9641 -0.5849  0.2244
16128TIP3   OH269798   5.663   6.163  12.624  0.1182 -0.3670 -0.8144
16128TIP3    H169799   5.571   6.190  12.617  0.0801 -0.2641  0.0310
16128TIP3    H269800   5.659   6.070  12.645  0.2419 -0.8596 -2.7748
16129TIP3   OH269801   4.194   3.272   1.100  0.6512  0.0501 -0.1204
16129TIP3    H169802   4.215   3.363   1.081 -0.8166  0.6103  0.7793
16129TIP3    H269803   4.127   3.249   1.036  0.8887 -0.3444 -0.2298
16130TIP3   OH269804   1.097   3.130  14.079 -0.3853 -0.1853  0.2737
16130TIP3    H169805   1.115   3.061  14.015 -0.6141  0.6664 -0.7426
16130TIP3    H269806   1.001   3.136  14.081 -0.3729 -0.0711  0.5470
16131TIP3   OH269807   3.077   5.505  13.951 -0.2173 -0.5752 -0.1571
16131TIP3    H169808   3.132   5.531  14.025  1.5677  1.3178 -2.0666
16131TIP3    H269809   3.100   5.413  13.935 -0.1770 -0.8241  1.1751
16132TIP3   OH269810   3.158   1.290  16.961  0.3307  0.0634 -0.3041
16132TIP3    H169811   3.206   1.251  17.035  0.2015  1.0577  0.3195
16132TIP3    H269812   3.066   1.284  16.988  0.3689  1.8169  0.3352
16133TIP3   OH269813   0.715   4.033  14.552 -0.7545 -0.2889  0.1269
16133TIP3    H169814   0.796   3.991  14.581  0.4189  1.7652  0.0632
16133TIP3    H269815   0.744   4.116  14.513 -2.6013 -0.9880 -3.1054
16134TIP3   OH269816   0.686   1.448   5.093  0.2467 -0.1347  0.1707
16134TIP3    H169817   0.621   1.516   5.113 -0.3947 -0.2474 -1.4356
16134TIP3    H269818   0.737   1.440   5.174  1.0596  3.0085  0.0990
16135TIP3   OH269819   2.062   1.612  17.118  0.0854  0.4075  0.2422
16135TIP3    H169820   2.027   1.572  17.038  1.6812  0.6174 -0.6199
16135TIP3    H269821   2.129   1.674  17.086 -0.9179  2.3065  1.6395
16136TIP3   OH269822   2.127   3.445  12.718  0.2567 -0.5425  0.6086
16136TIP3    H169823   2.047   3.399  12.743 -0.2009 -0.6792 -0.9834
16136TIP3    H269824   2.104   3.538  12.727 -1.2810 -0.4154 -2.8562
16137TIP3   OH269825   2.120   3.534   2.218  0.3171  0.1912  0.1775
16137TIP3    H169826   2.112   3.615   2.268  2.4991 -0.4525  1.6813
16137TIP3    H269827   2.188   3.552   2.153  0.2895 -0.2078  0.0352
16138TIP3   OH269828   6.408   5.918  16.783 -0.0042  0.2523 -0.4638
16138TIP3    H169829   6.368   5.974  16.717  0.4875 -1.4084 -2.2656
16138TIP3    H269830   6.377   5.830  16.761 -0.1946 -0.3155  1.8306
16139TIP3   OH269831   5.683   3.620   5.162  0.3066  0.7585 -0.1388
16139TIP3    H169832   5.619   3.643   5.229 -2.2585 -2.1216 -1.3530
16139TIP3    H269833   5.714   3.533   5.186  0.4427  0.2765 -1.8984
16140TIP3   OH269834   2.286   4.562  16.917 -0.1298 -0.5733  0.4394
16140TIP3    H169835   2.245   4.488  16.962 -0.8693 -0.2178  0.3682
16140TIP3    H269836   2.355   4.590  16.977 -0.4841 -0.7079  0.9192
16141TIP3   OH269837   0.081   1.563  13.567 -0.1965 -0.1693  0.2884
16141TIP3    H169838   0.007   1.588  13.623 -0.9043 -1.8525  0.1685
16141TIP3    H269839   0.135   1.506  13.623  0.3739  0.0918  0.0035
16142TIP3   OH269840   3.148   4.615  12.331  0.1078 -0.7494  0.1197
16142TIP3    H169841   3.209   4.564  12.278  1.1296 -0.2604  0.8024
16142TIP3    H269842   3.066   4.564  12.329  0.6044 -1.5414 -0.5950
16143TIP3   OH269843   3.782   3.510   3.410  0.1763  0.3247  0.3673
16143TIP3    H169844   3.718   3.456   3.364 -0.0294  0.5709  0.3638
16143TIP3    H269845   3.828   3.558   3.341  0.9014 -0.4360  0.3136
16144TIP3   OH269846   2.013   0.694  15.502  0.1554  0.0950  0.4301
16144TIP3    H169847   1.939   0.748  15.474  0.5314  1.1776  1.4235
16144TIP3    H269848   2.016   0.705  15.597  1.0548 -0.6312  0.4984
16145TIP3   OH269849   0.096   6.335   3.802  0.1335  0.0375  0.0451
16145TIP3    H169850   0.003   6.352   3.821  0.1544  2.2052 -1.3625
16145TIP3    H269851   0.139   6.419   3.822  1.4901 -0.3793 -1.0115
16146TIP3   OH269852   1.728   4.220   6.504 -0.1553  0.4750  0.7253
16146TIP3    H169853   1.811   4.203   6.547 -0.1699  0.1296  0.6205
16146TIP3    H269854   1.736   4.309   6.470 -0.0175  0.6246  1.1450
16147TIP3   OH269855   6.698   4.293  11.799 -0.1194  0.2990 -0.6225
16147TIP3    H169856   6.787   4.294  11.834 -0.3086  0.3647 -0.1263
16147TIP3    H269857   6.667   4.204  11.812 -1.4138  1.0783  2.6401
16148TIP3   OH269858   5.073   4.901   5.400 -0.4214 -0.1223 -0.0743
16148TIP3    H169859   5.086   4.974   5.339  2.0333 -0.2989  0.1058
16148TIP3    H269860   5.002   4.930   5.457  0.0596  1.8965 -0.3963
16149TIP3   OH269861   6.428   6.152  16.965  0.1816 -0.0717 -0.6353
16149TIP3    H169862   6.434   6.078  16.904  2.0560  0.3845 -1.0978
16149TIP3    H269863   6.338   6.182  16.957  0.0767 -0.6935 -2.4112
16150TIP3   OH269864   0.659   0.837   0.167  0.0192 -0.0093 -0.2387
16150TIP3    H169865   0.699   0.890   0.098 -1.4361  0.8202 -0.5023
16150TIP3    H269866   0.720   0.765   0.181  1.2350  0.8213 -1.0815
16151TIP3   OH269867   2.491   5.952   3.078  0.3532 -0.3210  0.6346
16151TIP3    H169868   2.451   5.871   3.049  0.8592 -0.2029 -0.4383
16151TIP3    H269869   2.511   5.999   2.997  3.9223 -0.9800  1.0023
16152TIP3   OH269870   5.360   5.719  14.407  0.9558 -0.4414  0.1415
16152TIP3    H169871   5.370   5.635  14.452  0.4656  0.3814  1.8572
16152TIP3    H269872   5.335   5.781  14.476 -2.5095  0.3676 -1.6453
16153TIP3   OH269873   4.932   2.362  15.164 -0.2856  0.1986  0.4774
16153TIP3    H169874   4.952   2.452  15.190  0.2235  0.3720 -0.4593
16153TIP3    H269875   4.838   2.353  15.179 -0.7068  1.4855 -1.0555
16154TIP3   OH269876   1.023   2.665  14.068 -0.0451  0.1305 -0.9338
16154TIP3    H169877   1.026   2.638  14.160  2.2199  1.0989 -0.6631
16154TIP3    H269878   0.932   2.691  14.053 -0.4378  0.0142  1.0398
16155TIP3   OH269879   1.752   6.260   4.203  0.1122  0.1484 -0.2974
16155TIP3    H169880   1.829   6.207   4.182 -1.2132 -1.5476 -1.1829
16155TIP3    H269881   1.783   6.350   4.200  2.1765 -0.5008 -0.0764
16156TIP3   OH269882   4.842   2.757   5.728  0.1264 -0.0056  0.2275
16156TIP3    H169883   4.904   2.756   5.801 -0.3032  0.2249  0.5987
16156TIP3    H269884   4.861   2.838   5.682  0.0326  0.1200  0.4062
16157TIP3   OH269885   5.996   1.396   0.718  0.3889 -0.2674  0.6693
16157TIP3    H169886   6.034   1.334   0.781 -0.4252 -0.0212  1.4092
16157TIP3    H269887   6.072   1.426   0.667  0.8201 -1.7987  0.3375
16158TIP3   OH269888   1.736   1.296   2.422  0.5182  0.1147 -0.2631
16158TIP3    H169889   1.647   1.304   2.389  0.3160 -1.1952 -0.0480
16158TIP3    H269890   1.769   1.387   2.423  0.3035  0.3292 -3.3603
16159TIP3   OH269891   0.715   6.018  15.961  0.6134  0.4813  0.3567
16159TIP3    H169892   0.715   5.972  15.877  1.4300  0.0386  0.5904
16159TIP3    H269893   0.645   5.977  16.011 -0.7278  1.5891 -0.5411
16160TIP3   OH269894   4.521   1.907  10.637  0.4481 -0.4856  0.3625
16160TIP3    H169895   4.482   1.896  10.724  0.6480 -1.2039  0.3662
16160TIP3    H269896   4.605   1.861  10.642  0.0752 -1.2902 -0.4718
16161TIP3   OH269897   5.625   6.175  11.396  0.4426 -0.1913  0.5295
16161TIP3    H169898   5.628   6.083  11.372 -1.3420  0.4078 -2.4928
16161TIP3    H269899   5.717   6.201  11.405  1.1938 -1.3599 -2.7353
16162TIP3   OH269900   2.677   0.011   1.055  0.0874  0.2051 -0.0042
16162TIP3    H169901   2.673  -0.080   1.027  1.2178  0.4038 -0.9131
16162TIP3    H269902   2.689   0.060   0.973 -1.8209  1.3029  0.3200
16163TIP3   OH269903   2.464   5.458  16.249 -0.1377  0.0381 -0.6297
16163TIP3    H169904   2.457   5.401  16.172 -1.6658 -2.2056  1.0362
16163TIP3    H269905   2.464   5.398  16.323  2.1135  2.0504  1.1867
16164TIP3   OH269906   1.417   4.043  12.910  0.1480 -0.4531  0.1456
16164TIP3    H169907   1.430   4.136  12.925  0.0584 -0.2196 -1.1165
16164TIP3    H269908   1.323   4.029  12.923  0.2440 -0.4623  0.8193
16165TIP3   OH269909   2.754   5.618  11.433  0.3480  0.4511 -0.0186
16165TIP3    H169910   2.733   5.560  11.506  2.9122 -2.4868 -1.4193
16165TIP3    H269911   2.816   5.681  11.469 -0.5275  0.8102  0.9200
16166TIP3   OH269912   2.133   6.694   5.619 -0.8034  0.3648  0.0690
16166TIP3    H169913   2.056   6.642   5.595 -2.1930  2.2538  0.1471
16166TIP3    H269914   2.185   6.637   5.675 -1.2013 -1.6077 -1.4400
16167TIP3   OH269915   5.539   2.101  15.578  0.2800  0.0245  0.2218
16167TIP3    H169916   5.589   2.075  15.655  1.2411 -1.0094 -0.7036
16167TIP3    H269917   5.474   2.031  15.568 -0.7763  0.8876  0.8873
16168TIP3   OH269918   4.647   4.749  15.583  0.0017 -0.2793  0.0714
16168TIP3    H169919   4.574   4.688  15.570 -1.0824  1.0004 -0.1094
16168TIP3    H269920   4.634   4.816  15.515  0.7734  0.4873  0.6568
16169TIP3   OH269921   0.207   2.687   2.097  0.6039  0.3209  0.4805
16169TIP3    H169922   0.202   2.782   2.106 -1.6771  0.0829  3.0361
16169TIP3    H269923   0.239   2.656   2.182  2.2624 -1.2031 -0.6139
16170TIP3   OH269924   3.513   0.600   4.195  0.1979  0.0302  0.0978
16170TIP3    H169925   3.463   0.600   4.277 -2.2861 -2.1581 -1.2638
16170TIP3    H269926   3.506   0.690   4.163 -2.5613 -0.0427  0.2452
16171TIP3   OH269927   5.985   4.084  15.140 -0.2471 -0.2071 -0.1949
16171TIP3    H169928   6.046   4.012  15.156 -1.3000 -0.8734  1.1017
16171TIP3    H269929   5.931   4.053  15.067  1.5549  0.8322 -2.0777
16172TIP3   OH269930   0.341   0.036  11.643 -0.3926  0.7861 -0.3369
16172TIP3    H169931   0.351   0.010  11.734  0.8053  0.4812 -0.5262
16172TIP3    H269932   0.247   0.038  11.628 -0.5890  0.1156  0.7035
16173TIP3   OH269933   0.524   1.879   2.823 -0.1096 -0.0740 -0.5112
16173TIP3    H169934   0.507   1.811   2.758 -0.1463 -0.2536 -0.3167
16173TIP3    H269935   0.578   1.943   2.778 -0.9205  0.2800 -1.0070
16174TIP3   OH269936   4.679   2.291   4.680 -0.5442  0.3166  0.4519
16174TIP3    H169937   4.644   2.223   4.738  0.8426  0.3184  1.3391
16174TIP3    H269938   4.675   2.252   4.593 -1.1699 -0.3124  0.7465
16175TIP3   OH269939   1.247   1.848  16.508  0.0683 -0.0883  0.0143
16175TIP3    H169940   1.154   1.854  16.528 -0.1706 -2.9884  0.2356
16175TIP3    H269941   1.252   1.858  16.413 -0.6025 -0.8352 -0.1073
16176TIP3   OH269942   6.229   5.363  13.056 -0.2401 -0.4453  0.1926
16176TIP3    H169943   6.217   5.456  13.040  0.3107 -0.6624 -1.6330
16176TIP3    H269944   6.145   5.324  13.031  0.9865 -0.9281 -3.8563
16177TIP3   OH269945   6.532   1.499   0.107  0.4659 -0.5021  0.4726
16177TIP3    H169946   6.502   1.501   0.016 -0.7277 -0.9541  0.8381
16177TIP3    H269947   6.516   1.587   0.141  1.8751 -0.0217 -0.0250
16178TIP3   OH269948   4.575   1.761   5.046 -0.4718  0.3526 -0.7104
16178TIP3    H169949   4.635   1.807   5.104 -1.2832  0.1464  0.3172
16178TIP3    H269950   4.505   1.824   5.028 -0.7481  0.0750 -0.6217
16179TIP3   OH269951   1.431   2.273  12.994 -0.3347 -0.0471  0.2052
16179TIP3    H169952   1.342   2.304  12.975 -0.9796 -2.1676 -0.5355
16179TIP3    H269953   1.427   2.244  13.085 -0.3065  0.1076  0.2573
16180TIP3   OH269954   5.121   2.140  15.652 -0.2246  0.0637 -0.1783
16180TIP3    H169955   5.205   2.160  15.694 -0.8020  0.5655  0.7769
16180TIP3    H269956   5.127   2.178  15.565  0.5069  0.1691 -0.0877
16181TIP3   OH269957   0.168   1.168  10.981 -0.2149  0.0621 -0.3199
16181TIP3    H169958   0.089   1.142  11.029  1.3855 -0.6840  2.0880
16181TIP3    H269959   0.167   1.264  10.983  0.1187  0.0656  1.8715
16182TIP3   OH269960   0.805   3.846  14.306  0.3035 -0.1577 -0.2280
16182TIP3    H169961   0.748   3.852  14.230  0.9813  1.3290 -0.6670
16182TIP3    H269962   0.892   3.867  14.273  0.7929 -0.5764  0.7560
16183TIP3   OH269963   6.561   3.318  12.510 -0.4164  1.0514  0.2539
16183TIP3    H169964   6.517   3.234  12.500  2.0384 -0.2531 -0.3907
16183TIP3    H269965   6.577   3.327  12.604 -0.6776  0.8063  0.3217
16184TIP3   OH269966   5.378   6.193  12.452  0.3155 -0.1973 -0.5657
16184TIP3    H169967   5.462   6.178  12.407  0.0537 -2.0915 -0.4863
16184TIP3    H269968   5.314   6.146  12.399 -0.5205  0.2354  0.0402
16185TIP3   OH269969   5.700   5.841  17.141  0.2838 -0.3480  0.5597
16185TIP3    H169970   5.641   5.899  17.190 -1.2972 -2.1611  0.9150
16185TIP3    H269971   5.760   5.807  17.207 -0.5610 -1.2244  0.8994
16186TIP3   OH269972   5.624   3.429   3.394  0.1245  0.4159  0.1489
16186TIP3    H169973   5.537   3.394   3.378  0.4870 -0.7474  0.5830
16186TIP3    H269974   5.613   3.487   3.470 -0.1325 -0.3270  0.6817
16187TIP3   OH269975   4.632   0.110  11.953 -0.3650  0.1598 -0.4275
16187TIP3    H169976   4.549   0.155  11.967 -0.7079 -0.9481  1.4109
16187TIP3    H269977   4.663   0.088  12.041  0.8025 -1.3537 -1.1556
16188TIP3   OH269978   4.389   6.525   2.747 -0.3153 -0.3762  0.2753
16188TIP3    H169979   4.376   6.618   2.764  3.1465  0.2793  0.1742
16188TIP3    H269980   4.395   6.519   2.651 -2.5217 -1.1283  0.1263
16189TIP3   OH269981   6.090   0.481  11.796 -0.0051 -0.1026 -0.4070
16189TIP3    H169982   6.088   0.577  11.805 -1.8068 -0.0892 -0.7395
16189TIP3    H269983   6.134   0.466  11.712  2.8814  0.2725  0.8944
16190TIP3   OH269984   2.494   6.670  16.016 -0.9024  0.1701 -0.4402
16190TIP3    H169985   2.439   6.690  15.940 -0.6037  1.0639 -0.4410
16190TIP3    H269986   2.583   6.696  15.988 -0.8007  0.5402  0.2195
16191TIP3   OH269987   5.280   0.182  14.051  0.2482  0.1902 -0.2859
16191TIP3    H169988   5.249   0.269  14.076 -1.4705  0.0258 -1.6505
16191TIP3    H269989   5.220   0.155  13.982 -0.7655 -3.0442  1.6481
16192TIP3   OH269990   1.064   6.729   1.757 -0.7711 -0.1833 -0.2748
16192TIP3    H169991   1.066   6.732   1.853  2.3335  0.7227 -0.2591
16192TIP3    H269992   1.074   6.637   1.735  0.9358 -0.1830  0.3563
16193TIP3   OH269993   1.037   5.509  11.646  0.0069 -0.1799 -0.0329
16193TIP3    H169994   1.031   5.563  11.725  1.3627 -0.6279  0.4078
16193TIP3    H269995   1.063   5.423  11.678 -0.7137 -0.7142 -0.8648
16194TIP3   OH269996   0.844   2.368   6.524  0.1278  0.6541  0.1140
16194TIP3    H169997   0.861   2.449   6.571  1.6066 -0.4971  1.6774
16194TIP3    H269998   0.788   2.317   6.583 -1.0316  0.5996 -0.9738
16195TIP3   OH269999   0.293   5.724  14.936 -0.5482 -0.1327 -0.3928
16195TIP3    H170000   0.268   5.632  14.945  1.7390 -0.6220  2.5379
16195TIP3    H270001   0.384   5.727  14.967 -0.4309  3.0846 -0.7205
16196TIP3   OH270002   6.172   4.318   5.490 -0.0616  0.2426 -0.1805
16196TIP3    H170003   6.102   4.382   5.474 -0.4609 -0.0188  0.4619
16196TIP3    H270004   6.133   4.255   5.551  0.0983 -1.0044 -1.3308
16197TIP3   OH270005   1.388   2.797  16.894  0.0994  0.4701  0.4124
16197TIP3    H170006   1.370   2.834  16.808  0.6550 -2.8361 -1.2796
16197TIP3    H270007   1.306   2.805  16.942 -0.7428  0.8184 -1.0387
16198TIP3   OH270008   2.645   6.812  15.776  0.2830 -0.2455 -0.1740
16198TIP3    H170009   2.703   6.872  15.729  1.1548  1.5344  2.8675
16198TIP3    H270010   2.695   6.788  15.854 -1.5068 -2.0753  0.4834
16199TIP3   OH270011   1.511   4.623  14.348  0.3851  0.0720 -0.1443
16199TIP3    H170012   1.422   4.588  14.355 -1.1350  3.5876  0.4381
16199TIP3    H270013   1.530   4.622  14.254 -1.1912  1.1146 -0.5156
16200TIP3   OH270014   2.317   0.137  11.034 -0.6684  0.6840 -0.2804
16200TIP3    H170015   2.237   0.160  10.985 -0.3382  0.6529 -0.8461
16200TIP3    H270016   2.359   0.071  10.980  0.0661  1.1608 -0.3072
16201TIP3   OH270017   6.306   5.255   4.073 -0.2804 -0.5484  0.1801
16201TIP3    H170018   6.299   5.215   3.986 -0.3536  0.1734 -0.1572
16201TIP3    H270019   6.310   5.349   4.055 -0.9497 -0.3574  0.9940
16202TIP3   OH270020   5.269   1.429  15.729 -0.0234  0.1134  0.1760
16202TIP3    H170021   5.188   1.478  15.744  0.5862  0.7800  1.4346
16202TIP3    H270022   5.276   1.371  15.805 -0.1877 -1.2080 -0.7791
16203TIP3   OH270023   1.535   3.531  13.770 -0.1361 -0.3015 -0.9937
16203TIP3    H170024   1.523   3.603  13.708  0.4777  0.7790  0.0971
16203TIP3    H270025   1.597   3.566  13.835 -0.8180 -1.3647  0.2689
16204TIP3   OH270026   2.447   4.551   2.643  0.0365  0.0689  0.1695
16204TIP3    H170027   2.543   4.546   2.646 -0.0047 -0.6570  0.9092
16204TIP3    H270028   2.426   4.562   2.551  0.8460  0.5431  0.0325
16205TIP3   OH270029   0.239   2.610   1.236  0.2889  0.4992 -0.2839
16205TIP3    H170030   0.189   2.594   1.315  0.2906 -0.0520 -0.3936
16205TIP3    H270031   0.304   2.675   1.262  3.2025 -2.7711  1.4145
16206TIP3   OH270032   6.052   4.666   0.779 -0.4141  0.2073  0.2776
16206TIP3    H170033   6.063   4.742   0.721 -0.2663  0.7187  0.9610
16206TIP3    H270034   6.101   4.596   0.735  0.1469  0.7292  0.0437
16207TIP3   OH270035   6.020   2.024  13.104 -0.5369  0.7136  0.1281
16207TIP3    H170036   5.943   2.020  13.048  0.7738 -0.4766 -1.7197
16207TIP3    H270037   6.011   1.950  13.163 -1.8458  1.8807  1.5022
16208TIP3   OH270038   6.253   3.266  14.254  0.4784  0.6518 -0.2966
16208TIP3    H170039   6.214   3.219  14.328  0.0837  0.3416 -0.6969
16208TIP3    H270040   6.344   3.280  14.279  1.0129 -1.5875 -0.7480
16209TIP3   OH270041   5.445   5.640   0.050 -0.0806  0.1818 -0.0450
16209TIP3    H170042   5.422   5.584   0.124 -0.3244  0.4553  0.0857
16209TIP3    H270043   5.399   5.722   0.066 -0.0872  0.2655 -0.4689
16210TIP3   OH270044   1.490   3.003   3.323  0.5197 -0.5106  0.4716
16210TIP3    H170045   1.526   2.914   3.328 -0.2332 -0.7663  1.9078
16210TIP3    H270046   1.473   3.027   3.414  1.9936  1.6729  0.2261
16211TIP3   OH270047   2.415   0.355  11.662 -0.4261 -0.0134  0.1249
16211TIP3    H170048   2.386   0.336  11.572  0.5543  0.8127 -0.3902
16211TIP3    H270049   2.377   0.441  11.681 -0.6134 -0.1791  0.4919
16212TIP3   OH270050   4.761   3.442  12.816  0.0960 -0.0753 -0.2818
16212TIP3    H170051   4.751   3.515  12.877 -1.9888 -1.1300  0.7469
16212TIP3    H270052   4.678   3.395  12.821  0.4574 -1.1596 -2.7392
16213TIP3   OH270053   2.474   6.459  15.096  0.4019 -0.0404 -0.1268
16213TIP3    H170054   2.416   6.411  15.156 -0.5482  0.0522 -0.9502
16213TIP3    H270055   2.498   6.538  15.144  0.7563 -0.6092  0.6557
16214TIP3   OH270056   6.550   2.031   1.187  0.2453 -0.1944  0.3820
16214TIP3    H170057   6.559   2.038   1.282 -2.5278  0.3715  0.6857
16214TIP3    H270058   6.606   2.101   1.152  1.6163 -0.6675  1.5270
16215TIP3   OH270059   3.912   4.984  16.045  0.5295 -0.4238 -0.6324
16215TIP3    H170060   3.922   5.044  16.119  1.5964  0.0106 -1.1195
16215TIP3    H270061   3.983   4.921  16.056 -0.8862 -1.9682  0.1758
16216TIP3   OH270062   2.998   3.766   3.845  0.1367  0.5908 -0.4401
16216TIP3    H170063   3.028   3.684   3.883 -2.5722  0.1387  1.0212
16216TIP3    H270064   3.020   3.833   3.911  0.3328  0.6807 -0.5960
16217TIP3   OH270065   5.212   1.999  17.250 -0.0372 -0.0249  0.0567
16217TIP3    H170066   5.214   2.078  17.196 -0.4435  0.3011  0.5018
16217TIP3    H270067   5.284   2.010  17.312  0.2952 -0.2994 -0.2753
16218TIP3   OH270068   2.854   6.181   0.243  0.8037  0.4931 -0.3844
16218TIP3    H170069   2.819   6.093   0.226 -1.3639  1.6054 -2.3489
16218TIP3    H270070   2.913   6.170   0.318 -1.1784 -2.2263  0.9534
16219TIP3   OH270071   0.735   4.500  16.842  0.0931 -0.4234 -0.5454
16219TIP3    H170072   0.826   4.476  16.824  0.6464  1.2738 -0.1653
16219TIP3    H270073   0.720   4.577  16.787 -1.5067 -1.3602 -1.4862
16220TIP3   OH270074   3.270   6.299  12.702 -0.4694 -0.0408 -0.1082
16220TIP3    H170075   3.243   6.318  12.792 -1.6490 -0.4269 -0.3623
16220TIP3    H270076   3.293   6.206  12.702 -0.1225  0.0429 -0.1291
16221TIP3   OH270077   4.000   2.278   3.052 -0.4120 -0.3238  0.0526
16221TIP3    H170078   4.008   2.211   3.120 -0.0197 -1.0950 -0.7340
16221TIP3    H270079   3.942   2.344   3.090  0.0946 -0.5609  1.2688
16222TIP3   OH270080   0.284   0.955  16.487  0.3249  0.2034 -0.2409
16222TIP3    H170081   0.318   0.968  16.575  0.1720 -0.0339 -0.1482
16222TIP3    H270082   0.253   1.042  16.461  1.6926  0.5982 -0.6249
16223TIP3   OH270083   1.307   3.068  11.172 -0.2056  0.2678  0.4126
16223TIP3    H170084   1.296   2.975  11.150  1.2308  0.6080 -2.1145
16223TIP3    H270085   1.262   3.114  11.102 -0.2227  1.5133  1.2198
16224TIP3   OH270086   1.088   4.980   0.847  0.3338 -0.5798 -0.5349
16224TIP3    H170087   1.072   4.891   0.877 -0.3219  0.2158  1.6923
16224TIP3    H270088   1.180   4.996   0.866  0.7292 -1.0621 -1.8807
16225TIP3   OH270089   6.145   6.058   1.286 -0.2899 -0.1964 -0.2810
16225TIP3    H170090   6.101   6.078   1.368  0.6832  1.0441 -0.0401
16225TIP3    H270091   6.082   6.082   1.218 -0.2081  1.0604  0.0701
16226TIP3   OH270092   5.316   5.812   3.484 -0.1001  0.4779 -0.2141
16226TIP3    H170093   5.301   5.905   3.502  0.6108  0.7504 -0.9658
16226TIP3    H270094   5.229   5.772   3.491 -0.2045  0.9462  1.4738
16227TIP3   OH270095   3.720   3.426   2.308  0.1078 -0.3476 -0.3192
16227TIP3    H170096   3.767   3.444   2.390 -2.0345 -1.4339  1.2483
16227TIP3    H270097   3.697   3.512   2.274 -0.2794  0.1166  1.0440
16228TIP3   OH270098   2.557   1.023  12.202  0.5999  0.1175  0.0826
16228TIP3    H170099   2.521   1.110  12.216  0.7667  0.4989 -1.5848
16228TIP3    H270100   2.647   1.039  12.171  1.0267 -0.6870  0.8719
16229TIP3   OH270101   5.627   1.150  17.089 -0.4023  0.6102 -0.5657
16229TIP3    H170102   5.557   1.213  17.107 -0.3124 -0.3208  4.3638
16229TIP3    H270103   5.582   1.076  17.047 -1.9874  0.9662  0.3987
16230TIP3   OH270104   3.007   6.310   5.269 -0.6038 -0.2703  0.0138
16230TIP3    H170105   2.938   6.364   5.308 -1.9541 -1.5047 -0.5935
16230TIP3    H270106   2.979   6.220   5.285  0.3383 -0.7990 -1.1849
16231TIP3   OH270107   2.451   4.822   1.052  0.0725  0.0153  0.5338
16231TIP3    H170108   2.464   4.746   1.107 -0.3993 -1.2151 -0.9827
16231TIP3    H270109   2.539   4.854   1.033  0.4106 -1.4372 -0.5015
16232TIP3   OH270110   3.586   4.783   0.068 -0.7455  0.2090  0.3198
16232TIP3    H170111   3.539   4.793  -0.014 -0.0373  1.1079  0.0056
16232TIP3    H270112   3.518   4.786   0.135 -1.1159  2.1231 -0.0845
16233TIP3   OH270113   3.073   1.465  11.341 -0.5215  0.0913  0.2776
16233TIP3    H170114   3.039   1.463  11.430 -1.5214 -0.4282 -0.0980
16233TIP3    H270115   3.028   1.392  11.297 -0.9616  1.0924 -0.9731
16234TIP3   OH270116   2.939   6.110  15.969  0.0610  0.5525 -0.1501
16234TIP3    H170117   2.920   6.017  15.977  1.1996  0.2931 -0.3701
16234TIP3    H270118   3.030   6.119  15.998 -0.0601  1.6031 -0.0687
16235TIP3   OH270119   3.728   2.022  14.429 -0.2813 -0.2976 -0.1369
16235TIP3    H170120   3.801   1.965  14.405  2.1060  1.8797  1.4611
16235TIP3    H270121   3.705   1.995  14.518 -0.1624  0.2132  0.0515
16236TIP3   OH270122   4.256   3.196   5.226  0.4699  0.0502 -0.0391
16236TIP3    H170123   4.309   3.208   5.305  2.1388  0.3043 -1.1644
16236TIP3    H270124   4.317   3.164   5.160 -1.4162 -3.1125 -0.5016
16237TIP3   OH270125   6.463   3.800   0.983  0.5471  0.3332  0.0128
16237TIP3    H170126   6.383   3.752   1.003  0.9291 -0.4381 -0.2669
16237TIP3    H270127   6.530   3.733   0.973  0.8726  0.8298 -1.4832
16238TIP3   OH270128   2.159   0.679   4.443  0.2495  0.0169  0.7443
16238TIP3    H170129   2.158   0.583   4.437 -1.7824  0.0773 -2.1750
16238TIP3    H270130   2.252   0.702   4.436  0.6208 -1.7563 -3.9056
16239TIP3   OH270131   6.223   2.858  11.160 -0.1805  0.5514 -0.1208
16239TIP3    H170132   6.228   2.766  11.131 -2.1009 -0.0810  1.2776
16239TIP3    H270133   6.293   2.902  11.113  0.1403 -1.4277 -1.6459
16240TIP3   OH270134   1.008   2.768  11.096  0.2749 -0.5666 -0.7907
16240TIP3    H170135   0.985   2.800  11.009  2.3551 -0.1538 -1.2292
16240TIP3    H270136   0.924   2.767  11.144 -1.2543 -2.5994 -3.2922
16241TIP3   OH270137   4.392   2.028   5.463 -0.1566 -0.0154  0.6976
16241TIP3    H170138   4.423   2.102   5.412 -0.5499  0.0123  0.4938
16241TIP3    H270139   4.353   2.068   5.541  5.1473 -0.1346  3.8670
16242TIP3   OH270140   3.443   2.989  10.594 -0.6333 -0.2169  0.3858
16242TIP3    H170141   3.472   3.068  10.640 -0.5982  0.4936 -0.8286
16242TIP3    H270142   3.351   3.005  10.575 -1.1835 -1.3483  1.8957
16243TIP3   OH270143   3.114   5.175   3.768  0.2215 -0.9769 -0.0434
16243TIP3    H170144   3.153   5.255   3.803 -0.7544 -0.8371  0.7541
16243TIP3    H270145   3.185   5.111   3.772  0.8465 -0.3061 -0.1601
16244TIP3   OH270146   2.946   0.934  15.652 -0.5144 -0.6601  0.8362
16244TIP3    H170147   2.860   0.911  15.616 -0.4272 -2.2255  1.5537
16244TIP3    H270148   2.994   0.970  15.577 -1.8088  0.3427  0.4462
16245TIP3   OH270149   1.848   6.663   2.452 -0.2043 -0.3940 -0.1193
16245TIP3    H170150   1.833   6.592   2.390  1.2816 -1.1220  0.3089
16245TIP3    H270151   1.935   6.696   2.431  1.3887 -2.1736  2.9145
16246TIP3   OH270152   4.189   2.948   1.957 -0.0638  0.0836  0.4585
16246TIP3    H170153   4.238   2.922   1.878 -0.0562 -1.9337  1.0662
16246TIP3    H270154   4.214   3.039   1.971  1.6137 -0.1417 -0.6496
16247TIP3   OH270155   4.428   0.815   6.285 -0.2217  0.0603  0.5041
16247TIP3    H170156   4.495   0.832   6.351 -0.5602  0.2820  0.7905
16247TIP3    H270157   4.410   0.721   6.292 -1.1234  0.2880  1.5615
16248TIP3   OH270158   1.824   3.755   1.616  0.0480 -0.5464  0.7071
16248TIP3    H170159   1.884   3.688   1.581  0.6325  1.4198 -2.3837
16248TIP3    H270160   1.767   3.776   1.543  0.8145  3.3265  1.0512
16249TIP3   OH270161   3.469   3.549   1.473 -0.5919  0.1776  0.4396
16249TIP3    H170162   3.528   3.473   1.476  0.9711  1.3030 -0.3028
16249TIP3    H270163   3.381   3.511   1.477  0.0091 -1.9094 -2.5562
16250TIP3   OH270164   0.846   6.547  16.379  0.4635  0.3989  0.0463
16250TIP3    H170165   0.927   6.496  16.381 -0.2007 -0.6869  0.5587
16250TIP3    H270166   0.807   6.534  16.465 -1.0685 -0.5174 -0.7166
16251TIP3   OH270167   5.248   3.640   1.039 -0.6767  0.4607 -0.0003
16251TIP3    H170168   5.315   3.679   0.982  1.4358 -1.5029  0.9715
16251TIP3    H270169   5.279   3.551   1.055 -2.2739  0.2494  2.4957
16252TIP3   OH270170   0.585   3.190  16.105  0.2980  1.0297 -0.3374
16252TIP3    H170171   0.517   3.236  16.153 -1.0643 -1.1371 -0.0594
16252TIP3    H270172   0.661   3.190  16.163 -1.5148 -2.1787  2.3935
16253TIP3   OH270173   6.123   5.504  16.596  0.4442 -0.3753  0.0200
16253TIP3    H170174   6.205   5.481  16.551 -0.0459 -0.2214 -0.9852
16253TIP3    H270175   6.095   5.585  16.553 -1.3141 -1.5304 -1.1363
16254TIP3   OH270176   1.275   2.887   5.067  0.0735  0.0781  0.3658
16254TIP3    H170177   1.188   2.893   5.107 -0.0314  1.0544  0.0259
16254TIP3    H270178   1.335   2.880   5.141 -0.2742 -0.3135  0.6150
16255TIP3   OH270179   4.027   0.580  15.796  0.5018  0.5966 -0.8906
16255TIP3    H170180   4.102   0.535  15.757  0.8015  0.3286 -0.0364
16255TIP3    H270181   4.066   0.648  15.852  0.1460  0.0584  0.0394
16256TIP3   OH270182   0.538   2.735   5.540  0.0476  0.3708 -0.4866
16256TIP3    H170183   0.455   2.772   5.569 -0.8374 -1.7743 -0.0432
16256TIP3    H270184   0.591   2.730   5.619  0.1373  0.6309 -0.5315
16257TIP3   OH270185   0.789   6.046   0.017 -0.2330 -0.4150  0.9008
16257TIP3    H170186   0.706   6.013  -0.016 -0.7882  1.6601  0.0489
16257TIP3    H270187   0.770   6.072   0.107  0.1192 -1.9915  1.4607
16258TIP3   OH270188   3.022   6.401   1.429 -0.1966 -0.3413  0.1795
16258TIP3    H170189   3.008   6.306   1.428  0.0489 -0.4435  2.1636
16258TIP3    H270190   3.117   6.411   1.428 -0.1543 -0.2308  2.1535
16259TIP3   OH270191   0.303   3.589   1.268 -0.0512 -0.5155  0.1957
16259TIP3    H170192   0.321   3.555   1.355  2.1813 -1.2318 -0.4931
16259TIP3    H270193   0.384   3.630   1.240 -0.2259 -1.5738 -2.1021
16260TIP3   OH270194   6.667   5.985   1.445 -0.3592 -0.2740  0.2461
16260TIP3    H170195   6.617   5.914   1.405  1.1214 -1.0856 -0.2461
16260TIP3    H270196   6.637   6.064   1.402 -1.7139 -0.6423  0.4801
16261TIP3   OH270197   1.063   6.236   3.013  0.2456 -0.1219  0.5515
16261TIP3    H170198   1.150   6.197   3.025  0.9588  1.3788  0.4444
16261TIP3    H270199   1.056   6.252   2.919  0.2002  0.5096  0.6558
16262TIP3   OH270200   6.471   3.000  11.618  0.2026  0.0483 -0.1725
16262TIP3    H170201   6.432   2.997  11.705  2.8364 -1.3662  1.0710
16262TIP3    H270202   6.447   2.917  11.577  0.1778  0.0793 -0.2217
16263TIP3   OH270203   6.123   6.115   6.216  0.0902  0.4252  0.2331
16263TIP3    H170204   6.161   6.166   6.288  0.4326  0.7786 -0.1902
16263TIP3    H270205   6.090   6.036   6.257  0.5920  0.4713  0.7311
16264TIP3   OH270206   2.706   3.800   4.670 -0.3226  0.2948 -0.2518
16264TIP3    H170207   2.724   3.889   4.698  1.1491  0.2952 -1.0765
16264TIP3    H270208   2.783   3.775   4.619 -1.0034 -1.2071 -0.6077
16265TIP3   OH270209   1.371   0.196   4.333  0.3959  0.5956  0.1937
16265TIP3    H170210   1.342   0.138   4.262  1.6615  0.2670 -0.0751
16265TIP3    H270211   1.436   0.144   4.381  0.7309  1.4027  0.6164
16266TIP3   OH270212   4.728   0.625  11.563  0.6269  0.7707 -0.4706
16266TIP3    H170213   4.804   0.665  11.522  0.1931  1.1376 -0.9365
16266TIP3    H270214   4.758   0.539  11.593  1.2748  1.0039 -0.4510
16267TIP3   OH270215   2.508   3.355   1.954  0.3803  0.4866 -0.4851
16267TIP3    H170216   2.432   3.347   2.012  0.6966  0.5279 -0.0540
16267TIP3    H270217   2.487   3.302   1.878 -0.8675  1.9690 -1.2249
16268TIP3   OH270218   4.168   3.516  15.798 -0.3233 -0.2354 -0.1473
16268TIP3    H170219   4.199   3.433  15.835 -0.2982  0.1889  0.8231
16268TIP3    H270220   4.224   3.582  15.840 -1.3253  0.3900  0.2318
16269TIP3   OH270221   4.325   4.233   0.339 -0.0997 -0.2536  0.6928
16269TIP3    H170222   4.252   4.271   0.290  1.1478 -0.7268 -1.7042
16269TIP3    H270223   4.387   4.305   0.349  0.2891 -0.5278  0.2559
16270TIP3   OH270224   2.524   6.434   4.520  0.5351  0.0910  0.2013
16270TIP3    H170225   2.595   6.401   4.574  1.2481 -0.1035 -0.8276
16270TIP3    H270226   2.559   6.513   4.480  0.7545 -0.8483 -1.5434
16271TIP3   OH270227   5.195   2.494  16.293 -0.1989  0.7952  0.1468
16271TIP3    H170228   5.139   2.570  16.277 -1.3904  0.0979  0.9037
16271TIP3    H270229   5.135   2.425  16.319  0.4714 -1.3076 -3.2784
16272TIP3   OH270230   0.989   3.986  15.760  0.2216  0.1605 -0.6072
16272TIP3    H170231   0.954   3.935  15.833  1.3328 -1.1178 -0.9271
16272TIP3    H270232   1.061   4.036  15.798  0.8488 -0.5624 -0.8193
16273TIP3   OH270233   1.086   0.809  12.556 -0.9829  0.4087  0.2684
16273TIP3    H170234   1.106   0.756  12.633  0.2151  1.4050  0.6660
16273TIP3    H270235   1.002   0.850  12.576 -2.5742 -2.1913 -0.5399
16274TIP3   OH270236   5.476   1.413  14.181  0.4830  0.5681 -0.6629
16274TIP3    H170237   5.531   1.462  14.243  2.3667 -0.2877 -1.5984
16274TIP3    H270238   5.473   1.469  14.103 -0.4005  0.8217 -0.4597
16275TIP3   OH270239   1.548   5.944  16.629 -0.3045  0.4386  0.2211
16275TIP3    H170240   1.592   6.027  16.611 -0.4079 -0.0600 -2.9439
16275TIP3    H270241   1.455   5.963  16.620 -0.3017 -0.0960 -1.3400
16276TIP3   OH270242   0.330   5.144  16.857 -0.2294 -1.0322  0.0043
16276TIP3    H170243   0.301   5.097  16.779 -0.0290 -2.0605  0.5473
16276TIP3    H270244   0.336   5.078  16.925  0.6896 -0.3372  0.6177
16277TIP3   OH270245   6.756   4.175  13.569  0.4737 -0.5207 -0.3789
16277TIP3    H170246   6.788   4.221  13.491  1.2560 -1.2656 -0.5051
16277TIP3    H270247   6.805   4.093  13.571 -1.7272 -1.9500 -0.8366
16278TIP3   OH270248   1.055   0.773   0.064  0.3720  0.0880  0.6690
16278TIP3    H170249   1.027   0.853   0.110 -0.3877 -0.0499  0.4671
16278TIP3    H270250   1.150   0.779   0.062  0.3121  2.3657 -1.7093
16279TIP3   OH270251   5.505   2.589   1.788 -0.7119  0.3205 -0.0018
16279TIP3    H170252   5.428   2.636   1.820 -1.1984 -0.8687  0.6417
16279TIP3    H270253   5.474   2.543   1.710 -0.6052  0.0086  0.1383
16280TIP3   OH270254   4.399   6.484   2.492 -0.8049  0.1636 -1.0045
16280TIP3    H170255   4.333   6.547   2.462 -1.8791 -0.6078 -0.3349
16280TIP3    H270256   4.483   6.522   2.464 -1.5510  0.9302 -2.3031
16281TIP3   OH270257   4.225   2.908  11.593 -0.0503 -0.0991  0.3640
16281TIP3    H170258   4.146   2.961  11.589 -1.1452 -1.5790  1.2391
16281TIP3    H270259   4.296   2.971  11.602 -1.3532  1.2128  2.1171
16282TIP3   OH270260   6.380   6.385  11.817 -0.0084 -0.0465  0.0000
16282TIP3    H170261   6.374   6.332  11.738 -0.3878  0.9432 -0.6404
16282TIP3    H270262   6.467   6.364  11.853  0.2978 -0.2661 -0.8418
16283TIP3   OH270263   2.833   1.007   2.456  0.5617  0.4756 -0.0998
16283TIP3    H170264   2.851   1.081   2.514  0.9189  1.4661 -1.4468
16283TIP3    H270265   2.756   1.034   2.405 -0.5358 -0.8983  0.7309
16284TIP3   OH270266   1.103   2.009   2.977  0.2644 -0.0350 -0.2818
16284TIP3    H170267   1.098   2.050   3.064  1.7424 -0.7640  0.1857
16284TIP3    H270268   1.170   2.059   2.931 -0.7208  0.5327 -1.1409
16285TIP3   OH270269   3.374   3.771   0.880 -0.4978  0.0937 -0.5177
16285TIP3    H170270   3.302   3.727   0.925 -1.5638  0.9516 -1.3383
16285TIP3    H270271   3.453   3.733   0.919 -1.3670 -0.0635  1.1977
16286TIP3   OH270272   0.629   3.115   0.491  0.3102 -0.8305  0.0119
16286TIP3    H170273   0.574   3.101   0.413  1.1668 -1.4469 -0.4958
16286TIP3    H270274   0.566   3.125   0.563 -0.4651 -2.1278 -0.4524
16287TIP3   OH270275   2.772   1.870  12.786  0.2160  0.3478 -0.5421
16287TIP3    H170276   2.678   1.879  12.803  0.4123 -0.4381  1.1805
16287TIP3    H270277   2.782   1.780  12.756  0.5501  0.0576  0.4173
16288TIP3   OH270278   2.022   4.847  13.414  0.2825 -0.4508  0.0884
16288TIP3    H170279   2.115   4.829  13.399  0.2205  0.1332 -1.1973
16288TIP3    H270280   2.017   4.943  13.415 -0.3763 -0.4695 -0.5285
16289TIP3   OH270281   6.644   5.894  11.920 -0.6740  0.2810 -0.0284
16289TIP3    H170282   6.723   5.924  11.875  0.0217  0.2512  1.1269
16289TIP3    H270283   6.662   5.910  12.012 -1.7323 -0.4013  0.3119
16290TIP3   OH270284   5.466   6.626   2.756  0.6733  0.0580  0.0559
16290TIP3    H170285   5.412   6.547   2.765  1.5851 -0.5353  0.5147
16290TIP3    H270286   5.436   6.667   2.675 -1.2271  0.3586  0.8461
16291TIP3   OH270287   3.449   3.536   1.945  0.2061 -0.2245 -0.2922
16291TIP3    H170288   3.473   3.454   1.901  0.6650 -0.5894  0.6017
16291TIP3    H270289   3.366   3.518   1.988  1.0053 -0.7231  1.1231
16292TIP3   OH270290   1.313   2.080   0.588 -1.0702  0.1670 -0.1638
16292TIP3    H170291   1.336   2.063   0.679  2.2631  0.5436 -0.8317
16292TIP3    H270292   1.254   2.156   0.593  0.7470  1.5827  1.6359
16293TIP3   OH270293   4.993   6.119  15.886 -0.2892 -0.0763  0.5483
16293TIP3    H170294   5.079   6.122  15.927 -0.4898  2.9960  0.9521
16293TIP3    H270295   4.934   6.087  15.954  0.3145 -1.1137  0.6083
16294TIP3   OH270296   5.855   3.438  11.182  0.3219 -0.6190  0.1023
16294TIP3    H170297   5.912   3.475  11.115 -0.7336  0.6366 -0.1424
16294TIP3    H270298   5.778   3.406  11.135 -0.1008 -0.4006  0.6303
16295TIP3   OH270299   6.768   3.670  13.666  0.2043 -0.1067  0.1583
16295TIP3    H170300   6.759   3.576  13.680 -0.0882 -0.0844  0.1210
16295TIP3    H270301   6.698   3.710  13.717 -1.0368 -0.0387 -1.5002
16296TIP3   OH270302   3.916   3.322   5.202  0.5108  0.3054 -0.1400
16296TIP3    H170303   3.820   3.315   5.200  0.6147 -2.4814  0.1569
16296TIP3    H270304   3.936   3.353   5.290 -0.1084  1.0958 -0.2649
16297TIP3   OH270305   5.051   1.884   0.691 -0.1143 -0.0259 -0.1092
16297TIP3    H170306   5.115   1.831   0.739 -2.7266 -3.2933  0.1574
16297TIP3    H270307   5.064   1.860   0.599 -1.1575 -1.1010 -0.0085
16298TIP3   OH270308   6.138   4.015   3.186 -0.6920 -0.7836 -0.4350
16298TIP3    H170309   6.051   3.983   3.209  0.5093 -2.7952  1.8845
16298TIP3    H270310   6.196   3.941   3.206  1.8684  1.4801  1.2558
16299TIP3   OH270311   2.654   6.507   2.833 -0.8428  0.0344  0.0305
16299TIP3    H170312   2.706   6.583   2.807 -0.4470 -0.2547 -0.0248
16299TIP3    H270313   2.710   6.460   2.895 -0.3106 -1.2208 -1.3511
16300TIP3   OH270314   2.343   4.265   0.083 -0.6573  0.4941 -0.0954
16300TIP3    H170315   2.375   4.202   0.148 -0.4880  1.0150  0.3240
16300TIP3    H270316   2.342   4.349   0.128 -1.6845  0.6582 -0.4018
16301TIP3   OH270317   6.755   3.120   3.529 -0.1294  0.4739  0.2415
16301TIP3    H170318   6.845   3.110   3.498 -0.5866 -0.2566 -0.9384
16301TIP3    H270319   6.730   3.209   3.505  1.0923  1.6418  2.9153
16302TIP3   OH270320   5.105   4.129  11.539  0.2399 -0.5372  0.7913
16302TIP3    H170321   5.073   4.212  11.574  0.2313 -0.8998  1.6565
16302TIP3    H270322   5.029   4.072  11.540  0.2783 -0.5997  0.3167
16303TIP3   OH270323   5.461   5.086  13.359  0.0568  0.5025 -0.2382
16303TIP3    H170324   5.388   5.035  13.392 -0.5520  0.5385 -1.4663
16303TIP3    H270325   5.462   5.165  13.413  0.3413 -0.3121  0.9721
16304TIP3   OH270326   6.329   2.816   0.604 -0.1177 -0.1468  0.0709
16304TIP3    H170327   6.322   2.819   0.699  0.1966 -2.7087  0.2522
16304TIP3    H270328   6.265   2.750   0.577 -0.1916  0.5203 -1.5131
16305TIP3   OH270329   5.573   2.819  12.825 -0.4196 -0.1730 -0.6061
16305TIP3    H170330   5.628   2.880  12.776 -1.6593  1.3898 -0.1611
16305TIP3    H270331   5.553   2.865  12.907 -3.1378 -0.2007 -1.1421
16306TIP3   OH270332   6.138   0.373   1.141 -0.3182  0.1105 -0.0262
16306TIP3    H170333   6.140   0.312   1.068  1.0087 -0.0831  0.1433
16306TIP3    H270334   6.186   0.328   1.211  0.5616  1.2834  0.1461
16307TIP3   OH270335   6.411   5.927   2.288 -0.3577 -0.2039 -0.0798
16307TIP3    H170336   6.346   5.969   2.233 -1.1961  0.9752  1.7138
16307TIP3    H270337   6.373   5.842   2.310 -0.0686 -0.6310 -1.1725
16308TIP3   OH270338   1.040   5.516  14.918  0.1762  0.0948  0.0109
16308TIP3    H170339   1.122   5.565  14.907  0.9468 -1.1651 -0.1516
16308TIP3    H270340   1.064   5.444  14.977 -1.0367  0.1845  0.6314
16309TIP3   OH270341   1.660   2.867   2.592  0.2083 -0.1315  0.2818
16309TIP3    H170342   1.579   2.818   2.576 -0.5712  0.8533  1.0948
16309TIP3    H270343   1.632   2.947   2.637  1.6504  0.1447  0.7575
16310TIP3   OH270344   0.675   0.206   5.528  0.4070 -0.3114 -0.4804
16310TIP3    H170345   0.765   0.231   5.512  0.6836 -0.6128  0.5229
16310TIP3    H270346   0.650   0.155   5.451 -0.0435  2.5389 -2.3622
16311TIP3   OH270347   2.529   6.681   1.988  0.2340 -0.1223 -0.2462
16311TIP3    H170348   2.564   6.651   1.904 -0.5801 -0.4597 -0.4749
16311TIP3    H270349   2.536   6.776   1.984  1.5628 -0.1889 -0.0810
16312TIP3   OH270350   1.912   5.491   2.440 -0.0694  0.3527  0.4062
16312TIP3    H170351   1.846   5.431   2.474  0.5249 -0.9026 -0.5886
16312TIP3    H270352   1.883   5.577   2.471 -1.4573 -0.3107  1.0707
16313TIP3   OH270353   2.840   5.901   4.986  0.2772  0.3442 -0.2681
16313TIP3    H170354   2.925   5.921   4.945  1.3308 -0.7095  1.3000
16313TIP3    H270355   2.822   5.811   4.961 -0.0447  0.3440 -0.0345
16314TIP3   OH270356   6.746   5.691  14.684  0.4069 -0.2152 -0.2709
16314TIP3    H170357   6.764   5.783  14.664  3.5940 -0.5440  0.4563
16314TIP3    H270358   6.656   5.677  14.655  0.5157  2.5713 -2.3699
16315TIP3   OH270359   5.464   2.240   0.705 -0.4183  0.2629  0.5762
16315TIP3    H170360   5.373   2.268   0.711 -0.9003 -0.4722 -1.9937
16315TIP3    H270361   5.470   2.195   0.621  2.8402  2.4006 -0.5716
16316TIP3   OH270362   6.017   2.835   6.064 -0.3718 -0.0231  0.4296
16316TIP3    H170363   5.963   2.891   6.120 -0.1265  0.4592  0.1851
16316TIP3    H270364   5.980   2.748   6.075 -0.8261  0.2047  0.7274
16317TIP3   OH270365   2.353   2.215  17.047 -0.9525 -0.0745  0.0252
16317TIP3    H170366   2.303   2.143  17.084  0.8064 -1.2848  0.1663
16317TIP3    H270367   2.343   2.205  16.952  0.9232 -1.8363 -0.0615
16318TIP3   OH270368   3.241   5.652  12.222  0.1509 -0.8824  0.4671
16318TIP3    H170369   3.291   5.653  12.140  1.8495  0.4543  1.4528
16318TIP3    H270370   3.218   5.743  12.238  0.4635 -1.0202  1.8249
16319TIP3   OH270371   0.849   5.851   5.026 -0.1500  0.2952 -0.5615
16319TIP3    H170372   0.806   5.886   4.948 -0.8368  3.0038  0.9098
16319TIP3    H270373   0.921   5.910   5.043  0.8631 -1.0738  0.1120
16320TIP3   OH270374   4.014   4.907  12.336  0.0464 -0.2633 -0.2042
16320TIP3    H170375   4.107   4.887  12.346  0.0293 -0.7134 -0.8962
16320TIP3    H270376   4.005   4.995  12.373  0.7329 -0.2480 -0.0539
16321TIP3   OH270377   1.444   1.094  16.285 -0.1256  0.3269 -0.0881
16321TIP3    H170378   1.418   1.002  16.290 -1.6925  0.6867 -0.9942
16321TIP3    H270379   1.531   1.093  16.245 -0.4344 -0.7356 -0.7653
16322TIP3   OH270380   2.312   3.393  14.585  0.4165 -0.6523 -0.4913
16322TIP3    H170381   2.238   3.423  14.532 -1.3473 -1.2357  1.5226
16322TIP3    H270382   2.312   3.298  14.573  1.3079 -0.5940 -1.0259
16323TIP3   OH270383   6.794   3.511  14.600  0.0350 -0.1834  0.3693
16323TIP3    H170384   6.771   3.569  14.527  3.6770  0.6544 -0.3149
16323TIP3    H270385   6.777   3.564  14.678 -0.6292  0.2005 -0.0210
16324TIP3   OH270386   5.561   4.856   5.331  0.0378  1.1934  0.1409
16324TIP3    H170387   5.561   4.920   5.403  2.5639  0.0950  1.2190
16324TIP3    H270388   5.605   4.901   5.259  1.8602  0.7193  0.9162
16325TIP3   OH270389   5.272   1.537  16.623  0.1289  0.2547 -0.6424
16325TIP3    H170390   5.354   1.497  16.651 -0.2335 -0.6335 -0.8241
16325TIP3    H270391   5.240   1.584  16.700  0.1432 -0.4921 -0.1797
16326TIP3   OH270392   1.783   6.016   5.184  0.1620 -0.0724  0.0867
16326TIP3    H170393   1.875   5.991   5.174  0.1402 -0.1031 -0.0336
16326TIP3    H270394   1.740   5.936   5.212 -0.3902 -0.9183 -2.8317
16327TIP3   OH270395   0.641   5.640  12.594 -0.5286 -0.5279  0.0073
16327TIP3    H170396   0.615   5.632  12.686 -2.9439 -0.9359 -0.6319
16327TIP3    H270397   0.726   5.596  12.589 -0.7278 -1.2126  1.8919
16328TIP3   OH270398   4.727   1.678  14.460  0.3799 -0.2886 -0.1816
16328TIP3    H170399   4.727   1.657  14.367 -2.2205  0.8652 -0.5261
16328TIP3    H270400   4.763   1.600  14.502  2.8985 -0.3281 -2.1699
16329TIP3   OH270401   0.553   2.929  13.997  0.4265 -0.0482 -0.5709
16329TIP3    H170402   0.604   2.847  14.000 -2.2452 -1.8083  0.0301
16329TIP3    H270403   0.487   2.918  14.065 -0.3169  2.4406 -0.8182
16330TIP3   OH270404   5.298   5.389   4.613 -0.2840 -0.1034 -0.0853
16330TIP3    H170405   5.245   5.311   4.593  0.7644 -0.9257  0.2820
16330TIP3    H270406   5.233   5.457   4.633 -1.2185 -0.8825 -0.3684
16331TIP3   OH270407   6.344   4.794  11.314 -0.5085  0.1851  0.4339
16331TIP3    H170408   6.251   4.782  11.335 -0.2817 -2.5885  0.2928
16331TIP3    H270409   6.390   4.741  11.379  0.9127  0.5346 -0.2577
16332TIP3   OH270410   3.559   1.979  12.876  0.0065  0.7273  0.3684
16332TIP3    H170411   3.582   1.903  12.930 -1.1577 -0.3083 -0.5385
16332TIP3    H270412   3.599   1.961  12.791 -1.0682  0.6436 -0.1341
16333TIP3   OH270413   2.940   2.830   3.849  0.7050  0.2436 -0.0972
16333TIP3    H170414   2.950   2.863   3.938 -0.1119  0.0138  0.0926
16333TIP3    H270415   2.920   2.737   3.860  0.7556  0.1794 -0.5250
16334TIP3   OH270416   6.578   0.035   2.311  0.0409  0.4590 -0.2929
16334TIP3    H170417   6.485   0.033   2.288 -0.2371 -0.0268  0.7980
16334TIP3    H270418   6.623   0.017   2.229 -0.8069  1.2097 -0.9435
16335TIP3   OH270419   2.152   4.078   5.558  0.2456 -0.7064 -0.3401
16335TIP3    H170420   2.077   4.122   5.599  0.5803  0.4489 -0.9168
16335TIP3    H270421   2.214   4.066   5.630 -0.4553 -1.6314  0.1337
16336TIP3   OH270422   2.626   4.136  16.352  0.7263 -0.2441 -0.1947
16336TIP3    H170423   2.713   4.128  16.390  0.5438 -0.0952  0.2582
16336TIP3    H270424   2.641   4.167  16.263  1.1561 -0.6233 -0.2584
16337TIP3   OH270425   2.537   6.347   0.856  0.0887 -0.2844  0.1611
16337TIP3    H170426   2.474   6.338   0.928  0.6983  0.5970  0.8196
16337TIP3    H270427   2.539   6.440   0.836  1.2681 -0.2740  0.2368
16338TIP3   OH270428   5.457   3.412  15.730 -0.0224 -0.5180 -0.0593
16338TIP3    H170429   5.492   3.500  15.748 -0.7579 -0.6306  2.2651
16338TIP3    H270430   5.534   3.355  15.733  0.4065 -0.0163 -1.1789
16339TIP3   OH270431   4.544   2.609  10.099  0.1271  0.1123  0.5046
16339TIP3    H170432   4.572   2.687  10.146 -0.7695  1.5008 -1.1222
16339TIP3    H270433   4.625   2.570  10.066  0.5189  1.0557  0.3182
16340TIP3   OH270434   3.458   5.451   0.248  0.2038  0.0305 -0.1258
16340TIP3    H170435   3.525   5.466   0.314 -1.2605 -1.0209  1.6763
16340TIP3    H270436   3.377   5.440   0.297 -1.0731 -0.1836 -2.1417
16341TIP3   OH270437   5.961   4.964  13.479 -0.5275  0.0851 -0.1855
16341TIP3    H170438   6.026   5.000  13.420 -1.7341  0.7439 -1.1594
16341TIP3    H270439   5.976   4.869  13.477 -0.7214  0.0655 -1.7918
16342TIP3   OH270440   1.146   2.106  11.029 -0.0283  0.5613  0.3119
16342TIP3    H170441   1.198   2.186  11.016  2.0894 -0.3167  2.6443
16342TIP3    H270442   1.201   2.036  10.995 -1.7550 -0.0223 -1.4585
16343TIP3   OH270443   5.703   0.073  16.635  0.1580 -0.0006 -0.1538
16343TIP3    H170444   5.718   0.102  16.725  1.2988  0.1273 -0.3685
16343TIP3    H270445   5.785   0.030  16.609  0.4694  1.3798 -1.6564
16344TIP3   OH270446   1.612   4.281   0.147  0.2776  0.3957  0.0987
16344TIP3    H170447   1.572   4.205   0.105  1.1128 -0.2687  0.4820
16344TIP3    H270448   1.574   4.357   0.102  0.6613 -0.2773 -1.3869
16345TIP3   OH270449   4.740   3.672  13.006  0.4900 -0.0905 -0.1234
16345TIP3    H170450   4.781   3.673  13.093  0.5791  2.7881 -0.1091
16345TIP3    H270451   4.651   3.703  13.022  0.6720  0.9741 -1.1115
16346TIP3   OH270452   0.565   3.796  10.660  0.4985  0.4509  0.2001
16346TIP3    H170453   0.569   3.804  10.755  1.6225  0.3987  0.1708
16346TIP3    H270454   0.622   3.722  10.640 -0.2087  0.0741 -0.4779
16347TIP3   OH270455   3.365   2.424  15.620 -0.3282  0.2263  0.0839
16347TIP3    H170456   3.276   2.393  15.600  0.1505 -1.0980 -0.1060
16347TIP3    H270457   3.422   2.370  15.566  0.8155 -1.4377  2.7417
16348TIP3   OH270458   2.252   4.788  10.943  0.2963 -0.1984 -0.6585
16348TIP3    H170459   2.319   4.855  10.952  1.6206 -1.4049 -1.1260
16348TIP3    H270460   2.172   4.836  10.921  1.2871  1.1825 -1.3693
16349TIP3   OH270461   4.596   0.354   4.590  0.0590  0.3702 -0.2775
16349TIP3    H170462   4.643   0.305   4.522 -0.4849 -0.4098 -0.0991
16349TIP3    H270463   4.618   0.446   4.572  1.5394  0.0376 -0.2685
16350TIP3   OH270464   4.206   1.696  16.864 -0.3587  0.4386  0.6141
16350TIP3    H170465   4.195   1.602  16.848  0.2719  0.6713 -1.3419
16350TIP3    H270466   4.131   1.719  16.920 -0.6159 -1.1758  0.9966
16351TIP3   OH270467   1.475   0.770   6.179  0.3842  0.2732  0.8943
16351TIP3    H170468   1.396   0.787   6.231  1.0468  0.8110  1.7579
16351TIP3    H270469   1.501   0.681   6.204  0.6356  0.4872  1.3944
16352TIP3   OH270470   4.806   2.942  10.923 -0.0714 -0.1317  0.3847
16352TIP3    H170471   4.782   2.868  10.867  0.5474 -0.6787  0.8224
16352TIP3    H270472   4.877   2.985  10.876 -0.4358  0.1893  0.1268
16353TIP3   OH270473   0.870   2.191   5.999 -0.5044  0.2093 -0.1719
16353TIP3    H170474   0.893   2.141   6.077 -1.2134  0.2484  0.0630
16353TIP3    H270475   0.776   2.179   5.989 -0.7286  1.5933 -0.0221
16354TIP3   OH270476   3.955   2.378   1.251 -0.1854 -0.5034  0.5819
16354TIP3    H170477   3.893   2.324   1.201 -0.5773  1.4912 -1.2621
16354TIP3    H270478   4.040   2.336   1.237 -0.5742 -1.0550 -0.1989
16355TIP3   OH270479   4.521   5.860  14.992  0.1562 -0.1826 -0.2920
16355TIP3    H170480   4.451   5.798  15.009 -1.2906  1.0268 -1.5616
16355TIP3    H270481   4.595   5.806  14.965 -0.8674 -1.3911 -0.7770
16356TIP3   OH270482   4.225   4.326   4.089 -0.8094  0.0929 -0.7485
16356TIP3    H170483   4.142   4.347   4.132  0.1377  1.3427  0.5748
16356TIP3    H270484   4.230   4.230   4.093 -2.2822 -0.0250 -1.0833
16357TIP3   OH270485   4.253   4.162   0.603  0.1010  0.1438  0.1934
16357TIP3    H170486   4.289   4.147   0.516 -0.4388  1.5213 -0.2861
16357TIP3    H270487   4.300   4.100   0.659 -0.9747 -2.2485 -1.3815
16358TIP3   OH270488   2.586   2.004  16.815  0.1191  0.1702 -0.1897
16358TIP3    H170489   2.574   2.012  16.910  1.8798  1.2048 -0.0097
16358TIP3    H270490   2.668   2.050  16.798  0.9494 -1.8216 -1.9352
16359TIP3   OH270491   1.922   5.474  16.701  0.7359 -0.3436 -0.0565
16359TIP3    H170492   1.929   5.441  16.611  2.7680 -0.6558  0.1736
16359TIP3    H270493   1.935   5.569  16.692 -1.3607 -0.0348 -0.3010
16360TIP3   OH270494   6.586   1.393   5.918  0.1525 -0.5898  0.2129
16360TIP3    H170495   6.532   1.404   5.996  1.2324  1.7651  0.7248
16360TIP3    H270496   6.674   1.421   5.945  0.2687  1.7645 -2.1514
16361TIP3   OH270497   0.791   4.606  11.983 -0.2627  1.0623  0.8500
16361TIP3    H170498   0.871   4.553  11.980  0.2722  1.8008  1.8367
16361TIP3    H270499   0.748   4.580  12.065 -0.6745  1.1864  0.6764
16362TIP3   OH270500   4.099   0.956  11.784  0.8453 -0.6450 -0.2969
16362TIP3    H170501   4.026   0.904  11.816  0.7164  0.1362  0.7353
16362TIP3    H270502   4.060   1.015  11.719  0.3645  0.4195  0.9341
16363TIP3   OH270503   2.154   2.362   5.660  0.3923 -0.1055 -0.1456
16363TIP3    H170504   2.175   2.431   5.598  0.2911  0.2024  0.1615
16363TIP3    H270505   2.062   2.377   5.683  1.2527  1.7546  2.5283
16364TIP3   OH270506   5.157   5.856  14.254 -0.5074  0.2899 -0.4049
16364TIP3    H170507   5.217   5.798  14.301 -1.2847 -0.5285 -0.4142
16364TIP3    H270508   5.086   5.799  14.224 -0.2360  0.8598 -2.2356
16365TIP3   OH270509   3.080   4.955   1.010 -0.2093  0.0430  0.0259
16365TIP3    H170510   2.999   4.998   0.984 -0.2776 -0.3925 -0.4995
16365TIP3    H270511   3.059   4.861   1.006 -0.0785 -0.0551  1.1866
16366TIP3   OH270512   3.915   2.499  15.505 -0.3185 -0.6874 -0.4655
16366TIP3    H170513   3.892   2.561  15.435  2.3648  2.8929  1.4784
16366TIP3    H270514   3.836   2.492  15.558 -0.9099  0.5192 -1.1423
16367TIP3   OH270515   3.736   5.621  11.045  0.2473  0.4535 -0.2306
16367TIP3    H170516   3.732   5.534  11.006 -0.3624 -0.0641  0.9440
16367TIP3    H270517   3.676   5.674  10.993 -0.7602 -0.2902  0.1421
16368TIP3   OH270518   5.265   0.978  12.647 -0.1932 -0.1434  0.2397
16368TIP3    H170519   5.180   0.955  12.609 -2.2111  0.4676  3.9200
16368TIP3    H270520   5.303   1.039  12.584 -1.1345 -2.4728 -2.8508
16369TIP3   OH270521   2.811   0.237   2.749 -0.7994 -0.5941  0.4538
16369TIP3    H170522   2.824   0.278   2.664 -1.1681 -1.1022  0.1412
16369TIP3    H270523   2.896   0.240   2.791 -0.3956 -1.1393 -0.3014
16370TIP3   OH270524   3.610   0.680   0.848 -0.5867  0.0101 -0.2270
16370TIP3    H170525   3.547   0.730   0.797  0.4456  1.9976  0.3354
16370TIP3    H270526   3.562   0.602   0.876 -2.1046  0.3995 -1.5957
16371TIP3   OH270527   3.993   4.456   5.239 -0.7699 -0.3752  0.1835
16371TIP3    H170528   3.988   4.363   5.261 -0.4505 -0.4052  0.1351
16371TIP3    H270529   3.934   4.466   5.164 -1.6783 -0.3174  0.8837
16372TIP3   OH270530   1.263   0.985   2.117 -0.4748 -0.1455  0.0887
16372TIP3    H170531   1.265   0.937   2.035 -1.5347 -1.6733  0.9113
16372TIP3    H270532   1.170   0.990   2.141 -0.1017 -1.1617  1.9700
16373TIP3   OH270533   5.327   5.424   2.942  0.5618  0.3126 -0.3446
16373TIP3    H170534   5.379   5.479   3.000 -0.1257  0.4817  0.1320
16373TIP3    H270535   5.391   5.369   2.897  1.1291  0.3352  0.4153
16374TIP3   OH270536   4.951   5.403   0.137  0.2672 -0.2269 -0.4297
16374TIP3    H170537   4.909   5.456   0.069 -1.6349 -1.1567 -0.0595
16374TIP3    H270538   4.917   5.314   0.123  0.7327 -0.6671  1.0022
16375TIP3   OH270539   2.862   0.377  11.450  0.2863  0.3126  0.1335
16375TIP3    H170540   2.823   0.349  11.367  1.3757  0.3356 -0.4142
16375TIP3    H270541   2.864   0.299  11.504 -1.4053  0.5310  0.5514
16376TIP3   OH270542   4.611   3.291  13.035  0.2108  0.7663 -0.2553
16376TIP3    H170543   4.571   3.205  13.028 -0.0370  0.7328  1.2447
16376TIP3    H270544   4.669   3.285  13.111 -0.1787  2.0321  0.1778
16377TIP3   OH270545   1.927   5.570  11.325  0.1173 -0.3495  0.0249
16377TIP3    H170546   1.849   5.540  11.279 -0.1000  0.4871 -0.1656
16377TIP3    H270547   1.899   5.587  11.415  0.1377 -0.3131  0.0251
16378TIP3   OH270548   2.263   4.816   3.029  0.3040  0.0228  0.0231
16378TIP3    H170549   2.315   4.849   3.102  0.2512 -1.5415  0.7953
16378TIP3    H270550   2.176   4.856   3.042  0.5413  0.4647  0.2812
16379TIP3   OH270551   6.211   5.318   0.018 -0.3847 -0.1971 -0.0349
16379TIP3    H170552   6.298   5.279   0.028 -1.2758 -2.9537 -1.6823
16379TIP3    H270553   6.193   5.359   0.102  1.4344 -1.9179  1.3025
16380TIP3   OH270554   5.482   1.621  15.502  0.3373 -0.1353 -0.0265
16380TIP3    H170555   5.430   1.543  15.481 -1.2090  0.8936 -0.2036
16380TIP3    H270556   5.572   1.596  15.481  0.0679 -2.2452  0.9846
16381TIP3   OH270557   0.222   5.229   1.194 -0.1035  0.6224  0.1412
16381TIP3    H170558   0.302   5.279   1.212  1.4678 -1.3806 -0.9486
16381TIP3    H270559   0.188   5.207   1.281  0.7941  1.0809  0.6320
16382TIP3   OH270560   0.277   2.965  14.081 -0.7972 -0.3530  0.3221
16382TIP3    H170561   0.320   3.042  14.044 -2.6486 -0.0482 -1.3930
16382TIP3    H270562   0.253   2.991  14.170  0.8348  0.1079  0.6480
16383TIP3   OH270563   2.390   0.908   2.366 -0.3547 -0.2846 -0.3401
16383TIP3    H170564   2.417   0.936   2.453  1.4891 -0.3512 -0.8620
16383TIP3    H270565   2.368   0.990   2.320 -0.5486 -0.1853 -0.0728
16384TIP3   OH270566   6.422   6.294  14.804  0.6002  0.6120  0.1926
16384TIP3    H170567   6.361   6.274  14.875  1.4510 -1.5968  0.3952
16384TIP3    H270568   6.458   6.209  14.779 -0.1981  1.1913 -3.4360
16385TIP3   OH270569   1.146   3.370   2.963 -0.1018 -0.0827  0.3424
16385TIP3    H170570   1.112   3.287   2.995  0.0952 -0.9161 -1.4710
16385TIP3    H270571   1.070   3.414   2.924 -0.1364  0.4566  0.9928
16386TIP3   OH270572   5.533   1.513  10.813 -0.1969 -0.0240  0.1163
16386TIP3    H170573   5.544   1.440  10.753 -1.6971 -1.1642  1.1507
16386TIP3    H270574   5.520   1.589  10.756  1.6060 -0.4790 -0.9809
16387TIP3   OH270575   4.773   0.320  15.511  0.2812  0.3655  0.2444
16387TIP3    H170576   4.810   0.232  15.518  0.0000  0.2669  0.5278
16387TIP3    H270577   4.767   0.336  15.417  2.1569  0.8670  0.1694
16388TIP3   OH270578   1.514   3.817   2.359  0.5179  0.1714 -0.4543
16388TIP3    H170579   1.574   3.756   2.316  0.0581 -0.8304  0.3092
16388TIP3    H270580   1.494   3.777   2.443 -0.3376  1.0430 -0.2206
16389TIP3   OH270581   4.042   2.014  10.390  0.2542 -0.3218  0.7251
16389TIP3    H170582   4.105   2.003  10.461 -0.9179  0.6987  1.9881
16389TIP3    H270583   4.053   2.105  10.362  0.4061 -0.5938 -0.1243
16390TIP3   OH270584   0.489   3.285   6.017 -0.0382 -0.1334 -0.1802
16390TIP3    H170585   0.459   3.261   6.105 -1.2839  2.1460  0.1065
16390TIP3    H270586   0.581   3.309   6.028  0.5496 -2.2502 -0.0424
16391TIP3   OH270587   1.527   3.965   0.354 -0.1154  0.4291 -0.1285
16391TIP3    H170588   1.445   3.924   0.326  1.4191 -1.7445 -1.7301
16391TIP3    H270589   1.513   4.058   0.340 -1.7815 -0.0271 -1.9302
16392TIP3   OH270590   5.120   0.205   1.108  0.7193  0.7743 -0.2275
16392TIP3    H170591   5.088   0.200   1.198 -0.6658  3.3121 -0.4645
16392TIP3    H270592   5.051   0.254   1.061  2.5825  1.8406 -2.0247
16393TIP3   OH270593   1.045   0.492  16.153 -0.2375  0.1692 -0.6570
16393TIP3    H170594   1.030   0.433  16.226  1.6390  0.8189  0.3234
16393TIP3    H270595   0.961   0.496  16.107 -1.5734 -0.0199  1.6327
16394TIP3   OH270596   1.788   5.789  13.321 -0.6106  0.0823 -0.7284
16394TIP3    H170597   1.768   5.815  13.411 -0.2419 -2.0183  0.0162
16394TIP3    H270598   1.874   5.747  13.327 -0.2746  0.5018 -2.1934
16395TIP3   OH270599   2.288   4.487  14.545  0.3918 -0.4316  0.2934
16395TIP3    H170600   2.320   4.408  14.502  1.1757  0.6123 -1.1069
16395TIP3    H270601   2.348   4.499  14.619  0.6899 -0.7752  0.1134
16396TIP3   OH270602   6.004   5.909  12.340  0.4580  0.0015  0.5523
16396TIP3    H170603   6.065   5.925  12.412 -0.5493  0.8653  1.2392
16396TIP3    H270604   5.934   5.856  12.379 -0.9791  1.9241  0.6904
16397TIP3   OH270605   4.155   5.350  15.913  0.7393 -0.1149  0.5209
16397TIP3    H170606   4.147   5.260  15.883  0.0311  0.0922  0.0466
16397TIP3    H270607   4.126   5.348  16.004  1.2162 -0.4537  0.6663
16398TIP3   OH270608   0.358   4.256  16.612  1.0029 -0.1857 -0.4414
16398TIP3    H170609   0.351   4.263  16.517  0.3257 -0.9956 -0.4590
16398TIP3    H270610   0.417   4.183  16.627  1.8203  0.5010 -0.2292
16399TIP3   OH270611   2.144   5.215   5.496 -0.2006  0.2017  0.1461
16399TIP3    H170612   2.174   5.295   5.539  0.2548 -1.0065  2.2351
16399TIP3    H270613   2.052   5.207   5.522 -0.3911  0.2967 -0.4822
16400TIP3   OH270614   5.615   4.752  10.575 -0.4323 -1.0453 -0.2186
16400TIP3    H170615   5.522   4.732  10.563 -0.4050  0.0195 -2.8795
16400TIP3    H270616   5.660   4.682  10.527 -0.0992  0.9282 -2.9917
16401TIP3   OH270617   5.700   5.642  14.676  0.1370  0.3563  0.1160
16401TIP3    H170618   5.699   5.547  14.666  0.4248  0.4058 -0.4084
16401TIP3    H270619   5.691   5.676  14.587 -3.1208  0.8609  0.5089
16402TIP3   OH270620   3.513   4.144   3.035 -0.0802  0.8247 -0.0297
16402TIP3    H170621   3.537   4.117   3.123  0.1524  0.1280 -0.2987
16402TIP3    H270622   3.549   4.233   3.026  0.3878  0.6781  0.3768
16403TIP3   OH270623   3.611   4.734  12.099 -0.4918 -0.2833 -0.4522
16403TIP3    H170624   3.608   4.729  12.194 -0.6654 -0.7250 -0.4806
16403TIP3    H270625   3.632   4.826  12.080  0.6141 -0.4215  0.0360
16404TIP3   OH270626   1.457   2.892   5.275  0.2081  0.1483  0.1271
16404TIP3    H170627   1.549   2.899   5.251  0.1138 -0.5598 -0.4811
16404TIP3    H270628   1.453   2.816   5.333  0.1710  0.8485  1.0682
16405TIP3   OH270629   0.169   2.225  11.921  0.1450 -0.5717  0.0223
16405TIP3    H170630   0.206   2.306  11.957 -0.4851 -0.0736 -0.4135
16405TIP3    H270631   0.087   2.253  11.880  0.7301 -1.1330 -1.6218
16406TIP3   OH270632   6.110   2.346   2.122  0.0475  0.0733  0.0793
16406TIP3    H170633   6.176   2.276   2.114 -1.0134 -0.9907  0.3686
16406TIP3    H270634   6.069   2.349   2.036  0.3063  0.5779 -0.0293
16407TIP3   OH270635   3.535   0.324   1.295  0.2249  0.0113 -0.3180
16407TIP3    H170636   3.462   0.383   1.311  0.2839 -0.1171  0.4991
16407TIP3    H270637   3.595   0.374   1.239 -0.4378  0.1472 -0.9185
16408TIP3   OH270638   4.581   4.624  16.999  0.2975 -0.4179 -0.0947
16408TIP3    H170639   4.670   4.648  16.973  0.2096  0.6938  0.5809
16408TIP3    H270640   4.556   4.689  17.065 -1.2674 -0.3022 -0.7485
16409TIP3   OH270641   3.094   1.566  14.145 -0.0847 -0.0017  0.6013
16409TIP3    H170642   3.039   1.637  14.112  0.9401 -0.1772 -1.6671
16409TIP3    H270643   3.035   1.493  14.157 -0.3759 -0.3147 -2.2040
16410TIP3   OH270644   0.053   2.271  16.651 -0.1429 -0.1278  0.3774
16410TIP3    H170645   0.106   2.340  16.691  0.2612 -0.6294  0.7250
16410TIP3    H270646  -0.001   2.316  16.586 -0.2483  0.5859  0.9509
16411TIP3   OH270647   1.924   2.439   2.066 -0.0844 -0.1738 -0.1975
16411TIP3    H170648   1.931   2.346   2.086 -0.3971  0.2545  2.3009
16411TIP3    H270649   2.001   2.458   2.012 -0.1002 -1.8828 -0.8771
16412TIP3   OH270650   3.815   1.499  15.257  0.5143 -0.4354  0.2409
16412TIP3    H170651   3.895   1.551  15.268  0.3759  0.0614 -0.9818
16412TIP3    H270652   3.796   1.504  15.164 -0.6853 -0.9520  0.4447
16413TIP3   OH270653   1.917   4.831   2.083  0.1063  0.3846 -0.2814
16413TIP3    H170654   1.901   4.794   1.996 -0.7158  0.5835 -0.2197
16413TIP3    H270655   1.961   4.761   2.131 -0.3229 -0.0768 -0.5507
16414TIP3   OH270656   3.910   3.239  11.195  0.2860 -0.4546 -0.5557
16414TIP3    H170657   3.867   3.239  11.109  0.9218 -4.7278 -1.1344
16414TIP3    H270658   3.843   3.206  11.255  0.3700  0.8521  0.2924
16415TIP3   OH270659   2.520   2.413  16.368 -0.0551 -0.0025 -0.1115
16415TIP3    H170660   2.583   2.466  16.416  0.1838 -0.4243  0.0429
16415TIP3    H270661   2.441   2.468  16.363 -0.3503 -0.2384  1.4380
16416TIP3   OH270662   1.785   5.038   0.886 -0.6024 -0.1774 -0.2218
16416TIP3    H170663   1.802   5.056   0.979 -3.1075  3.4726 -0.2650
16416TIP3    H270664   1.866   5.062   0.842 -0.0170 -0.1040  0.8497
16417TIP3   OH270665   4.297   3.598  12.892  0.3611 -0.0030 -0.0053
16417TIP3    H170666   4.340   3.584  12.977  0.7474  0.7292 -0.0731
16417TIP3    H270667   4.260   3.686  12.898  0.0925 -0.0789 -0.4749
16418TIP3   OH270668   0.044   0.681   5.940  0.1226 -1.2123 -0.5635
16418TIP3    H170669   0.102   0.646   5.874  0.4453 -1.0917 -0.3487
16418TIP3    H270670  -0.031   0.714   5.892  0.2567 -1.3242 -0.8476
16419TIP3   OH270671   2.436   2.693   0.624 -0.4470 -0.2129  0.1807
16419TIP3    H170672   2.358   2.739   0.595 -2.4760 -2.1824  2.1209
16419TIP3    H270673   2.407   2.603   0.640  2.3721 -1.1924  0.3978
16420TIP3   OH270674   1.111   4.864  14.157 -0.6795  0.4766  0.1334
16420TIP3    H170675   1.151   4.777  14.166 -0.9859  0.4022  0.8144
16420TIP3    H270676   1.123   4.886  14.065 -1.9077 -0.9313 -0.3933
16421TIP3   OH270677   3.453   0.874  15.765  0.5008 -0.4433  0.0116
16421TIP3    H170678   3.359   0.880  15.750  0.8492 -0.5059 -2.7845
16421TIP3    H270679   3.464   0.795  15.818 -1.0776  0.2663  1.4502
16422TIP3   OH270680   2.572   5.629   0.556 -0.4035  0.0145 -0.5859
16422TIP3    H170681   2.575   5.682   0.477 -0.2362  0.0423 -0.5617
16422TIP3    H270682   2.512   5.675   0.614  0.9320  1.0318  0.0486
16423TIP3   OH270683   5.645   3.895   5.919 -0.2666 -0.6478 -0.3787
16423TIP3    H170684   5.660   3.947   5.839  0.2366  0.9364  0.7033
16423TIP3    H270685   5.728   3.898   5.965 -1.2549  0.7232  1.4473
16424TIP3   OH270686   2.264   3.142   1.257  0.2923  0.1065 -0.0909
16424TIP3    H170687   2.173   3.169   1.271  0.7190  1.8132 -0.4255
16424TIP3    H270688   2.259   3.074   1.190 -0.7995 -0.4881  0.5620
16425TIP3   OH270689   0.433   0.835   0.010  1.3974  0.5077  0.4311
16425TIP3    H170690   0.425   0.750  -0.032  1.8838  0.6419  0.0516
16425TIP3    H270691   0.498   0.822   0.079 -0.1452  0.0289  1.8643
16426TIP3   OH270692   5.077   4.770  14.621  0.3095  0.1974  0.3949
16426TIP3    H170693   5.062   4.754  14.528  1.1280 -0.3529  0.3424
16426TIP3    H270694   5.058   4.863  14.633 -0.2259  0.1772 -0.2288
16427TIP3   OH270695   3.851   0.238   4.627  0.9252  0.1377  0.4811
16427TIP3    H170696   3.847   0.273   4.538 -0.6571  1.7554  1.1218
16427TIP3    H270697   3.837   0.314   4.684 -1.2066 -1.2762  2.0127
16428TIP3   OH270698   1.641   3.336  12.407  0.4307  0.1240 -0.4260
16428TIP3    H170699   1.583   3.281  12.354  1.3082 -0.8688 -0.3920
16428TIP3    H270700   1.615   3.425  12.386  0.4504 -0.2473 -2.2192
16429TIP3   OH270701   0.080   3.417   1.402  0.1917  0.1976 -0.2766
16429TIP3    H170702   0.089   3.434   1.496 -0.4645  0.8201 -0.3185
16429TIP3    H270703   0.079   3.504   1.361  0.8157 -0.0778 -0.9006
16430TIP3   OH270704   2.861   3.488   4.776 -0.3140 -0.1780  1.0052
16430TIP3    H170705   2.939   3.449   4.816 -0.1106 -1.0302 -0.1448
16430TIP3    H270706   2.833   3.423   4.711  0.1298  1.6677 -1.1464
16431TIP3   OH270707   4.967   3.174  14.156  0.1205  0.0132  0.3899
16431TIP3    H170708   5.056   3.142  14.139  0.1022 -0.1133  0.5334
16431TIP3    H270709   4.980   3.262  14.191  0.1881 -0.0029  0.4072
16432TIP3   OH270710   1.571   1.124  14.962  0.2580  0.1310 -1.0617
16432TIP3    H170711   1.650   1.130  14.908  0.4891  0.7488 -0.6633
16432TIP3    H270712   1.500   1.152  14.904  0.5194  0.8922 -1.0143
16433TIP3   OH270713   2.924   3.245  14.148 -0.4414 -0.2107  0.3744
16433TIP3    H170714   2.905   3.230  14.055 -0.2967  2.5373 -0.1888
16433TIP3    H270715   3.020   3.250  14.152 -0.4516 -0.2496  0.6577
16434TIP3   OH270716   4.053   2.600  11.000 -0.0356 -0.1763 -0.0161
16434TIP3    H170717   4.139   2.609  10.958  0.7671 -1.3358  1.2945
16434TIP3    H270718   4.001   2.550  10.938  0.6218 -0.4987 -0.3194
16435TIP3   OH270719   0.081   3.785  15.116  0.0676  0.0897  0.6660
16435TIP3    H170720   0.073   3.842  15.193  0.1159  0.7102  0.2235
16435TIP3    H270721   0.154   3.727  15.136 -1.2378 -1.1779  1.9673
16436TIP3   OH270722   1.925   1.542   0.625  0.4765  0.4503  0.4421
16436TIP3    H170723   1.955   1.454   0.601 -0.7875 -0.1918  1.1233
16436TIP3    H270724   1.867   1.567   0.553  0.3441  0.4669  0.5547
16437TIP3   OH270725   5.753   0.536   3.788 -0.1517  0.0149  0.0744
16437TIP3    H170726   5.667   0.545   3.749 -1.4774 -1.6852  2.3329
16437TIP3    H270727   5.736   0.505   3.877  2.7375  1.1488  1.1600
16438TIP3   OH270728   0.557   0.340   3.410 -0.1619 -0.0568 -0.4108
16438TIP3    H170729   0.476   0.378   3.444 -0.1929  1.0568 -1.6630
16438TIP3    H270730   0.544   0.337   3.315  0.3787 -1.9801 -0.4766
16439TIP3   OH270731   4.712   3.696   5.832 -0.2369  0.4164 -0.4374
16439TIP3    H170732   4.699   3.748   5.753  0.0876  0.4651 -0.4565
16439TIP3    H270733   4.736   3.759   5.899  0.1031  0.2955 -0.4472
16440TIP3   OH270734   0.400   5.794  11.904  0.0648  0.0598 -0.1612
16440TIP3    H170735   0.316   5.747  11.905  0.8007 -1.3921 -1.7607
16440TIP3    H270736   0.433   5.781  11.816  2.4186 -0.1995  0.7050
16441TIP3   OH270737   4.872   6.431  14.782 -0.9048 -0.2016  0.5271
16441TIP3    H170738   4.834   6.370  14.845 -1.5209 -1.5885 -1.1337
16441TIP3    H270739   4.810   6.432  14.709 -1.2106  2.8637  0.6971
16442TIP3   OH270740   2.527   4.119   4.673 -0.3018  0.0995 -0.5578
16442TIP3    H170741   2.580   4.181   4.723 -0.5447  0.3196 -0.5750
16442TIP3    H270742   2.550   4.136   4.582 -1.1134  0.8571 -0.6311
16443TIP3   OH270743   1.350   6.700   2.329 -0.1471  0.0881  0.1442
16443TIP3    H170744   1.411   6.772   2.345  0.1338 -0.4786  1.8280
16443TIP3    H270745   1.400   6.621   2.349 -1.6670 -0.3473  2.6071
16444TIP3   OH270746   0.870   6.663   3.113  0.1537  0.1440  0.5435
16444TIP3    H170747   0.838   6.579   3.146 -1.0563  0.8428  1.2418
16444TIP3    H270748   0.825   6.728   3.167 -0.0895  1.2869 -0.9752
16445TIP3   OH270749   4.715   4.047   4.435 -0.0528  0.2364 -0.0671
16445TIP3    H170750   4.636   4.041   4.489 -0.3823 -0.7377 -0.6349
16445TIP3    H270751   4.768   4.115   4.477  0.3024 -1.3702  2.2900
16446TIP3   OH270752   1.687   1.893   0.921 -0.2823  0.3381 -0.2602
16446TIP3    H170753   1.695   1.810   0.875  3.1283  0.1127  0.4473
16446TIP3    H270754   1.712   1.872   1.011  0.2976  2.0565  0.0059
16447TIP3   OH270755   1.778   0.406  16.536  0.1921 -0.2072  0.0206
16447TIP3    H170756   1.776   0.465  16.461 -0.9420 -1.4189 -0.9588
16447TIP3    H270757   1.870   0.407  16.565  0.1559  2.1470  0.1989
16448TIP3   OH270758   5.249   5.788   3.845  0.1600  0.2077  0.9226
16448TIP3    H170759   5.321   5.753   3.792 -0.2979  1.0086 -0.2557
16448TIP3    H270760   5.170   5.767   3.795 -0.2304  1.5229  0.9672
16449TIP3   OH270761   2.352   5.930  14.742 -0.0319  0.2123  0.1494
16449TIP3    H170762   2.303   5.920  14.824 -0.4759  1.1117  0.0030
16449TIP3    H270763   2.285   5.947  14.676  0.4128  0.5624 -0.2172
16450TIP3   OH270764   6.789   6.534  10.951  0.1063  0.1253  0.4716
16450TIP3    H170765   6.822   6.533  10.861  0.8954  3.8093  0.5524
16450TIP3    H270766   6.704   6.579  10.944 -1.3494 -2.2970  1.2841
16451TIP3   OH270767   1.544   2.877   2.925  0.4705 -0.3101 -0.6818
16451TIP3    H170768   1.541   2.850   3.017 -0.9275  1.7768 -0.0736
16451TIP3    H270769   1.496   2.809   2.879 -0.4607 -0.4086  0.3982
16452TIP3   OH270770   2.375   5.685  15.205 -0.3139  0.2656 -0.1259
16452TIP3    H170771   2.311   5.620  15.234  1.0453 -0.8868  0.3884
16452TIP3    H270772   2.367   5.756  15.268 -1.3030  0.2958 -0.2615
16453TIP3   OH270773   1.939   3.956   6.405  0.4389  0.0589 -0.6209
16453TIP3    H170774   1.980   4.014   6.469 -1.1115 -0.4357  0.9017
16453TIP3    H270775   2.011   3.920   6.354  1.6172  1.4183  0.0244
16454TIP3   OH270776   1.823   3.056  14.141  0.0304  0.1192 -0.0532
16454TIP3    H170777   1.827   3.007  14.059 -1.5398 -1.3916  0.7182
16454TIP3    H270778   1.900   3.027  14.190 -0.4643 -1.0251  0.0769
16455TIP3   OH270779   4.998   3.407  14.336  0.2685  0.2897 -0.0785
16455TIP3    H170780   4.998   3.503  14.336  2.3512  0.3340 -1.7519
16455TIP3    H270781   4.994   3.384  14.429 -0.3163  1.9624  0.3591
16456TIP3   OH270782   6.545   5.076  15.459 -0.7528 -0.4933 -0.4046
16456TIP3    H170783   6.498   5.000  15.425  0.4293 -1.2113 -0.5136
16456TIP3    H270784   6.510   5.090  15.547  0.0263 -2.1121  0.2002
16457TIP3   OH270785   6.304   5.483   6.186 -0.8281 -0.4450  0.3503
16457TIP3    H170786   6.297   5.400   6.234 -1.0332 -0.4327  0.3409
16457TIP3    H270787   6.332   5.546   6.251  0.7885 -0.8227  0.0557
16458TIP3   OH270788   3.358   2.760  11.960 -0.2719 -0.2148 -0.4048
16458TIP3    H170789   3.383   2.725  12.046  0.6433 -1.8790 -1.3013
16458TIP3    H270790   3.440   2.764  11.911 -0.6624  1.4799 -0.9703
16459TIP3   OH270791   4.387   1.109  15.619 -0.0907  0.1439 -0.2046
16459TIP3    H170792   4.308   1.058  15.598  1.0913 -1.9180  0.0966
16459TIP3    H270793   4.356   1.200  15.625 -2.0269 -0.2945 -2.2709
16460TIP3   OH270794   5.922   0.628   1.619  0.2728 -0.1311 -0.2863
16460TIP3    H170795   5.879   0.624   1.534  0.1602 -0.8162 -0.2040
16460TIP3    H270796   5.855   0.660   1.679  0.5150  0.9110 -0.5500
16461TIP3   OH270797   2.480   1.842  12.812 -0.3528 -0.1272 -0.5950
16461TIP3    H170798   2.424   1.765  12.818 -0.3588 -0.1381 -0.8175
16461TIP3    H270799   2.472   1.884  12.898 -0.1409 -0.5154 -0.3849
16462TIP3   OH270800   4.120   2.974  12.329 -0.1261  0.7376  0.1932
16462TIP3    H170801   4.166   3.011  12.404 -1.7808  0.5115  1.3637
16462TIP3    H270802   4.148   3.028  12.255  3.3624 -0.4691  0.4320
16463TIP3   OH270803   4.804   0.674  16.757 -0.6856 -0.4880 -0.4005
16463TIP3    H170804   4.816   0.580  16.775 -0.3398 -0.8606 -2.3446
16463TIP3    H270805   4.714   0.692  16.786 -0.1699 -0.9400  1.6821
16464TIP3   OH270806   1.773   1.163  11.658  0.0194 -0.5334  0.2158
16464TIP3    H170807   1.741   1.227  11.721  1.3859  0.2386  0.1669
16464TIP3    H270808   1.855   1.130  11.696  1.2660  0.4963 -1.4465
16465TIP3   OH270809   3.354   3.092  11.390 -0.2837  0.1378  0.0416
16465TIP3    H170810   3.326   3.030  11.457  0.5095 -1.0956 -0.7243
16465TIP3    H270811   3.315   3.175  11.417 -1.0437 -0.5901  1.3211
16466TIP3   OH270812   0.337   1.888  11.961  0.2748  0.5760 -0.3975
16466TIP3    H170813   0.428   1.883  11.992 -0.1425  1.9918  1.2503
16466TIP3    H270814   0.315   1.799  11.935  1.2871 -0.4072  1.8237
16467TIP3   OH270815   1.067   1.268  12.714 -0.0679 -0.2307 -0.2775
16467TIP3    H170816   1.074   1.282  12.619  1.7717 -1.2581 -0.3283
16467TIP3    H270817   1.106   1.346  12.752 -0.1647 -0.1347 -0.3734
16468TIP3   OH270818   4.391   5.813   5.739  0.4425 -0.2438 -0.3052
16468TIP3    H170819   4.432   5.799   5.825 -0.9914 -0.9270  0.3101
16468TIP3    H270820   4.449   5.770   5.677 -0.1284 -2.6316  0.7143
16469TIP3   OH270821   4.174   3.609   3.432 -0.1585  0.0664  0.2229
16469TIP3    H170822   4.248   3.669   3.429  0.0632 -0.2323 -1.2109
16469TIP3    H270823   4.098   3.666   3.445  0.2335  0.4572  0.8433
16470TIP3   OH270824   5.078   0.373   1.609 -0.0111  0.5270 -0.1635
16470TIP3    H170825   5.108   0.438   1.672 -0.2279 -0.3246  0.8446
16470TIP3    H270826   5.115   0.290   1.640  1.9106  0.3871 -2.4979
16471TIP3   OH270827   6.093   5.582   2.711  0.8190 -0.1953 -0.1344
16471TIP3    H170828   6.130   5.671   2.712  1.0536 -0.2904 -0.3703
16471TIP3    H270829   6.169   5.524   2.712  0.6677 -0.4318  2.1702
16472TIP3   OH270830   5.293   5.630   6.153 -0.1568  0.1767  0.0037
16472TIP3    H170831   5.374   5.613   6.201 -0.2390  0.1523  0.1336
16472TIP3    H270832   5.239   5.552   6.170 -0.6132  0.6507  0.7569
16473TIP3   OH270833   0.863   3.006  11.909 -0.0827  0.0905 -0.2328
16473TIP3    H170834   0.913   2.965  11.979  0.8589  0.3527 -0.7413
16473TIP3    H270835   0.911   3.086  11.887 -0.0552 -0.2494 -1.5336
16474TIP3   OH270836   2.024   6.639  14.504 -0.5606 -0.1127  0.6226
16474TIP3    H170837   2.041   6.702  14.574  1.3142 -1.1953  1.2199
16474TIP3    H270838   1.970   6.572  14.545  1.4539 -1.3251  1.4556
16475TIP3   OH270839   5.429   1.607   1.433  0.2969 -0.3357  0.0833
16475TIP3    H170840   5.484   1.680   1.405  0.2770 -0.7794 -1.1423
16475TIP3    H270841   5.470   1.530   1.396 -0.1218 -0.8789  0.7197
16476TIP3   OH270842   1.045   0.064   3.080  0.6200 -0.1457  0.0216
16476TIP3    H170843   1.062   0.068   3.174  0.3753 -1.0098  0.1162
16476TIP3    H270844   0.973   0.001   3.072  0.5478  0.0237 -0.7329
16477TIP3   OH270845   0.629   5.336   4.877 -0.2180  0.3637  0.3115
16477TIP3    H170846   0.590   5.333   4.964 -0.1905 -1.4896  0.3019
16477TIP3    H270847   0.711   5.286   4.886 -0.4345 -0.2386 -0.8702
16478TIP3   OH270848   1.227   5.022   2.453  0.0855  0.1466  0.4914
16478TIP3    H170849   1.273   5.020   2.537  1.0431 -1.7544 -0.0229
16478TIP3    H270850   1.186   5.109   2.450  2.7704  1.5410  1.4303
16479TIP3   OH270851   2.324   5.009  17.208 -0.3024 -0.4607 -0.2735
16479TIP3    H170852   2.269   4.983  17.134  0.6082 -1.6529 -0.5501
16479TIP3    H270853   2.371   5.086  17.178  0.4940 -1.2750 -1.1710
16480TIP3   OH270854   0.558   5.716  15.043  0.4462  0.1800  0.6173
16480TIP3    H170855   0.614   5.643  15.014  1.3184 -0.0154  2.6212
16480TIP3    H270856   0.617   5.790  15.051  0.0200  0.4976  0.8546
16481TIP3   OH270857   6.159   3.088  12.179 -0.0467  0.1558  0.0910
16481TIP3    H170858   6.240   3.138  12.169 -0.8504  1.3773 -0.5797
16481TIP3    H270859   6.159   3.028  12.105 -1.0415  2.0854 -1.5776
16482TIP3   OH270860   2.397   1.216   6.331 -0.0089  0.3030  0.3887
16482TIP3    H170861   2.404   1.184   6.421  1.6822 -0.3815  0.0457
16482TIP3    H270862   2.383   1.310   6.340 -1.2871  0.0439  1.3683
16483TIP3   OH270863   3.428   5.733   3.775 -0.0620  0.0005 -0.3128
16483TIP3    H170864   3.490   5.798   3.744  1.8044 -1.1898  0.6997
16483TIP3    H270865   3.479   5.678   3.834 -2.1254 -1.0186  0.6223
16484TIP3   OH270866   3.014   5.531   4.930 -0.1989 -0.8324  0.3024
16484TIP3    H170867   2.919   5.543   4.927 -0.0686  0.5104  0.6732
16484TIP3    H270868   3.029   5.445   4.892 -1.5488 -0.9774  0.0524
16485TIP3   OH270869   5.547   3.042   5.224  0.3636 -0.3747 -0.2649
16485TIP3    H170870   5.535   2.979   5.295 -0.0153  1.2442  1.1491
16485TIP3    H270871   5.639   3.068   5.229  0.0064  0.7688  0.5344
16486TIP3   OH270872   2.056   4.115   1.603  0.0697 -0.3963  0.1697
16486TIP3    H170873   2.105   4.106   1.685  0.5988  0.7160 -0.0127
16486TIP3    H270874   2.087   4.043   1.548 -0.4842 -1.3197  1.0220
16487TIP3   OH270875   5.765   3.590  17.032  0.5311  0.2390  0.1569
16487TIP3    H170876   5.785   3.497  17.046  0.2924 -0.1112 -1.6517
16487TIP3    H270877   5.685   3.589  16.980  0.3127  1.4868  0.4465
16488TIP3   OH270878   2.779   6.140   1.462  0.6910 -0.6425 -0.0081
16488TIP3    H170879   2.712   6.207   1.448  0.6404 -0.3854  1.3204
16488TIP3    H270880   2.823   6.132   1.377  0.3957  0.7400 -0.3187
16489TIP3   OH270881   6.286   0.040   2.309 -0.7940  0.0384 -0.0353
16489TIP3    H170882   6.245   0.067   2.391 -1.5099 -1.3059  0.0875
16489TIP3    H270883   6.274   0.114   2.250 -1.0662  0.6728  0.7928
16490TIP3   OH270884   1.618   0.894   1.565 -0.1346  0.1619 -0.3856
16490TIP3    H170885   1.576   0.923   1.647 -1.7154 -1.2753 -0.6396
16490TIP3    H270886   1.545   0.880   1.505  0.7875 -1.4120 -1.1899
16491TIP3   OH270887   5.899   3.217   0.229 -0.2583 -0.1048  0.8224
16491TIP3    H170888   5.954   3.295   0.227 -1.7666  0.9855  0.4609
16491TIP3    H270889   5.839   3.231   0.301 -1.7103 -0.0749 -0.3370
16492TIP3   OH270890   6.018   4.614   3.131  0.2702  0.4195 -0.1954
16492TIP3    H170891   5.956   4.563   3.080  1.1455 -1.4730  0.5357
16492TIP3    H270892   6.104   4.578   3.108  0.9483  1.7406  0.1784
16493TIP3   OH270893   2.378   6.483  11.578 -0.0047 -0.1989 -0.0149
16493TIP3    H170894   2.306   6.529  11.536  1.6629  1.3123 -1.3853
16493TIP3    H270895   2.448   6.549  11.586  1.2639 -1.5915  1.2068
16494TIP3   OH270896   6.556   0.251   0.408  0.1543 -0.0708 -0.3488
16494TIP3    H170897   6.531   0.269   0.317  1.6729 -0.3917 -0.8471
16494TIP3    H270898   6.529   0.330   0.456 -0.8416  0.0201 -1.0276
16495TIP3   OH270899   0.872   3.050  13.030  0.4063 -0.3149 -0.4069
16495TIP3    H170900   0.856   3.144  13.040  0.7597 -0.4493  2.1312
16495TIP3    H270901   0.965   3.045  13.006  0.1861 -0.0143 -1.3696
16496TIP3   OH270902   1.352   3.362   0.921  0.1412  0.0393 -0.3811
16496TIP3    H170903   1.376   3.446   0.882 -0.6600  0.5556  0.2183
16496TIP3    H270904   1.428   3.338   0.974  1.0636 -0.4536 -1.8653
16497TIP3   OH270905   3.657   5.568  14.715  0.6094 -0.7715 -0.0100
16497TIP3    H170906   3.635   5.572  14.622  1.5970  0.4487 -0.2202
16497TIP3    H270907   3.575   5.587  14.761  0.4581  0.2640 -0.6800
16498TIP3   OH270908   2.942   3.564  13.179 -0.0321 -0.2021  0.5759
16498TIP3    H170909   2.990   3.486  13.207  0.4966  0.2756  1.0400
16498TIP3    H270910   2.932   3.554  13.085  0.3942 -0.6289  0.5722
16499TIP3   OH270911   3.952   1.592   4.035  0.2000 -0.7176 -0.0867
16499TIP3    H170912   3.966   1.498   4.048 -0.6355 -0.8717 -0.2479
16499TIP3    H270913   4.021   1.618   3.974  0.6524 -1.1500  0.2306
16500TIP3   OH270914   1.594   1.756  12.996  0.1522 -0.2841 -0.1336
16500TIP3    H170915   1.600   1.797  12.909  1.0081  1.0502  0.5133
16500TIP3    H270916   1.685   1.739  13.021 -0.0812 -0.5866  0.5317
16501TIP3   OH270917   0.720   4.347  15.657  0.1089  0.9972 -0.3316
16501TIP3    H170918   0.626   4.351  15.677  0.1284  0.1397 -0.0133
16501TIP3    H270919   0.737   4.424  15.603 -0.7675  1.1859 -0.3467
16502TIP3   OH270920   4.340   4.014   5.548 -0.0830  0.2541  0.2668
16502TIP3    H170921   4.400   4.088   5.531  0.4934 -0.0609  0.8686
16502TIP3    H270922   4.320   3.979   5.462  0.2904  0.6111  0.0296
16503TIP3   OH270923   4.389   5.129   1.932  0.1070  0.3423  0.5489
16503TIP3    H170924   4.485   5.135   1.932  0.4005 -2.4621 -0.6711
16503TIP3    H270925   4.368   5.089   2.016  0.0806  0.2839  0.5146
16504TIP3   OH270926   5.382   1.214  10.959  0.5160  0.1333  0.2420
16504TIP3    H170927   5.390   1.241  10.867 -1.3778 -0.1456 -0.0566
16504TIP3    H270928   5.417   1.125  10.960  0.3012  0.0362 -0.2836
16505TIP3   OH270929   3.561   1.400  15.302 -0.1108 -0.2263  0.2301
16505TIP3    H170930   3.632   1.337  15.311  0.1377 -0.6777 -3.4768
16505TIP3    H270931   3.601   1.484  15.326  0.9210 -0.8112  0.6510
16506TIP3   OH270932   3.629   6.208   4.602  0.8870 -0.2129  0.1021
16506TIP3    H170933   3.685   6.279   4.634 -1.1412 -0.1784  4.3209
16506TIP3    H270934   3.540   6.240   4.613 -0.1399 -1.5739 -2.9788
16507TIP3   OH270935   0.637   6.526  11.299  0.4377 -0.1931 -0.0783
16507TIP3    H170936   0.704   6.586  11.332  0.8022  0.1948 -1.4934
16507TIP3    H270937   0.606   6.566  11.219 -0.5270 -1.0661 -0.1572
16508TIP3   OH270938   3.396   1.737   2.672  0.2802  0.0665 -0.6339
16508TIP3    H170939   3.478   1.693   2.693  1.5758  1.6600 -2.0213
16508TIP3    H270940   3.385   1.801   2.742  1.2910  1.1551 -1.4295
16509TIP3   OH270941   5.080   2.967   0.242  0.4852  0.5761  0.7114
16509TIP3    H170942   5.078   2.881   0.285 -1.3138  0.4294  0.4359
16509TIP3    H270943   5.011   3.017   0.286 -2.5910 -0.0868 -2.8338
16510TIP3   OH270944   4.692   4.247  16.280  0.6907 -0.5569  0.2334
16510TIP3    H170945   4.746   4.306  16.228 -0.5526  0.5408  0.1108
16510TIP3    H270946   4.707   4.273  16.371  1.0109 -0.8373  0.2637
16511TIP3   OH270947   3.751   1.262   6.742 -0.2747  0.7314 -0.5868
16511TIP3    H170948   3.696   1.205   6.796 -1.7298  0.2154 -2.5095
16511TIP3    H270949   3.840   1.245   6.772 -0.9270 -0.4426  0.7947
16512TIP3   OH270950   4.532   6.420  15.104 -0.4295 -0.1021  0.3965
16512TIP3    H170951   4.622   6.390  15.100  0.0448  1.2750 -0.0411
16512TIP3    H270952   4.500   6.414  15.013  0.3677  2.5484 -0.1585
16513TIP3   OH270953   0.245   1.734   1.638  0.8153 -0.2320 -0.1576
16513TIP3    H170954   0.341   1.734   1.636  0.8113 -0.3660 -0.5849
16513TIP3    H270955   0.220   1.745   1.546  0.4193 -0.3584 -0.0653
16514TIP3   OH270956   4.824   4.383  16.519  0.1165 -0.4424 -0.0168
16514TIP3    H170957   4.753   4.395  16.581 -1.5823  1.1054 -2.1288
16514TIP3    H270958   4.851   4.471  16.495  1.3637 -1.0006 -0.7947
16515TIP3   OH270959   4.950   2.608  12.252  0.5437 -0.1249  0.3600
16515TIP3    H170960   4.886   2.679  12.243  1.5255  0.8041  0.3975
16515TIP3    H270961   5.006   2.617  12.174  0.5389 -1.0108  0.2514
16516TIP3   OH270962   0.558   4.456  13.421  0.4090 -0.0780 -0.1486
16516TIP3    H170963   0.491   4.494  13.365  0.1974 -0.2685 -0.0257
16516TIP3    H270964   0.640   4.494  13.389  0.3755 -0.7279 -1.0550
16517TIP3   OH270965   2.870   3.181   3.031 -0.0575  0.1498  0.0549
16517TIP3    H170966   2.831   3.215   2.951 -1.3008 -0.5066  0.3606
16517TIP3    H270967   2.959   3.216   3.031 -0.2749  0.7540 -1.2356
16518TIP3   OH270968   1.611   3.236  13.588  0.2260  0.5612 -0.3523
16518TIP3    H170969   1.543   3.301  13.608 -1.8833 -1.4953 -0.4086
16518TIP3    H270970   1.589   3.161  13.643  2.8295 -0.0258  0.0105
16519TIP3   OH270971   2.072   2.489   5.935  0.1605 -0.1046  0.0048
16519TIP3    H170972   2.100   2.562   5.991  0.7916 -0.0826 -0.3291
16519TIP3    H270973   2.068   2.527   5.847 -0.9570 -0.1042  0.0405
16520TIP3   OH270974   3.322   2.893  14.100  0.4567  0.3504  0.1075
16520TIP3    H170975   3.240   2.844  14.105  1.1748 -0.8362  3.2661
16520TIP3    H270976   3.386   2.830  14.066  0.9812 -0.4254  2.3473
16521TIP3   OH270977   4.828   1.173  16.731  0.2119 -0.3042 -0.6613
16521TIP3    H170978   4.809   1.174  16.637 -1.7079 -2.9564 -0.4084
16521TIP3    H270979   4.831   1.266  16.756  3.2983  0.6520 -3.6917
16522TIP3   OH270980   6.358   4.887  17.134  0.2652  0.7073 -0.1038
16522TIP3    H170981   6.295   4.957  17.148 -0.2790 -0.0249  1.2059
16522TIP3    H270982   6.443   4.926  17.156 -0.0121  1.0187  0.4248
16523TIP3   OH270983   3.931   2.692  16.164  0.0809  0.5769  0.0315
16523TIP3    H170984   4.021   2.664  16.182 -0.6157 -2.2868 -0.3006
16523TIP3    H270985   3.905   2.743  16.241  1.2129 -0.6594  1.2934
16524TIP3   OH270986   0.915   0.114  15.272  0.3509  0.3124  0.4296
16524TIP3    H170987   0.884   0.204  15.283  1.8411  1.0019 -0.6776
16524TIP3    H270988   0.849   0.073  15.216  0.7875  1.4355 -0.9905
16525TIP3   OH270989   6.685   2.620   3.038  0.1870  0.2356 -0.1876
16525TIP3    H170990   6.765   2.639   3.086 -0.3089 -0.1840  0.8342
16525TIP3    H270991   6.632   2.699   3.047  1.0754  1.1479 -2.2076
16526TIP3   OH270992   1.963   4.171  11.934  0.1482 -0.2920  0.5714
16526TIP3    H170993   1.876   4.201  11.959  0.1653 -0.5616  0.9720
16526TIP3    H270994   2.003   4.245  11.889  0.2821  0.3741  1.7404
16527TIP3   OH270995   1.421   1.885   1.237 -0.0186  0.1521  0.5112
16527TIP3    H170996   1.430   1.864   1.144  0.7393  1.2956  0.3059
16527TIP3    H270997   1.353   1.952   1.240  1.0342  1.2497  0.5862
16528TIP3   OH270998   4.353   5.145   1.226  0.3507 -0.2069 -0.1987
16528TIP3    H170999   4.426   5.109   1.175  2.1289  1.4502  0.9943
16528TIP3    H271000   4.387   5.151   1.315 -0.9156  1.4950  0.2197
16529TIP3   OH271001   1.805   6.395  12.748 -0.0184  0.6939  0.4133
16529TIP3    H171002   1.774   6.455  12.680  1.6869 -1.5575 -2.5976
16529TIP3    H271003   1.728   6.343  12.770 -0.0906 -0.2351 -1.8048
16530TIP3   OH271004   4.943   2.229   0.453  0.6443 -0.0616 -0.5925
16530TIP3    H171005   4.898   2.201   0.532  0.4523 -1.2763 -1.1044
16530TIP3    H271006   5.034   2.203   0.466  0.5480 -0.5636 -0.8993
16531TIP3   OH271007   6.064   6.104   3.546  0.7812 -0.5181  0.9594
16531TIP3    H171008   6.089   6.185   3.501  0.8074  0.1512  2.1365
16531TIP3    H271009   5.982   6.078   3.503  2.2915 -1.5688 -1.4860
16532TIP3   OH271010   5.896   3.196  14.314 -0.2759 -0.1126 -0.0744
16532TIP3    H171011   5.967   3.229  14.370 -0.7711 -0.2106  0.6110
16532TIP3    H271012   5.837   3.270  14.305  0.0410  0.0544 -0.8787
16533TIP3   OH271013   4.463   0.935  12.189  0.1391  0.0852  0.0446
16533TIP3    H171014   4.384   0.954  12.239 -1.2713  1.8039 -2.5619
16533TIP3    H271015   4.435   0.870  12.125  1.0786  0.0611 -0.3515
16534TIP3   OH271016   1.237   0.957  14.418  0.3232  0.4332  0.5472
16534TIP3    H171017   1.157   0.972  14.469  0.9427 -1.2685  2.1071
16534TIP3    H271018   1.220   1.001  14.335 -1.9680  0.6962  1.0757
16535TIP3   OH271019   1.654   0.862   4.295  0.0092 -0.1249  0.1391
16535TIP3    H171020   1.649   0.910   4.212 -1.8531 -1.3102 -0.5043
16535TIP3    H271021   1.742   0.826   4.296 -0.3973 -1.4051 -2.1644
16536TIP3   OH271022   2.743   4.079   3.441 -0.3178 -0.3021  0.6769
16536TIP3    H171023   2.730   4.055   3.532 -1.8702  0.6897  0.7566
16536TIP3    H271024   2.682   4.023   3.392 -0.5364  0.1732  0.3985
16537TIP3   OH271025   4.531   4.607  13.508 -0.1036  0.2063  0.6299
16537TIP3    H171026   4.568   4.561  13.583 -0.7342 -0.2029  0.7007
16537TIP3    H271027   4.464   4.548  13.474  1.7121 -0.6526 -1.6867
16538TIP3   OH271028   5.082   5.611  14.580 -0.5202 -0.1570  0.3331
16538TIP3    H171029   5.130   5.529  14.594 -1.0714 -0.6853 -0.6627
16538TIP3    H271030   5.122   5.674  14.639  2.3674 -0.1587 -1.4424
16539TIP3   OH271031   6.472   4.995  12.167 -0.1406  0.3283  0.1180
16539TIP3    H171032   6.424   4.953  12.095  0.7947  0.2411 -0.4760
16539TIP3    H271033   6.459   5.089  12.153  0.7468  0.3460 -0.6935
16540TIP3   OH271034   5.579   0.837  14.944 -0.0407 -0.1908 -0.5092
16540TIP3    H171035   5.668   0.870  14.958 -0.2907 -0.1308  1.1418
16540TIP3    H271036   5.578   0.752  14.988 -0.1130 -1.3729 -2.6627
16541TIP3   OH271037   5.539   5.580  16.735 -0.1060 -0.0376  0.1421
16541TIP3    H171038   5.613   5.520  16.740 -0.3937 -0.3433  1.1371
16541TIP3    H271039   5.502   5.579  16.824  0.1316  1.9241  0.3077
16542TIP3   OH271040   1.997   1.431  14.239  1.0847 -0.7430  0.2023
16542TIP3    H171041   2.012   1.337  14.249  0.1690 -0.8846  0.3685
16542TIP3    H271042   2.063   1.472  14.295  1.2512 -1.2982  0.4199
16543TIP3   OH271043   0.122   6.383  16.793 -0.6920 -0.0816  0.3927
16543TIP3    H171044   0.129   6.290  16.772 -2.2703 -0.0224 -0.6524
16543TIP3    H271045   0.175   6.427  16.726  0.6575 -0.2424  1.3326
16544TIP3   OH271046   5.228   2.275   1.111 -0.1906 -0.4654 -0.1926
16544TIP3    H171047   5.320   2.248   1.119 -0.0711  0.1562  0.5935
16544TIP3    H271048   5.222   2.356   1.161 -1.4426 -1.1280  0.7746
16545TIP3   OH271049   1.951   4.222   3.849  0.3195  0.4929 -0.1411
16545TIP3    H171050   1.959   4.304   3.801  0.7094 -0.2136 -1.3176
16545TIP3    H271051   1.933   4.156   3.782 -0.6354 -0.2963  0.8445
16546TIP3   OH271052   5.933   5.167   3.375 -0.4883 -0.2398  0.3917
16546TIP3    H171053   6.025   5.160   3.351 -0.6839 -1.5134 -0.0520
16546TIP3    H271054   5.888   5.185   3.293 -0.6292  0.5959  0.6396
16547TIP3   OH271055   1.791   0.768  16.556  0.0584 -0.2267 -0.6992
16547TIP3    H171056   1.811   0.812  16.474 -3.2276 -2.6779 -3.0896
16547TIP3    H271057   1.854   0.696  16.561  0.8311  0.4471 -0.5448
16548TIP3   OH271058   5.902   4.748  11.115 -0.2559 -0.6197  0.6001
16548TIP3    H171059   5.978   4.700  11.149  2.0595  1.3901 -1.2911
16548TIP3    H271060   5.849   4.682  11.072  2.2867 -1.7417 -1.0574
16549TIP3   OH271061   0.966   5.018  12.164 -0.4435  0.6118  0.9108
16549TIP3    H171062   0.975   5.097  12.111  1.4361  0.4918  0.9927
16549TIP3    H271063   0.931   4.952  12.103  1.1321  0.6363 -0.0838
16550TIP3   OH271064   2.784   0.277   4.450 -0.2020 -0.3823  0.2385
16550TIP3    H171065   2.724   0.203   4.440 -0.0123 -0.6238  0.8397
16550TIP3    H271066   2.863   0.239   4.488  0.6613 -0.2183 -1.2987
16551TIP3   OH271067   6.209   5.130  14.590 -0.3923 -0.2650  0.1464
16551TIP3    H171068   6.205   5.225  14.580 -2.4959  0.0497  2.8586
16551TIP3    H271069   6.277   5.116  14.657 -1.1682 -0.4995  0.9055
16552TIP3   OH271070   4.372   2.219  15.388 -0.2526 -0.2190  0.0168
16552TIP3    H171071   4.357   2.266  15.470  0.7997 -0.1444  0.1862
16552TIP3    H271072   4.287   2.180  15.366 -0.5402 -0.2679  1.1531
16553TIP3   OH271073   0.904   0.941   0.424 -0.0003 -0.1211  0.0473
16553TIP3    H171074   0.814   0.973   0.418  0.2897  0.7929  0.5220
16553TIP3    H271075   0.905   0.889   0.505 -0.5997 -1.8391 -0.9742
16554TIP3   OH271076   3.208   6.322   4.429 -0.3420 -0.1511  0.1792
16554TIP3    H171077   3.123   6.283   4.450 -0.3657  0.5291  1.4582
16554TIP3    H271078   3.250   6.336   4.514  0.2859  1.1900 -0.3200
16555TIP3   OH271079   5.615   2.301   4.673 -0.1483 -0.3739  0.7527
16555TIP3    H171080   5.583   2.260   4.754  0.5337  1.0925  1.8012
16555TIP3    H271081   5.584   2.391   4.678 -0.6734 -0.4334 -0.9832
16556TIP3   OH271082   0.623   6.500  15.198  0.3344 -0.3631  0.0930
16556TIP3    H171083   0.683   6.437  15.157 -0.2049 -0.3065 -0.8155
16556TIP3    H271084   0.549   6.447  15.228  0.8077 -0.4272  1.1711
16557TIP3   OH271085   6.309   2.172   3.569 -0.6137 -0.2366  0.0699
16557TIP3    H171086   6.321   2.091   3.519 -0.5321 -0.3160  0.2182
16557TIP3    H271087   6.336   2.241   3.508  0.1011 -0.3735  0.2152
16558TIP3   OH271088   4.357   1.581   6.179 -0.6147 -0.3453 -0.1770
16558TIP3    H171089   4.430   1.638   6.154 -1.7069  0.9610 -0.4838
16558TIP3    H271090   4.390   1.492   6.164  1.2469  0.1660  0.6399
16559TIP3   OH271091   3.648   4.411   3.905 -0.2285  0.2452 -0.3500
16559TIP3    H171092   3.668   4.469   3.832  1.1827  0.8816  0.4991
16559TIP3    H271093   3.723   4.351   3.909 -1.4769 -1.4116 -0.9661
16560TIP3   OH271094   0.125   0.108   2.084 -0.1700 -0.1342 -0.3790
16560TIP3    H171095   0.071   0.137   2.158  0.9708 -1.4941  1.0709
16560TIP3    H271096   0.164   0.189   2.051 -2.3721  0.7906 -0.9567
16561TIP3   OH271097   3.254   0.562   4.698 -0.2561  0.1072  0.1482
16561TIP3    H171098   3.245   0.472   4.727  1.5869 -0.9030 -2.1235
16561TIP3    H271099   3.200   0.567   4.619  0.6834  0.6075 -0.4757
16562TIP3   OH271100   2.275   4.438   4.566 -0.3566  0.1618  0.4688
16562TIP3    H171101   2.269   4.533   4.560 -1.2001  0.0268 -2.5602
16562TIP3    H271102   2.193   4.412   4.608 -1.1425  0.6833 -0.7039
16563TIP3   OH271103   4.708   5.250  16.526  0.1896 -0.1031  0.2006
16563TIP3    H171104   4.673   5.190  16.591 -0.1812  0.8515  0.9032
16563TIP3    H271105   4.754   5.317  16.577  0.2768  0.4197 -0.5398
16564TIP3   OH271106   3.858   3.606  12.540  0.3406  0.0108  0.4107
16564TIP3    H171107   3.818   3.581  12.623 -0.1046 -1.8806 -0.3083
16564TIP3    H271108   3.818   3.547  12.475  1.4930  0.6562 -0.9493
16565TIP3   OH271109   4.952   1.364   0.116 -0.2360 -0.4133 -0.4912
16565TIP3    H171110   4.979   1.353   0.207 -0.0282  1.0979 -0.3328
16565TIP3    H271111   4.889   1.294   0.100  1.4133 -2.0986  0.1043
16566TIP3   OH271112   2.291   1.880   3.263  0.4828 -0.6953 -0.3520
16566TIP3    H171113   2.272   1.788   3.246  0.9313 -0.9152  0.2902
16566TIP3    H271114   2.361   1.878   3.329 -0.7177  0.0846  0.9984
16567TIP3   OH271115   0.772   1.185   0.960 -0.2442 -0.4069 -0.1201
16567TIP3    H171116   0.804   1.118   1.021  1.3514  1.5434  1.3268
16567TIP3    H271117   0.698   1.225   1.005  0.0328  0.0733 -0.0808
16568TIP3   OH271118   1.727   2.602   5.723 -0.0203 -0.3100 -0.3992
16568TIP3    H171119   1.681   2.624   5.804 -0.5465 -0.7956 -0.5548
16568TIP3    H271120   1.738   2.685   5.678  1.7417  0.2204  0.9047
16569TIP3   OH271121   4.159   0.789  11.585  0.0640  0.0024 -0.1828
16569TIP3    H171122   4.164   0.846  11.661  2.1129 -0.1896 -0.1041
16569TIP3    H271123   4.184   0.703  11.618  1.6407  0.0428 -1.1245
16570TIP3   OH271124   0.473   3.819   1.677  0.7734 -0.4652  0.0909
16570TIP3    H171125   0.418   3.808   1.600  0.8901  1.9472 -0.3896
16570TIP3    H271126   0.416   3.859   1.742  1.5898  0.9021  0.0072
16571TIP3   OH271127   1.411   4.259  16.553  0.0641 -0.0028  0.2873
16571TIP3    H171128   1.330   4.215  16.580  0.2624  0.2108  1.2459
16571TIP3    H271129   1.418   4.239  16.460 -1.3613  0.3865  0.0677
16572TIP3   OH271130   4.153   2.378  16.647  0.3742  0.5226 -0.5075
16572TIP3    H171131   4.079   2.363  16.588  0.6526 -0.1892 -0.6818
16572TIP3    H271132   4.114   2.422  16.723 -0.2958 -0.1713 -0.4325
16573TIP3   OH271133   4.949   4.814   3.948 -0.0278 -0.5724  0.0486
16573TIP3    H171134   5.019   4.871   3.918 -0.1467 -0.1051  0.6413
16573TIP3    H271135   4.884   4.873   3.985 -0.1016 -1.0955  0.7753
16574TIP3   OH271136   1.975   6.138  11.978 -0.2333  0.2698  0.6217
16574TIP3    H171137   1.919   6.117  12.052 -1.3209 -1.1419 -0.5277
16574TIP3    H271138   1.926   6.107  11.901 -0.2981  3.8571 -0.9792
16575TIP3   OH271139   3.164   1.820   5.004 -0.1811 -0.0045 -0.0223
16575TIP3    H171140   3.235   1.761   5.032 -0.0767 -0.8706 -1.9627
16575TIP3    H271141   3.090   1.761   4.989  0.0334  0.2423 -2.3712
16576TIP3   OH271142   1.835   4.337  11.304 -0.0092 -0.2542  0.3639
16576TIP3    H171143   1.829   4.274  11.233  1.1824 -0.7088  0.6312
16576TIP3    H271144   1.904   4.302  11.361  1.1134  1.5625  0.2145
16577TIP3   OH271145   3.494   2.361  14.181 -0.2459  0.8457  0.0614
16577TIP3    H171146   3.417   2.363  14.237  0.4683 -0.7522  1.1648
16577TIP3    H271147   3.517   2.268  14.175  0.3724  1.0827 -1.9693
16578TIP3   OH271148   1.378   5.028  14.748 -0.2905  0.1925  0.1309
16578TIP3    H171149   1.375   5.117  14.711 -1.6732  1.3007  2.6405
16578TIP3    H271150   1.289   5.011  14.777  0.2178 -1.5571  0.8019
16579TIP3   OH271151   3.424   4.115   2.561 -0.4259 -0.3239 -0.8631
16579TIP3    H171152   3.360   4.157   2.504 -0.7262  0.3052 -0.0884
16579TIP3    H271153   3.377   4.041   2.599  0.3803 -2.0021 -2.9391
16580TIP3   OH271154   5.273   1.453  15.461 -0.2681  0.6210  0.3429
16580TIP3    H171155   5.193   1.504  15.454  1.3672  3.1898 -0.7974
16580TIP3    H271156   5.280   1.433  15.554 -3.2669 -1.6209  0.2512
16581TIP3   OH271157   5.147   4.219   5.874  0.4022  0.2581 -0.3350
16581TIP3    H171158   5.143   4.211   5.969 -1.4943  0.7337 -0.3407
16581TIP3    H271159   5.194   4.301   5.859 -0.8627  1.1254  0.2686
16582TIP3   OH271160   1.198   3.519  14.741 -0.4079 -0.6743 -0.7439
16582TIP3    H171161   1.284   3.493  14.708 -0.0087 -0.7407  0.3022
16582TIP3    H271162   1.145   3.440  14.734  0.6390 -1.7381  1.8961
16583TIP3   OH271163   1.700   4.017   1.644  0.0923  0.3471 -0.0864
16583TIP3    H171164   1.759   3.941   1.652 -1.3591 -0.6656  1.5868
16583TIP3    H271165   1.613   3.981   1.658 -0.5719  2.4986  1.9633
16584TIP3   OH271166   4.947   6.308   1.542 -0.6079 -0.3764 -0.9126
16584TIP3    H171167   5.040   6.289   1.544 -0.7443 -1.5624 -2.9131
16584TIP3    H271168   4.938   6.376   1.475 -1.0753  0.6508  0.1529
16585TIP3   OH271169   3.207   5.120  15.425 -0.3625  0.0148  0.4141
16585TIP3    H171170   3.288   5.133  15.375  0.3717  0.7207  1.7503
16585TIP3    H271171   3.162   5.204  15.420 -0.2547  0.1089  0.9796
16586TIP3   OH271172   2.773   0.845   6.101 -0.1712  0.2047  0.3067
16586TIP3    H171173   2.856   0.800   6.085 -0.4099  0.3829 -1.7281
16586TIP3    H271174   2.794   0.915   6.162  0.7374 -0.9922  1.4211
16587TIP3   OH271175   2.787   0.064   5.154  1.1684 -0.6589  0.2858
16587TIP3    H171176   2.815   0.115   5.078 -1.7650  1.1610  0.2766
16587TIP3    H271177   2.835   0.103   5.228  0.2282  1.0802  0.0300
16588TIP3   OH271178   6.781   1.953  12.420  0.3478 -0.2891  0.2504
16588TIP3    H171179   6.745   1.873  12.459 -0.2671  0.5679  1.5056
16588TIP3    H271180   6.705   2.007  12.402  0.7340 -0.1455 -0.9979
16589TIP3   OH271181   4.870   3.094   0.383 -0.6324 -0.2761 -0.1976
16589TIP3    H171182   4.863   3.103   0.478  2.7317 -0.8623  0.2398
16589TIP3    H271183   4.780   3.099   0.351 -1.6568  3.4774  2.6363
16590TIP3   OH271184   2.802   3.284   3.430  0.1919  0.0375 -0.3190
16590TIP3    H171185   2.795   3.351   3.361  0.3554 -0.2271 -0.5967
16590TIP3    H271186   2.826   3.204   3.383  1.1782  0.0461  0.1457
16591TIP3   OH271187   0.375   2.091   3.802 -0.3613  0.2458  0.1209
16591TIP3    H171188   0.386   2.014   3.747  0.1833  0.2005  0.2914
16591TIP3    H271189   0.463   2.126   3.812 -0.6277  1.0236 -0.1430
16592TIP3   OH271190   5.302   3.695  16.716  0.2267  0.0736 -0.2677
16592TIP3    H171191   5.331   3.614  16.757 -1.3984 -1.0730 -1.2720
16592TIP3    H271192   5.324   3.684  16.623  0.2080  0.8962 -0.3797
16593TIP3   OH271193   1.012   1.213  10.615 -0.1382  0.6738 -0.1901
16593TIP3    H171194   0.921   1.235  10.592 -0.0006  0.0394 -1.4499
16593TIP3    H271195   1.055   1.297  10.628 -0.5607  1.0382 -1.0539
16594TIP3   OH271196   2.326   5.350  13.708 -0.0057 -0.6858 -0.0143
16594TIP3    H171197   2.371   5.405  13.643 -0.8543  0.2051  0.1246
16594TIP3    H271198   2.288   5.279  13.657 -1.0537  0.2534 -0.5835
16595TIP3   OH271199   3.427   4.514  13.348 -0.7418 -0.1330 -0.1766
16595TIP3    H171200   3.368   4.489  13.419 -0.5799 -0.6017 -0.1980
16595TIP3    H271201   3.514   4.506  13.386 -0.7167  2.1628  0.3562
16596TIP3   OH271202   0.725   2.915   1.940  0.3470  0.2293  0.2482
16596TIP3    H171203   0.780   2.906   1.862  0.6345  1.7190  0.2438
16596TIP3    H271204   0.671   2.992   1.922  0.4391  0.6029  1.5388
16597TIP3   OH271205   0.501   5.487  11.842 -0.0973  0.0716 -0.9173
16597TIP3    H171206   0.548   5.409  11.812 -0.3076  0.1095 -1.3579
16597TIP3    H271207   0.518   5.491  11.936  0.4436 -0.1416 -1.0025
16598TIP3   OH271208   4.543   0.582  14.395  0.0387  0.7025 -0.0058
16598TIP3    H171209   4.505   0.666  14.418 -0.6550  0.3864  0.0318
16598TIP3    H271210   4.472   0.519  14.407 -0.4399  0.4912 -2.9948
16599TIP3   OH271211   4.257   4.630   4.824 -0.0745  0.0163  0.1924
16599TIP3    H171212   4.255   4.540   4.857 -0.6098  0.0946  0.3921
16599TIP3    H271213   4.348   4.658   4.834 -0.2108  0.0222  1.5950
16600TIP3   OH271214   6.407   3.273   0.494 -0.3370  0.1236 -0.3072
16600TIP3    H171215   6.440   3.185   0.472 -1.8591 -0.7972  0.9395
16600TIP3    H271216   6.352   3.296   0.420  0.1850  0.1108 -0.7102
16601TIP3   OH271217   3.363   1.005   1.159  0.6509 -0.6499  0.3795
16601TIP3    H171218   3.410   1.087   1.145 -0.6290 -0.0593 -0.6138
16601TIP3    H271219   3.425   0.937   1.134  1.5827  0.0204  0.8068
16602TIP3   OH271220   2.787   2.369  15.975 -0.5171  0.0698 -0.1148
16602TIP3    H171221   2.879   2.347  15.962 -0.2140  1.5833 -0.7520
16602TIP3    H271222   2.759   2.314  16.047  1.4933  1.1101  1.5671
16603TIP3   OH271223   5.458   2.959   2.102 -0.5858  0.4108  0.3231
16603TIP3    H171224   5.540   3.003   2.125 -0.4319  0.4811 -0.3453
16603TIP3    H271225   5.475   2.919   2.017 -1.0039 -0.2213  0.5235
16604TIP3   OH271226   1.289   4.212   2.505 -0.1407 -0.8470 -0.6666
16604TIP3    H171227   1.281   4.308   2.506 -0.7359 -0.8736 -1.9673
16604TIP3    H271228   1.328   4.192   2.421 -1.0665 -1.8197 -0.8837
16605TIP3   OH271229   5.507   3.367   5.079 -0.4614 -0.1794 -0.2309
16605TIP3    H171230   5.566   3.354   5.153 -0.1976 -0.0759 -0.4191
16605TIP3    H271231   5.559   3.418   5.016 -0.3874 -1.0102 -0.8543
16606TIP3   OH271232   3.732   6.771  16.287 -0.0542 -0.5926  0.7154
16606TIP3    H171233   3.801   6.720  16.245 -0.0855  0.2230 -0.3663
16606TIP3    H271234   3.751   6.765  16.381  1.5006 -0.3511  0.4358
16607TIP3   OH271235   2.350   1.546   2.542  0.5005 -0.8837  0.1482
16607TIP3    H171236   2.264   1.549   2.583  0.5933 -1.8446  0.4332
16607TIP3    H271237   2.338   1.494   2.463  0.4402  0.5132 -0.7998
16608TIP3   OH271238   0.201   2.450  16.185 -0.4327 -0.0028 -0.3081
16608TIP3    H171239   0.176   2.365  16.148 -0.3655  0.4897 -1.5371
16608TIP3    H271240   0.216   2.506  16.109  0.2794  0.9028  0.4710
16609TIP3   OH271241   2.106   5.175  12.680  0.4668  0.2204  0.2861
16609TIP3    H171242   2.172   5.243  12.666 -0.4272  0.5600 -3.3102
16609TIP3    H271243   2.028   5.208  12.635 -0.3580 -2.7022 -0.6211
16610TIP3   OH271244   1.355   1.549   1.690 -0.0858  0.5480  0.5035
16610TIP3    H171245   1.398   1.574   1.608  1.0900  0.2860  1.0263
16610TIP3    H271246   1.412   1.484   1.729 -0.7524  0.4932  1.4267
16611TIP3   OH271247   6.635   2.403   2.604  0.4809  0.2114  0.2544
16611TIP3    H171248   6.712   2.353   2.577 -0.2861 -0.7048 -0.2731
16611TIP3    H271249   6.604   2.358   2.682 -0.4241 -0.3784 -0.4282
16612TIP3   OH271250   6.812   3.481  15.076 -0.0340 -0.3861 -0.2127
16612TIP3    H171251   6.758   3.554  15.047 -0.6958 -0.8957 -0.2785
16612TIP3    H271252   6.750   3.411  15.094  0.7781 -2.0748 -3.3429
16613TIP3   OH271253   3.215   6.212  16.949  0.7606  0.5130  0.5590
16613TIP3    H171254   3.289   6.163  16.982  0.2703 -1.8122 -1.4992
16613TIP3    H271255   3.219   6.201  16.854 -2.9686 -0.9948  0.4101
16614TIP3   OH271256   4.699   2.948   6.451  0.1106 -0.1042 -0.6804
16614TIP3    H171257   4.750   3.017   6.492 -2.2364  0.4126  1.6937
16614TIP3    H271258   4.732   2.867   6.489  0.3778  0.0562 -0.5738
16615TIP3   OH271259   2.325   5.625  11.091 -0.1340  0.1086 -0.3626
16615TIP3    H171260   2.307   5.611  11.184 -0.2028 -0.6610 -0.4833
16615TIP3    H271261   2.416   5.599  11.081 -0.5754 -1.3234 -0.7997
16616TIP3   OH271262   3.204   3.781   1.515 -0.0825  0.2714 -0.0830
16616TIP3    H171263   3.263   3.767   1.441  0.1691  0.4982  0.0731
16616TIP3    H271264   3.255   3.758   1.592 -1.2351 -2.8480 -0.1086
16617TIP3   OH271265   6.676   6.504   3.574 -0.8605 -0.2861 -0.8859
16617TIP3    H171266   6.691   6.561   3.499 -0.7430 -0.2016 -0.7983
16617TIP3    H271267   6.627   6.557   3.637 -1.6835 -0.6131 -1.2367
16618TIP3   OH271268   5.212   6.497   5.012 -0.0990  0.9418 -0.3687
16618TIP3    H171269   5.187   6.590   5.010  0.6009  1.1491 -0.1106
16618TIP3    H271270   5.274   6.491   5.085  0.5352  0.4528 -0.9337
16619TIP3   OH271271   4.630   4.112   6.313 -0.0381 -0.1594 -0.3374
16619TIP3    H171272   4.578   4.161   6.376  0.4347 -0.9197  0.6704
16619TIP3    H271273   4.616   4.020   6.336 -0.6674 -0.5182 -2.0007
16620TIP3   OH271274   4.338   6.617   3.850  0.3756  0.2669 -0.0659
16620TIP3    H171275   4.369   6.537   3.808 -0.5394 -0.4204  0.5145
16620TIP3    H271276   4.399   6.685   3.823  1.8212 -0.8523  0.3148
16621TIP3   OH271277   5.618   2.105  13.090  0.3915  0.2410  0.0792
16621TIP3    H171278   5.680   2.101  13.017  1.1715  0.3948  0.7243
16621TIP3    H271279   5.641   2.184  13.137 -1.0048  0.8972 -0.2696
16622TIP3   OH271280   1.586   5.561  12.672  0.4726 -0.3768  0.0161
16622TIP3    H171281   1.662   5.517  12.709  1.3312  0.9008 -0.1443
16622TIP3    H271282   1.620   5.646  12.642 -1.2420  0.7395  1.0367
16623TIP3   OH271283   5.608   4.702   4.521  0.4917 -0.9736  0.0827
16623TIP3    H171284   5.659   4.703   4.603  0.5517 -2.6040  0.0942
16623TIP3    H271285   5.570   4.790   4.516  0.0250 -0.9935  2.1577
16624TIP3   OH271286   3.153   2.256   4.223  0.3495 -0.0097  0.1673
16624TIP3    H171287   3.216   2.224   4.288  0.5535 -0.5672 -0.2909
16624TIP3    H271288   3.070   2.261   4.269  0.2055 -1.6624  0.1544
16625TIP3   OH271289   6.404   1.048   5.087 -0.3900  0.8296  0.3639
16625TIP3    H171290   6.494   1.019   5.099 -0.4421 -0.5284 -1.9770
16625TIP3    H271291   6.353   0.967   5.076 -1.5944  1.6213 -0.1409
16626TIP3   OH271292   2.829   1.744   3.720 -0.2133  0.1179  0.4097
16626TIP3    H171293   2.757   1.782   3.770 -1.1335  0.4964 -1.1430
16626TIP3    H271294   2.864   1.818   3.669  0.3593 -0.3589  0.1045
16627TIP3   OH271295   2.340   1.842  10.884 -0.3573  0.0403 -0.4625
16627TIP3    H171296   2.347   1.759  10.837 -0.7181 -0.3380  0.1404
16627TIP3    H271297   2.248   1.850  10.906 -0.4218  0.8716 -0.9790
16628TIP3   OH271298   0.003   1.091   0.697  0.7592 -0.0105 -0.5454
16628TIP3    H171299  -0.005   1.184   0.679  2.5451  0.5439  1.1499
16628TIP3    H271300   0.097   1.073   0.692  0.5037 -1.5893 -0.2438
16629TIP3   OH271301   3.570   2.795  16.748 -0.6303 -0.6777  0.1375
16629TIP3    H171302   3.512   2.842  16.688 -1.7848 -0.6371  1.2376
16629TIP3    H271303   3.565   2.844  16.830  0.4405 -1.0748  0.4662
16630TIP3   OH271304   1.038   1.239  16.739 -0.3754 -0.1117  0.7478
16630TIP3    H171305   0.961   1.182  16.746 -0.3091 -0.0516  2.5480
16630TIP3    H271306   1.013   1.318  16.788 -0.3268  1.3041 -1.3813
16631TIP3   OH271307   4.321   1.995  16.428 -0.1031  0.4793  0.1802
16631TIP3    H171308   4.404   1.973  16.470  0.5070  1.1037 -0.6745
16631TIP3    H271309   4.313   1.933  16.356  1.4666  2.6510 -2.0425
16632TIP3   OH271310   4.889   3.962  13.798 -0.0134  0.0691 -0.3082
16632TIP3    H171311   4.825   4.014  13.847  0.2184  2.6149 -2.4688
16632TIP3    H271312   4.850   3.876  13.790 -1.2252  0.3371  1.9974
16633TIP3   OH271313   1.494   5.741  14.540 -0.3104  0.0891 -0.3987
16633TIP3    H171314   1.449   5.822  14.567 -2.1054 -0.2440 -2.2308
16633TIP3    H271315   1.524   5.759  14.451  1.2928 -0.5073 -0.0085
16634TIP3   OH271316   2.632   3.923   1.388 -0.0737  0.0094 -0.0858
16634TIP3    H171317   2.717   3.879   1.388 -0.5245 -0.9025 -1.2062
16634TIP3    H271318   2.647   4.003   1.338  0.5914  0.8853  1.4283
16635TIP3   OH271319   4.600   3.824  13.954  0.2135 -0.1055  0.1598
16635TIP3    H171320   4.674   3.772  13.987  0.2602 -0.4470 -0.4618
16635TIP3    H271321   4.550   3.846  14.033 -0.3494 -1.9420  0.3658
16636TIP3   OH271322   1.326   0.354  12.197 -0.9029 -0.0543 -0.1845
16636TIP3    H171323   1.302   0.438  12.159 -1.7667 -0.1280  0.1734
16636TIP3    H271324   1.354   0.374  12.286  2.7917  0.3416 -1.2934
16637TIP3   OH271325   2.179   1.830  16.694 -0.0107  0.1571  0.0617
16637TIP3    H171326   2.270   1.822  16.667 -0.1619 -0.3494 -0.3076
16637TIP3    H271327   2.129   1.832  16.612 -0.4652 -1.3208  0.2740
16638TIP3   OH271328   2.383   5.077   0.614 -0.1799 -0.0108 -0.0270
16638TIP3    H171329   2.317   5.041   0.673  0.8862 -1.2564  0.4664
16638TIP3    H271330   2.452   5.010   0.612  1.8392  1.9229  0.7856
16639TIP3   OH271331   1.019   2.798   3.197 -0.3348 -0.5143 -0.7679
16639TIP3    H171332   1.099   2.848   3.213 -0.6929 -0.5519  1.3211
16639TIP3    H271333   1.042   2.741   3.123  1.8090 -1.0519  0.2233
16640TIP3   OH271334   4.801   0.893   4.511  0.2475  0.0870 -0.7600
16640TIP3    H171335   4.742   0.968   4.504  1.2286  1.0000  0.1735
16640TIP3    H271336   4.774   0.849   4.592 -0.9626 -1.1861 -1.8108
16641TIP3   OH271337   0.669   0.259   0.349 -0.1056  0.6324  0.5323
16641TIP3    H171338   0.579   0.228   0.361 -0.4258  0.1452 -2.3090
16641TIP3    H271339   0.661   0.354   0.340 -0.5254  0.5008 -0.7153
16642TIP3   OH271340   0.554   6.163   1.255  0.1745  0.0474  0.5738
16642TIP3    H171341   0.573   6.225   1.185  0.6707  1.6187  2.0309
16642TIP3    H271342   0.622   6.096   1.247  0.1819  0.1591 -0.4672
16643TIP3   OH271343   3.793   0.425   4.848  0.3133  0.2679 -0.0289
16643TIP3    H171344   3.760   0.514   4.831  0.1648  0.3276  0.5513
16643TIP3    H271345   3.721   0.382   4.894 -0.1118 -0.5673 -1.4254
16644TIP3   OH271346   3.579   1.320   4.840 -0.8128 -0.7049  0.3614
16644TIP3    H171347   3.637   1.387   4.804 -1.9438 -0.0150 -0.2700
16644TIP3    H271348   3.590   1.327   4.935  2.4044 -2.7273  0.2736
16645TIP3   OH271349   5.041   2.314   4.436  0.1265  0.0414 -0.1330
16645TIP3    H171350   5.036   2.383   4.502  0.2576  0.9571 -1.0442
16645TIP3    H271351   5.059   2.361   4.354 -1.5646 -0.8927 -1.0948
16646TIP3   OH271352   2.481   6.294  15.448  0.9068 -0.2685  0.0504
16646TIP3    H171353   2.421   6.293  15.522  1.9308  1.7928  0.9790
16646TIP3    H271354   2.423   6.292  15.371 -0.5216  2.7223  0.8922
16647TIP3   OH271355   2.822   3.871  16.421 -0.4704 -0.4090  0.0171
16647TIP3    H171356   2.779   3.821  16.491  1.1559 -0.1984  1.2278
16647TIP3    H271357   2.903   3.823  16.403  0.5910  1.1371  0.4187
16648TIP3   OH271358   1.313   2.716  11.403  0.0199  0.2218  0.2803
16648TIP3    H171359   1.354   2.646  11.352 -0.2175  0.1167  0.2323
16648TIP3    H271360   1.321   2.794  11.347  1.3308  0.5015  0.8265
16649TIP3   OH271361   4.339   3.895  13.749 -0.5120  0.2670  0.1877
16649TIP3    H171362   4.248   3.910  13.774 -0.3222  1.1452  0.3947
16649TIP3    H271363   4.373   3.838  13.817 -0.7123  0.5309  0.5152
16650TIP3   OH271364   2.040   4.766   1.204  0.2236  0.3527  0.7878
16650TIP3    H171365   2.103   4.694   1.194 -0.3699 -0.0184 -0.4417
16650TIP3    H271366   2.002   4.752   1.291 -0.3159 -1.2028  0.3356
16651TIP3   OH271367   0.114   0.922  17.017  0.0023  0.1230 -0.3201
16651TIP3    H171368   0.093   0.986  16.949  0.1289 -0.5922 -1.0399
16651TIP3    H271369   0.138   0.975  17.093 -0.4135  0.9292 -0.7462
16652TIP3   OH271370   1.880   4.672   1.868  0.3295 -0.5462  0.1253
16652TIP3    H171371   1.830   4.707   1.794 -0.2313 -0.6734  0.4384
16652TIP3    H271372   1.918   4.590   1.835  0.1736 -0.5476 -0.0512
16653TIP3   OH271373   3.655   4.929  10.929 -0.0068 -0.0037 -0.2504
16653TIP3    H171374   3.610   5.004  10.967  1.3288 -0.4877  2.5230
16653TIP3    H271375   3.586   4.877  10.888 -1.4488  1.0329  0.7979
16654TIP3   OH271376   3.254   1.537  13.935  0.0986  0.0864  0.6814
16654TIP3    H171377   3.324   1.479  13.965  1.3106  2.3657  2.6800
16654TIP3    H271378   3.180   1.515  13.991 -0.9471 -2.3759 -1.4805
16655TIP3   OH271379   5.323   1.269  12.730 -0.2913 -0.1150 -0.4978
16655TIP3    H171380   5.398   1.209  12.733  0.9540  1.4002  2.5895
16655TIP3    H271381   5.250   1.218  12.766  0.7645  0.0903  2.1567
16656TIP3   OH271382   2.683   2.894  14.886  0.4970  0.1410 -0.2863
16656TIP3    H171383   2.632   2.968  14.853  1.7488  0.4287 -1.6590
16656TIP3    H271384   2.714   2.849  14.808 -2.1013 -3.2813  0.3875
16657TIP3   OH271385   5.419   4.700  13.493  0.0964 -0.2958 -0.0339
16657TIP3    H171386   5.470   4.712  13.414 -0.8697 -1.4102 -0.8693
16657TIP3    H271387   5.454   4.620  13.533  0.2133 -0.0465  0.3696
16658TIP3   OH271388   0.165   2.940  11.354 -0.7935 -0.4037 -0.0357
16658TIP3    H171389   0.173   3.032  11.380 -2.0898 -0.4110  0.4380
16658TIP3    H271390   0.256   2.910  11.345 -0.3437  0.6627  0.7213
16659TIP3   OH271391   3.492   2.878   4.163 -0.3494  0.1112  0.5780
16659TIP3    H171392   3.578   2.841   4.144 -0.6889 -0.7211  0.5982
16659TIP3    H271393   3.504   2.929   4.243  0.2605  0.5191  0.2276
16660TIP3   OH271394   0.736   0.496   1.133  0.1615 -0.3351  0.4479
16660TIP3    H171395   0.648   0.520   1.104 -0.6589 -2.8308  0.6605
16660TIP3    H271396   0.742   0.533   1.221 -0.3945  0.4097  0.1933
16661TIP3   OH271397   5.147   4.246   3.707 -0.4001 -0.3298 -0.1179
16661TIP3    H171398   5.054   4.236   3.687 -0.0082 -1.5548 -1.4831
16661TIP3    H271399   5.153   4.229   3.801 -1.4777 -0.9591 -0.1460
16662TIP3   OH271400   4.162   1.824   0.250 -0.0065 -0.5825 -0.5448
16662TIP3    H171401   4.135   1.767   0.322 -0.5062 -1.2138 -1.2200
16662TIP3    H271402   4.158   1.769   0.172 -2.6508  0.8828 -1.5668
16663TIP3   OH271403   3.710   4.122  15.452  0.6222 -0.7436  0.1297
16663TIP3    H171404   3.746   4.038  15.425  0.6234 -0.2025 -1.6489
16663TIP3    H271405   3.634   4.136  15.395 -0.0552 -0.0442  1.1574
16664TIP3   OH271406   2.353   3.840   3.732  0.0440 -0.2046 -0.0176
16664TIP3    H171407   2.312   3.892   3.663 -1.9485 -0.8864  0.5924
16664TIP3    H271408   2.304   3.861   3.811  0.0391 -2.0013  0.5114
16665TIP3   OH271409   0.757   1.937   4.991 -0.0868  0.0910 -0.7478
16665TIP3    H171410   0.809   1.935   4.911 -0.9622  0.7031 -1.3463
16665TIP3    H271411   0.700   1.861   4.985  0.8416 -0.6884 -0.0020
16666TIP3   OH271412   6.153   3.034   4.933  0.6164  0.0880  0.2279
16666TIP3    H171413   6.195   3.116   4.958  0.4434  0.7919 -1.5979
16666TIP3    H271414   6.105   3.056   4.852  0.5644 -1.8060 -0.2928
16667TIP3   OH271415   6.132   4.675  15.993 -0.1870  0.0726  0.3185
16667TIP3    H171416   6.121   4.693  15.900  1.0542 -1.9855 -0.2836
16667TIP3    H271417   6.225   4.684  16.010 -0.5224  1.5083  1.6519
16668TIP3   OH271418   0.502   0.798  10.960  0.2139  0.1686  0.0347
16668TIP3    H171419   0.516   0.725  10.900  0.3553 -0.2081  0.5238
16668TIP3    H271420   0.425   0.772  11.011 -1.7757  1.7750 -1.9684
16669TIP3   OH271421   3.416   1.241  15.475  0.4305 -0.5286 -0.0508
16669TIP3    H171422   3.452   1.326  15.452 -4.1330  1.4916 -0.7878
16669TIP3    H271423   3.433   1.232  15.568  0.2601  1.6925  0.2491
16670TIP3   OH271424   5.801   4.457   2.638 -0.2442  0.8177 -0.3017
16670TIP3    H171425   5.712   4.464   2.603 -1.5832 -0.8357  2.3916
16670TIP3    H271426   5.856   4.446   2.561 -2.5007  0.7556 -2.0290
16671TIP3   OH271427   0.211   1.174   4.021 -0.4073 -0.1783 -0.4427
16671TIP3    H171428   0.195   1.157   4.114  2.2342 -1.8559 -0.1625
16671TIP3    H271429   0.279   1.111   3.997  2.3077  3.1514 -2.3536
16672TIP3   OH271430   2.826   5.464  14.976  0.0818 -0.0322  0.1772
16672TIP3    H171431   2.754   5.524  14.960 -0.1227 -0.4444 -0.4523
16672TIP3    H271432   2.822   5.400  14.905  2.1611  0.9798 -0.9640
16673TIP3   OH271433   5.138   0.998  15.516  0.1993 -0.0023  0.3710
16673TIP3    H171434   5.225   1.039  15.517  0.7753 -1.1925  0.1628
16673TIP3    H271435   5.088   1.052  15.454  1.1080  0.0690 -0.3250
16674TIP3   OH271436   5.382   3.544   4.724 -0.0561 -0.0244  0.3083
16674TIP3    H171437   5.309   3.579   4.775  0.7974  0.4096  1.2629
16674TIP3    H271438   5.456   3.600   4.746  0.8322 -1.1140  0.2006
16675TIP3   OH271439   0.685   5.878  14.266  0.4345  0.3804  0.6570
16675TIP3    H171440   0.654   5.967  14.253 -0.8080 -0.0059  0.8313
16675TIP3    H271441   0.712   5.850  14.178 -2.0994 -0.0991 -0.0485
16676TIP3   OH271442   2.622   5.529   5.752  0.2645  0.2340 -0.4198
16676TIP3    H171443   2.627   5.439   5.719 -1.1955 -0.2846  0.6504
16676TIP3    H271444   2.528   5.545   5.763  0.5911  1.0454  1.6066
16677TIP3   OH271445   1.161   2.225   4.241 -0.2862  0.5030 -0.3929
16677TIP3    H171446   1.075   2.227   4.283 -0.2217  0.9970 -0.2810
16677TIP3    H271447   1.205   2.149   4.279 -0.0805  1.1597  0.7376
16678TIP3   OH271448   4.663   2.420  13.899 -0.7696  0.0235  0.2681
16678TIP3    H171449   4.574   2.413  13.865 -0.3765  1.6680 -1.2965
16678TIP3    H271450   4.717   2.438  13.822  1.1370 -2.1180  0.9920
16679TIP3   OH271451   0.045   2.901   1.315  0.7654  0.1958 -0.6768
16679TIP3    H171452   0.082   2.852   1.388  1.4575  0.2724 -0.9737
16679TIP3    H271453   0.106   2.887   1.243 -0.3303 -0.5470 -1.4891
16680TIP3   OH271454   1.227   5.148   0.417 -0.4404 -0.4422 -0.2541
16680TIP3    H171455   1.150   5.133   0.472 -0.6972 -0.2872 -0.5699
16680TIP3    H271456   1.263   5.231   0.447 -0.7881 -0.1784 -0.5575
16681TIP3   OH271457   3.995   0.259   2.075  0.2302  0.2688 -0.4586
16681TIP3    H171458   3.911   0.249   2.030  0.5581  0.0436 -1.0356
16681TIP3    H271459   4.032   0.339   2.039  0.9061 -0.3900 -1.3004
16682TIP3   OH271460   2.368   5.031  15.317 -0.0900 -0.3345 -0.3228
16682TIP3    H171461   2.443   5.089  15.331  0.3662 -0.7382 -1.0372
16682TIP3    H271462   2.313   5.044  15.394  0.0695  0.9326 -0.3940
16683TIP3   OH271463   5.152   2.779  11.034  0.4001  0.3889  0.2597
16683TIP3    H171464   5.221   2.720  11.005  1.0613  1.3736 -0.2070
16683TIP3    H271465   5.139   2.840  10.961  0.9070  1.8514  1.3515
16684TIP3   OH271466   5.425   2.332  16.348 -0.0751  0.2921  0.2608
16684TIP3    H171467   5.355   2.394  16.333  1.6079  2.0337 -0.7812
16684TIP3    H271468   5.419   2.270  16.275  0.1111  1.0551 -0.4071
16685TIP3   OH271469   2.273   0.967   1.837 -0.3862 -0.1834  0.0225
16685TIP3    H171470   2.207   0.920   1.888  0.3474 -0.1713  1.0154
16685TIP3    H271471   2.265   1.058   1.867  0.8800 -0.3858  1.0587
16686TIP3   OH271472   2.575   0.432   2.744 -0.5443 -0.2884  0.2644
16686TIP3    H171473   2.647   0.405   2.802  1.1136 -1.4837 -2.1810
16686TIP3    H271474   2.510   0.363   2.753  0.7183 -1.7122 -0.9247
16687TIP3   OH271475   6.484   3.791  14.206 -0.2145  0.9807  0.2891
16687TIP3    H171476   6.547   3.784  14.135 -0.9300  0.8451 -0.3354
16687TIP3    H271477   6.401   3.813  14.163 -0.0829  3.8686  1.2740
16688TIP3   OH271478   2.424   0.077  15.616 -0.1396  0.3214  0.0681
16688TIP3    H171479   2.375  -0.005  15.625  1.4941 -0.8132 -0.8880
16688TIP3    H271480   2.504   0.063  15.665  0.4193  1.1372 -0.5796
16689TIP3   OH271481   1.796   2.801  12.910  0.6677 -0.4966  0.5002
16689TIP3    H171482   1.716   2.837  12.872  0.2333 -1.9825 -0.0742
16689TIP3    H271483   1.818   2.861  12.981 -0.0077  0.8620 -0.3928
16690TIP3   OH271484   4.453   5.441  14.138 -0.1359  0.9984 -0.0690
16690TIP3    H171485   4.543   5.408  14.134 -0.5061  0.0134 -0.5339
16690TIP3    H271486   4.463   5.533  14.162  1.1051  1.3469 -1.7018
16691TIP3   OH271487   1.647   3.400  15.198 -0.0532 -0.5981 -0.2424
16691TIP3    H171488   1.597   3.437  15.125 -0.7498  0.3426  0.6933
16691TIP3    H271489   1.670   3.312  15.168 -1.2949 -0.6414 -1.1621
16692TIP3   OH271490   6.017   1.848   3.442  0.0334 -0.1962  0.5696
16692TIP3    H171491   6.054   1.772   3.486  2.2367 -0.4570 -1.4959
16692TIP3    H271492   5.966   1.812   3.369  0.1584  0.2781  0.2380
16693TIP3   OH271493   4.182   2.590   2.824 -0.5432  0.3719 -0.8125
16693TIP3    H171494   4.232   2.511   2.802 -0.4507  0.7279 -1.9476
16693TIP3    H271495   4.248   2.652   2.855 -0.8136 -0.5486  1.8837
16694TIP3   OH271496   0.344   1.563   2.154 -0.2688 -0.2037  0.3727
16694TIP3    H171497   0.411   1.528   2.213  0.4516  0.2965 -0.1498
16694TIP3    H271498   0.377   1.544   2.066 -1.6992 -1.6496  0.0980
16695TIP3   OH271499   1.512   0.931  11.420  0.0732  0.2672  0.4308
16695TIP3    H171500   1.457   0.888  11.355  0.8649  0.8843 -0.6802
16695TIP3    H271501   1.582   0.868  11.437  1.1819  1.0100 -1.1292
16696TIP3   OH271502   1.791   6.678  14.338 -0.4355  0.0510  0.7120
16696TIP3    H171503   1.882   6.670  14.366 -0.7034 -1.0103  1.3129
16696TIP3    H271504   1.778   6.773  14.326  0.6198  0.2454  1.0073
16697TIP3   OH271505   5.410   0.392   0.160  0.6811  0.0915 -0.0999
16697TIP3    H171506   5.381   0.394   0.252  1.4011 -0.2941  0.1426
16697TIP3    H271507   5.375   0.309   0.127 -0.6498  0.7985 -0.5516
16698TIP3   OH271508   4.256   3.692  15.984  0.5571 -0.3453  0.2207
16698TIP3    H171509   4.306   3.772  15.964  2.2543 -1.2215  0.7059
16698TIP3    H271510   4.208   3.713  16.064 -0.4811  0.7625 -0.6548
16699TIP3   OH271511   4.187   0.965  16.579 -0.2231  0.5101 -0.0736
16699TIP3    H171512   4.170   1.034  16.516  1.7826  1.5080  0.3948
16699TIP3    H271513   4.237   0.900  16.530  1.3486  1.2929  0.4321
16700TIP3   OH271514   3.756   4.447   4.461 -0.2572 -0.7153 -0.4942
16700TIP3    H171515   3.788   4.521   4.409 -0.4063  0.5219  1.1029
16700TIP3    H271516   3.833   4.414   4.506 -0.3392 -1.0459 -0.5918
16701TIP3   OH271517   5.499   6.113  14.204 -0.2942 -0.0938 -0.1771
16701TIP3    H171518   5.581   6.066  14.219 -1.6880 -2.3890  0.9211
16701TIP3    H271519   5.497   6.129  14.110 -0.0722 -3.1303 -0.8018
16702TIP3   OH271520   4.677   4.482  11.123  0.1978  0.5042 -0.0852
16702TIP3    H171521   4.702   4.531  11.045 -0.8252 -1.2412 -1.6067
16702TIP3    H271522   4.584   4.463  11.110 -0.0781  0.4599  1.7437
16703TIP3   OH271523   2.941   2.356   1.478 -0.5632 -0.2475  0.2356
16703TIP3    H171524   2.912   2.433   1.428 -0.0587  0.7501  1.4440
16703TIP3    H271525   2.890   2.284   1.441 -0.2094  0.4470 -1.7183
16704TIP3   OH271526   0.647   3.180  15.537 -0.1255  0.3007  0.0784
16704TIP3    H171527   0.612   3.256  15.491 -0.7079 -0.7865 -1.3474
16704TIP3    H271528   0.741   3.184  15.522 -0.1144  0.9102  0.2892
16705TIP3   OH271529   6.747   6.461  13.232 -0.3242 -0.1306  0.2228
16705TIP3    H171530   6.729   6.368  13.248  1.3244 -0.2107  1.9705
16705TIP3    H271531   6.825   6.461  13.176 -0.7742  0.2112 -0.4139
16706TIP3   OH271532   2.288   3.792   5.166  0.5018 -0.3927 -0.8866
16706TIP3    H171533   2.210   3.812   5.217 -0.0747 -0.7478 -1.5981
16706TIP3    H271534   2.257   3.790   5.075  1.4247 -0.1319 -1.2141
16707TIP3   OH271535   1.447   3.552   4.524  0.0869  0.1923 -0.5484
16707TIP3    H171536   1.460   3.642   4.496  0.2160  0.2636 -0.2553
16707TIP3    H271537   1.394   3.513   4.454 -1.9711  1.1256  0.4040
16708TIP3   OH271538   1.938   1.520   4.229  0.0878  0.2623  0.1688
16708TIP3    H171539   1.924   1.534   4.322  1.8167 -1.6049  0.8070
16708TIP3    H271540   1.922   1.426   4.217  0.7339  0.3115 -1.2256
16709TIP3   OH271541   1.013   0.254   2.323  0.6006 -0.7262  0.0270
16709TIP3    H171542   1.043   0.197   2.252 -0.0548 -0.0775 -0.8026
16709TIP3    H271543   0.960   0.197   2.378 -0.9744 -0.7322 -1.4020
16710TIP3   OH271544   0.663   3.779  14.104  0.4359  0.5052  0.2276
16710TIP3    H171545   0.741   3.788  14.049  1.9058  1.2680  2.2985
16710TIP3    H271546   0.662   3.686  14.129  0.1663  0.3105 -0.4850
16711TIP3   OH271547   5.054   4.374   0.132  0.3712 -0.1434 -0.2245
16711TIP3    H171548   5.068   4.329   0.049  1.9446  1.1366 -0.6984
16711TIP3    H271549   5.007   4.455   0.108  2.1627  0.9793 -0.1326
16712TIP3   OH271550   0.908   1.541  12.816  0.0553 -0.4298 -0.1046
16712TIP3    H171551   0.877   1.596  12.744  0.0146 -0.3275 -0.0092
16712TIP3    H271552   1.001   1.527  12.798 -0.0662 -0.8191 -0.4462
16713TIP3   OH271553   5.037   1.639  11.288  0.0050 -0.2544 -0.5539
16713TIP3    H171554   5.060   1.566  11.346 -0.0336  1.5197  1.8420
16713TIP3    H271555   5.116   1.654  11.236  0.7092 -0.7363  0.3437
16714TIP3   OH271556   5.194   3.349  12.727 -0.0321  0.0038  0.5392
16714TIP3    H171557   5.267   3.352  12.665 -0.2850  1.2766  0.2838
16714TIP3    H271558   5.143   3.272  12.700 -0.2095  0.6033 -0.9270
16715TIP3   OH271559   4.631   1.490  16.605  0.1689  0.5869 -0.0283
16715TIP3    H171560   4.551   1.502  16.655  0.5041  2.1565  0.1827
16715TIP3    H271561   4.693   1.452  16.668  0.4684  2.1812  0.6932
16716TIP3   OH271562   2.249   6.767   0.451  0.1675 -0.1396  0.7326
16716TIP3    H171563   2.170   6.820   0.437  0.8413  0.5637 -0.5838
16716TIP3    H271564   2.223   6.679   0.426  0.4384  0.5194 -2.2189
16717TIP3   OH271565   0.546   4.999  11.333 -0.4229  0.2067  0.0764
16717TIP3    H171566   0.555   4.927  11.270  0.9477 -0.3396  0.8459
16717TIP3    H271567   0.507   4.959  11.410 -2.7595  1.0213 -0.6037
16718TIP3   OH271568   4.297   4.471   5.333  0.2928 -0.8896  0.2611
16718TIP3    H171569   4.258   4.518   5.259  0.4830 -2.5634 -0.9709
16718TIP3    H271570   4.276   4.379   5.317  1.7132 -1.4724  1.4392
16719TIP3   OH271571   2.213   5.174  14.971  0.2075  0.0406  0.3388
16719TIP3    H171572   2.194   5.083  14.994 -1.5591 -0.1411 -1.5763
16719TIP3    H271573   2.130   5.209  14.938  1.4997  1.5100 -1.5816
16720TIP3   OH271574   2.069   1.894  14.344  0.3693 -0.6585 -0.7306
16720TIP3    H171575   1.987   1.894  14.294 -0.8437  0.7935  1.1049
16720TIP3    H271576   2.135   1.922  14.281 -1.3263  2.5718 -1.2754
16721TIP3   OH271577   0.533   1.748  12.755  0.8456 -0.3325 -0.6715
16721TIP3    H171578   0.578   1.664  12.770  0.5740 -0.3254  0.2120
16721TIP3    H271579   0.602   1.814  12.762  0.4881 -0.1489  2.5219
16722TIP3   OH271580   3.486   4.173  12.456 -0.1324 -0.1458 -0.5697
16722TIP3    H171581   3.496   4.252  12.509 -0.4264 -1.8884  2.2943
16722TIP3    H271582   3.574   4.136  12.453 -0.4449 -0.9889  0.3124
16723TIP3   OH271583   3.917   2.544   2.942  0.2363 -0.6626  0.0253
16723TIP3    H171584   3.900   2.638   2.945  0.4548 -0.6076 -0.4015
16723TIP3    H271585   3.985   2.534   2.876  0.1436 -1.1310 -0.0026
16724TIP3   OH271586   1.676   6.181   3.962  0.3728 -0.0465 -0.3882
16724TIP3    H171587   1.692   6.218   4.049 -1.3480 -0.6665  0.2360
16724TIP3    H271588   1.642   6.254   3.910  1.3082  0.3006 -0.5257
16725TIP3   OH271589   6.082   1.050  11.210  0.1009  0.2601  0.5243
16725TIP3    H171590   6.100   0.962  11.177  0.9071  0.5168  0.2382
16725TIP3    H271591   6.153   1.103  11.175 -1.6850  1.5474 -1.4307
16726TIP3   OH271592   2.916   4.908   3.805  0.5975 -0.0250 -0.1878
16726TIP3    H171593   2.852   4.865   3.862  1.4032  0.7439  1.3440
16726TIP3    H271594   2.866   4.979   3.764  0.0762 -0.4003 -0.2188
16727TIP3   OH271595   4.050   0.807   0.897  0.7709  0.5971 -0.0223
16727TIP3    H171596   4.039   0.788   0.990  0.0785 -0.5089 -0.3152
16727TIP3    H271597   4.127   0.755   0.871  0.2938  0.0107 -0.2998
16728TIP3   OH271598   5.622   1.564  12.993 -0.3852 -0.7175  0.3710
16728TIP3    H171599   5.621   1.657  13.019 -0.7289 -0.6286  0.0423
16728TIP3    H271600   5.609   1.517  13.075 -2.6753 -0.4056  0.2575
16729TIP3   OH271601   3.080   2.665  15.875 -0.4314 -0.5504  0.5722
16729TIP3    H171602   3.166   2.680  15.915 -0.4861  0.5135  0.3075
16729TIP3    H271603   3.095   2.591  15.815  0.1151 -0.8669  1.0807
16730TIP3   OH271604   1.589   3.035   1.105 -0.4834 -0.4307  0.0730
16730TIP3    H171605   1.576   3.128   1.122  0.8404  0.0731 -1.4318
16730TIP3    H271606   1.540   2.991   1.174 -0.6253  1.3825  1.1937
16731TIP3   OH271607   5.385   2.498  16.785 -0.0251 -0.3638  0.2162
16731TIP3    H171608   5.404   2.489  16.879 -0.6693  0.8133  0.4878
16731TIP3    H271609   5.432   2.426  16.744  1.3232 -0.1682  1.3183
16732TIP3   OH271610   5.014   2.453  14.472 -0.4779  0.4815 -0.1885
16732TIP3    H171611   4.946   2.428  14.409  2.2007 -0.0479 -3.1292
16732TIP3    H271612   5.061   2.524  14.428  1.5575  0.0663  1.2268
16733TIP3   OH271613   0.857   4.479   2.268 -0.0197 -0.1563 -0.1513
16733TIP3    H171614   0.902   4.548   2.316  1.8041 -1.0607 -0.4647
16733TIP3    H271615   0.780   4.521   2.231  0.8904  1.6377 -0.0988
16734TIP3   OH271616   3.986   0.810   3.692  0.1356 -0.0252  0.2779
16734TIP3    H171617   4.026   0.723   3.700  0.2807  0.0895  0.8604
16734TIP3    H271618   4.007   0.854   3.775  0.1911  0.6184 -0.0711
16735TIP3   OH271619   5.379   5.080   3.008 -0.5160  0.5831 -0.5264
16735TIP3    H171620   5.435   5.117   3.076 -1.0822  2.9375 -1.2212
16735TIP3    H271621   5.304   5.044   3.054  0.2765 -0.1333  0.2281
16736TIP3   OH271622   1.908   6.532   5.540  0.4381  0.2356  0.0538
16736TIP3    H171623   1.911   6.440   5.511  0.5008  0.2057  0.1560
16736TIP3    H271624   1.815   6.554   5.539  0.2977 -0.2238  1.2831
16737TIP3   OH271625   2.508   2.074  12.095 -0.0450  0.2017 -0.2649
16737TIP3    H171626   2.533   2.053  12.005  0.3006 -1.4879  0.1861
16737TIP3    H271627   2.504   2.169  12.097  1.7866  0.3574 -1.5788
16738TIP3   OH271628   5.016   6.224   3.823  0.5336 -0.2785 -0.4592
16738TIP3    H171629   5.044   6.146   3.775  0.9091  0.0525 -0.7870
16738TIP3    H271630   5.091   6.283   3.819 -0.5795  1.1004 -2.3495
16739TIP3   OH271631   6.699   4.250   5.398  0.0041 -0.2538  0.0187
16739TIP3    H171632   6.610   4.216   5.407  0.9087 -2.5674  1.0152
16739TIP3    H271633   6.691   4.323   5.336 -2.7570  0.4509  1.0382
16740TIP3   OH271634   1.267   0.304  11.028  0.4542  0.5960 -0.2345
16740TIP3    H171635   1.310   0.381  10.990 -0.3111  0.6067 -1.1238
16740TIP3    H271636   1.174   0.317  11.007  0.6377 -2.5917 -4.2936
16741TIP3   OH271637   5.220   0.564  15.466 -0.2885 -0.3273  0.2800
16741TIP3    H171638   5.287   0.502  15.438  0.7973  1.1861 -0.5984
16741TIP3    H271639   5.150   0.556  15.401  0.1592 -0.1293 -0.2268
16742TIP3   OH271640   5.960   0.719  12.024  0.4850 -0.5772  0.1596
16742TIP3    H171641   6.036   0.695  12.078 -0.7199 -1.1040  1.6904
16742TIP3    H271642   5.969   0.813  12.011  0.9593 -0.4878  1.0447
16743TIP3   OH271643   6.246   5.742   2.406  0.7008 -0.2504 -0.0015
16743TIP3    H171644   6.168   5.688   2.392  0.7499 -0.3991  0.2762
16743TIP3    H271645   6.236   5.774   2.496 -0.9531  2.8277 -1.1023
16744TIP3   OH271646   0.250   5.661  14.367 -0.0149 -0.4255  0.0672
16744TIP3    H171647   0.305   5.739  14.370 -1.1071  0.4156 -0.7189
16744TIP3    H271648   0.310   5.590  14.345  0.6967  0.5546 -1.3289
16745TIP3   OH271649   2.291   2.477  16.554 -0.1368 -0.0976  0.6634
16745TIP3    H171650   2.378   2.491  16.591 -0.1761 -0.1065  0.7587
16745TIP3    H271651   2.286   2.382  16.540 -0.3965 -0.1827  1.3178
16746TIP3   OH271652   4.851   5.051   2.400 -0.3445 -0.5482  0.1799
16746TIP3    H171653   4.838   5.139   2.367 -0.8938 -0.1083  1.5074
16746TIP3    H271654   4.895   5.005   2.328 -1.8129  0.2258 -1.2841
16747TIP3   OH271655   1.411   0.436   1.247  0.2777  0.3598 -0.1211
16747TIP3    H171656   1.398   0.361   1.189 -1.4679  0.0176  0.6331
16747TIP3    H271657   1.465   0.403   1.318  0.2173  0.0575 -0.2136
16748TIP3   OH271658   4.280   5.709  15.433  0.3460 -0.9570  0.1090
16748TIP3    H171659   4.343   5.638  15.450  2.3074  0.2853 -1.4934
16748TIP3    H271660   4.332   5.789  15.440 -0.8523  0.0933 -2.1135
16749TIP3   OH271661   0.476   2.484  14.258  0.5268 -0.0253  0.3059
16749TIP3    H171662   0.565   2.465  14.288 -0.4288 -2.0424  2.1791
16749TIP3    H271663   0.434   2.527  14.333 -0.2054  0.5423 -0.4014
16750TIP3   OH271664   3.361   3.765   5.740  0.1242  0.1733 -0.2926
16750TIP3    H171665   3.348   3.839   5.800  0.6560 -0.6113  0.8242
16750TIP3    H271666   3.274   3.729   5.726  0.0415  0.1269  0.3248
16751TIP3   OH271667   0.496   3.011   4.361  0.0077  0.4381  0.4634
16751TIP3    H171668   0.461   3.079   4.304  0.8855 -0.7452 -1.6160
16751TIP3    H271669   0.588   3.035   4.373 -0.1990  0.7456  1.5212
16752TIP3   OH271670   0.162   6.337  15.750  0.3071  0.1407 -0.1325
16752TIP3    H171671   0.157   6.329  15.845 -1.2804  0.5969 -0.1470
16752TIP3    H271672   0.146   6.430  15.732 -1.9030 -0.3259 -0.9276
16753TIP3   OH271673   2.501   5.244  15.817 -0.2498 -0.0473  0.0985
16753TIP3    H171674   2.475   5.152  15.830  0.0099 -0.3085 -1.1302
16753TIP3    H271675   2.588   5.239  15.777  0.2339  0.7684  1.0141
16754TIP3   OH271676   4.786   0.033  15.543  0.1278  0.1930  0.1954
16754TIP3    H171677   4.846   0.052  15.471 -0.7746 -1.2491 -0.9917
16754TIP3    H271678   4.782  -0.063  15.546 -1.3188  0.2525  0.9124
16755TIP3   OH271679   1.304   4.460   5.869  0.5538 -0.5700  0.0842
16755TIP3    H171680   1.360   4.472   5.946  0.9221  1.9353 -0.4826
16755TIP3    H271681   1.292   4.548   5.834 -1.2972 -1.3933 -1.5719
16756TIP3   OH271682   1.500   5.688  13.220  0.5962  0.6530 -0.4209
16756TIP3    H171683   1.550   5.612  13.249 -1.4880 -0.3002  0.8897
16756TIP3    H271684   1.563   5.761  13.225  1.7122 -0.3563  1.7305
16757TIP3   OH271685   3.634   0.965   2.619 -0.4939  0.0272 -0.0594
16757TIP3    H171686   3.659   0.911   2.544 -0.7942  0.5967 -0.5789
16757TIP3    H271687   3.540   0.954   2.626 -0.2456 -1.4536  1.3754
16758TIP3   OH271688   0.602   1.504   2.303  0.1065 -0.8512 -0.3113
16758TIP3    H171689   0.527   1.476   2.356 -1.5202  2.0252 -0.8595
16758TIP3    H271690   0.672   1.518   2.366 -1.5794  1.8381  1.2019
16759TIP3   OH271691   3.869   0.491  14.245 -1.4019 -0.4270 -0.0024
16759TIP3    H171692   3.878   0.433  14.169 -1.1672 -2.6388  1.6108
16759TIP3    H271693   3.791   0.458  14.290 -1.2986  0.5789  0.9370
16760TIP3   OH271694   6.363   3.877  11.470 -0.4055 -0.4068 -0.3414
16760TIP3    H171695   6.316   3.943  11.521 -0.6092 -0.5552 -0.3311
16760TIP3    H271696   6.346   3.901  11.379 -0.3777 -0.3756 -0.3384
16761TIP3   OH271697   1.122   5.627  12.439  0.3297  0.3785  0.0440
16761TIP3    H171698   1.168   5.684  12.500 -0.0599  0.3844  0.3355
16761TIP3    H271699   1.132   5.670  12.354  0.7386  0.4525  0.1265
16762TIP3   OH271700   2.562   6.365   4.089 -0.3808 -0.1872  0.3447
16762TIP3    H171701   2.549   6.432   4.021 -1.0400 -1.3730 -0.7578
16762TIP3    H271702   2.633   6.399   4.143  1.2829  0.1317 -1.8825
16763TIP3   OH271703   1.646   6.550  16.435 -0.3474  0.6108 -0.3085
16763TIP3    H171704   1.669   6.559  16.527 -2.3487  1.1041  0.1903
16763TIP3    H271705   1.661   6.636  16.397  1.3310  0.1815 -0.6906
16764TIP3   OH271706   4.050   4.673  12.477 -0.0095  0.3086  0.1805
16764TIP3    H171707   3.995   4.738  12.432 -0.4609 -1.2359 -1.6613
16764TIP3    H271708   4.114   4.647  12.411  0.0089 -1.2472  0.7756
16765TIP3   OH271709   3.420   6.219  13.903 -0.5240  0.0593  0.0881
16765TIP3    H171710   3.493   6.191  13.957 -0.4005 -1.1099 -0.6375
16765TIP3    H271711   3.429   6.314  13.897  0.3097  0.0412  0.8761
16766TIP3   OH271712   4.508   1.568   3.840  0.4855  0.2836 -0.6406
16766TIP3    H171713   4.577   1.507   3.811  1.3757  1.5251 -1.2294
16766TIP3    H271714   4.517   1.643   3.781 -0.4535  1.0744  0.2007
16767TIP3   OH271715   6.263   0.311  16.098  0.4699  0.4523  0.1381
16767TIP3    H171716   6.205   0.238  16.079 -0.0154  1.1087 -1.0453
16767TIP3    H271717   6.209   0.372  16.149  0.2761  0.8012 -0.4674
16768TIP3   OH271718   1.802   6.606   3.692  0.8816 -0.1723 -0.0682
16768TIP3    H171719   1.883   6.617   3.742  1.9295 -1.7456 -1.3073
16768TIP3    H271720   1.792   6.689   3.646  3.6061 -0.9252 -2.3197
16769TIP3   OH271721   0.475   2.575   0.799 -0.5379  0.6528 -0.0710
16769TIP3    H171722   0.466   2.533   0.884  0.3304 -1.1302 -0.8156
16769TIP3    H271723   0.393   2.623   0.787 -1.6679 -0.9845  0.7551
16770TIP3   OH271724   3.328   6.751   6.745 -0.2706  0.4171 -0.2853
16770TIP3    H171725   3.266   6.696   6.793  1.4853 -0.1624  1.4550
16770TIP3    H271726   3.406   6.697   6.737  0.3874  1.5070 -1.4869
16771TIP3   OH271727   5.542   6.489   3.757  0.2784 -0.1243  0.2873
16771TIP3    H171728   5.610   6.526   3.700 -0.4440 -0.2688 -0.7046
16771TIP3    H271729   5.482   6.445   3.696  0.0333 -1.1883  1.2633
16772TIP3   OH271730   5.372   3.550   3.798 -0.1753  0.2113 -0.0719
16772TIP3    H171731   5.319   3.627   3.779 -0.5776 -0.6649 -3.0068
16772TIP3    H271732   5.325   3.505   3.869 -2.8462  0.0161 -1.8357
16773TIP3   OH271733   5.187   3.297   0.409 -0.4578 -0.0264  0.2514
16773TIP3    H171734   5.145   3.215   0.385 -0.7467  0.0824  0.3868
16773TIP3    H271735   5.180   3.300   0.505 -0.6841  0.2849  0.2242
16774TIP3   OH271736   5.202   5.166  16.840  0.0482 -0.0980  0.2792
16774TIP3    H171737   5.232   5.194  16.754 -0.6880 -1.3076 -0.4042
16774TIP3    H271738   5.249   5.222  16.901  2.1066 -0.5417 -0.8029
16775TIP3   OH271739   6.621   6.481  14.448 -0.2188  0.2774  0.5999
16775TIP3    H171740   6.671   6.561  14.436  1.8527 -1.0183  0.0988
16775TIP3    H271741   6.586   6.461  14.361 -1.7530  1.1920  0.9525
16776TIP3   OH271742   2.797   3.919   2.137 -0.1506  0.2636  0.3504
16776TIP3    H171743   2.837   3.980   2.199 -0.5080  1.0929 -0.2102
16776TIP3    H271744   2.869   3.892   2.080 -0.3296  1.7526 -0.6569
16777TIP3   OH271745   2.361   0.459  10.908  0.1352 -0.8752 -0.4972
16777TIP3    H171746   2.331   0.535  10.957  1.6620 -0.8500  0.4786
16777TIP3    H271747   2.304   0.455  10.831  0.8702  2.0750 -1.3032
16778TIP3   OH271748   2.092   6.285   0.914 -0.2788 -0.2590 -0.0933
16778TIP3    H171749   2.034   6.266   0.987 -1.9321 -2.6792 -1.8648
16778TIP3    H271750   2.058   6.365   0.875 -1.4790 -0.7712 -0.1323
16779TIP3   OH271751   5.921   4.678   0.501 -0.2960  0.3538  0.2632
16779TIP3    H171752   5.899   4.590   0.470  1.5085  0.3122 -1.1216
16779TIP3    H271753   5.846   4.732   0.477 -0.2115 -0.2730 -1.5883
16780TIP3   OH271754   1.325   4.109  12.099  0.6948 -0.5104 -0.7570
16780TIP3    H171755   1.307   4.015  12.091  0.3588 -0.4350 -0.9085
16780TIP3    H271756   1.418   4.117  12.077  0.5129 -0.6945 -1.6572
16781TIP3   OH271757   2.600   0.643  12.559  0.1980  0.1284  0.0045
16781TIP3    H171758   2.589   0.721  12.505 -1.0084 -0.8643 -1.2434
16781TIP3    H271759   2.530   0.584  12.531  0.2710 -0.9125  1.8241
16782TIP3   OH271760   5.380   0.800   5.365 -0.2692 -0.3638  0.1445
16782TIP3    H171761   5.429   0.773   5.443  0.4523  1.9086  0.5558
16782TIP3    H271762   5.446   0.811   5.297 -0.4341  0.8009  0.1507
16783TIP3   OH271763   3.506   2.538   1.353 -0.2634  0.0887  0.2792
16783TIP3    H171764   3.463   2.609   1.305  1.3827  1.8499  1.2536
16783TIP3    H271765   3.486   2.557   1.445  1.4228  0.2022  0.6546
16784TIP3   OH271766   2.964   5.896   2.088  0.1419  0.1505 -0.6114
16784TIP3    H171767   2.889   5.956   2.080  0.5513  0.6580 -0.7313
16784TIP3    H271768   3.028   5.931   2.026  1.2281  0.8808  0.8610
16785TIP3   OH271769   2.826   0.281  11.185  0.1136  0.0458  0.7374
16785TIP3    H171770   2.900   0.335  11.158 -0.7787  0.6714 -0.5540
16785TIP3    H271771   2.824   0.208  11.123 -0.4246  0.0926  0.6906
16786TIP3   OH271772   2.211   1.680   5.334 -0.2404 -0.4142  0.0630
16786TIP3    H171773   2.253   1.618   5.393  0.0719 -1.4715 -1.2366
16786TIP3    H271774   2.193   1.757   5.389 -0.1311 -1.4260  1.5617
16787TIP3   OH271775   6.195   0.732   0.583  0.5970  0.2071 -0.4153
16787TIP3    H171776   6.120   0.680   0.555  1.3423 -1.1198 -0.0655
16787TIP3    H271777   6.159   0.797   0.642 -0.1582 -1.2069  0.7484
16788TIP3   OH271778   5.378   6.411   3.557 -0.3085 -0.4783 -0.1636
16788TIP3    H171779   5.307   6.445   3.611 -0.8858 -2.1219  0.1767
16788TIP3    H271780   5.335   6.370   3.482  0.4019  0.2680 -1.0124
16789TIP3   OH271781   4.652   2.225  17.019 -0.2592 -0.4219 -0.4805
16789TIP3    H171782   4.579   2.249  16.962  0.0452 -1.4646 -1.3551
16789TIP3    H271783   4.655   2.129  17.015 -0.4569 -0.5605  1.6072
16790TIP3   OH271784   0.967   2.366  15.417  0.0143 -0.3931 -0.0239
16790TIP3    H171785   0.997   2.331  15.333  0.4911 -1.2111  0.4780
16790TIP3    H271786   0.876   2.338  15.425  0.4045 -1.5984  0.3961
16791TIP3   OH271787   1.377   0.422  16.312 -0.0738  0.5469 -0.5412
16791TIP3    H171788   1.459   0.398  16.356  1.5219  0.8131 -3.1709
16791TIP3    H271789   1.326   0.341  16.310 -0.6710  0.7397  2.5466
16792TIP3   OH271790   5.873   3.129  15.055  0.0043  0.2152  0.5687
16792TIP3    H171791   5.829   3.057  15.099  0.7270  0.4487  1.7390
16792TIP3    H271792   5.805   3.196  15.045 -0.5308 -0.4051 -0.0227
16793TIP3   OH271793   5.697   4.037   5.684  0.5446 -0.2301  0.7063
16793TIP3    H171794   5.752   4.109   5.715 -0.1305  1.2779 -1.3452
16793TIP3    H271795   5.705   4.040   5.589 -0.7470 -1.8964  0.5016
16794TIP3   OH271796   5.618   2.423  16.523  0.0744  0.0360  0.4006
16794TIP3    H171797   5.609   2.514  16.550 -2.5171 -0.1618  0.4656
16794TIP3    H271798   5.562   2.415  16.445 -1.3226 -1.8942  1.5117
16795TIP3   OH271799   2.237   6.001  16.399  0.0331  0.1454  0.2521
16795TIP3    H171800   2.195   5.923  16.436  1.5282 -0.8806 -0.1234
16795TIP3    H271801   2.226   6.069  16.466 -0.9812 -0.4811  0.7413
16796TIP3   OH271802   1.695   0.945  11.811 -0.2161 -0.0894  0.3319
16796TIP3    H171803   1.786   0.957  11.786  0.1415 -1.1165  1.0606
16796TIP3    H271804   1.648   1.015  11.766  1.0296  0.9263  0.5497
16797TIP3   OH271805   2.730   6.666  16.919  0.4235  0.1391  0.0357
16797TIP3    H171806   2.807   6.675  16.864  1.0987  0.4240  0.9931
16797TIP3    H271807   2.673   6.605  16.872  1.8278 -1.1561 -0.0407
16798TIP3   OH271808   3.090   3.748  16.107 -0.0818 -0.2973  0.1139
16798TIP3    H171809   3.122   3.838  16.103  1.1830 -0.4825  3.3091
16798TIP3    H271810   2.995   3.757  16.107  0.0086  0.9620 -0.4391
16799TIP3   OH271811   4.625   5.669  15.776  0.6225 -0.2615 -0.4107
16799TIP3    H171812   4.705   5.702  15.816  0.6623 -1.6181  0.7045
16799TIP3    H271813   4.555   5.707  15.828  0.4912  1.2164 -1.6108
16800TIP3   OH271814   2.964   6.238   1.903 -0.2764 -0.0153 -0.2889
16800TIP3    H171815   2.897   6.178   1.867 -0.3315  1.3814 -2.7630
16800TIP3    H271816   2.945   6.242   1.996 -0.0096 -4.1395  0.1310
16801TIP3   OH271817   4.818   5.385   5.676 -0.0238 -0.0919 -0.2053
16801TIP3    H171818   4.753   5.386   5.747  1.7298  0.2141  1.5025
16801TIP3    H271819   4.860   5.299   5.683  1.8814  0.8650  0.8587
16802TIP3   OH271820   3.741   6.643   0.720 -0.1899  0.0307 -0.2820
16802TIP3    H171821   3.784   6.631   0.805  0.2584 -1.5504 -0.7047
16802TIP3    H271822   3.685   6.721   0.732 -0.8214 -0.6723  1.7268
16803TIP3   OH271823   4.630   1.267  14.922  0.5456 -0.2793  0.8854
16803TIP3    H171824   4.611   1.174  14.918 -0.9556  0.0089 -2.4319
16803TIP3    H271825   4.701   1.280  14.859 -0.5523  0.9959 -0.1533
16804TIP3   OH271826   0.460   2.016  14.919 -0.1408 -0.6250 -0.5005
16804TIP3    H171827   0.373   2.013  14.958  0.3547 -0.8341  0.6156
16804TIP3    H271828   0.444   2.009  14.825 -1.2273 -2.9777 -0.2236
16805TIP3   OH271829   1.114   5.173  13.334  0.1297 -0.0712 -0.4304
16805TIP3    H171830   1.152   5.119  13.402 -1.3970 -0.6292  0.0021
16805TIP3    H271831   1.118   5.262  13.369  1.5545 -0.0323 -0.6473
16806TIP3   OH271832   2.217   2.196   6.086  0.0000  0.3650 -0.4358
16806TIP3    H171833   2.182   2.129   6.144  0.0191  1.6517  1.1472
16806TIP3    H271834   2.238   2.269   6.144 -1.3997  2.3257 -2.2071
16807TIP3   OH271835   0.249   2.759   0.759 -0.3890  0.2166  0.2890
16807TIP3    H171836   0.209   2.827   0.704 -2.8910 -0.7621  0.8215
16807TIP3    H271837   0.231   2.786   0.848 -0.8991 -0.8418  0.5180
16808TIP3   OH271838   3.803   2.450   3.186  0.5269 -0.7145  0.0217
16808TIP3    H171839   3.779   2.533   3.226 -0.3960 -1.1641  0.4321
16808TIP3    H271840   3.817   2.470   3.094 -0.1911 -0.1998  0.0198
16809TIP3   OH271841   6.282   1.205  13.387 -0.4436  0.0241  0.5471
16809TIP3    H171842   6.295   1.298  13.408 -1.9189  0.3258  0.2370
16809TIP3    H271843   6.321   1.159  13.461 -1.1627  0.9451  1.5322
16810TIP3   OH271844   2.376   5.839   4.409  0.3890  0.2797  0.2254
16810TIP3    H171845   2.305   5.861   4.348 -0.5182 -2.9899 -0.0843
16810TIP3    H271846   2.331   5.810   4.488  1.3691 -1.0096  0.3361
16811TIP3   OH271847   6.632   2.304  15.077 -0.5286 -0.1262 -0.4354
16811TIP3    H171848   6.618   2.210  15.065 -0.7551 -0.0079 -1.1408
16811TIP3    H271849   6.549   2.337  15.112 -0.0730 -0.3660  0.9528
16812TIP3   OH271850   2.137   1.211  13.887  0.3543  0.2170  0.2260
16812TIP3    H171851   2.209   1.250  13.936  0.1885  2.1908 -0.9817
16812TIP3    H271852   2.073   1.282  13.876  0.1986 -0.2022 -2.4148
16813TIP3   OH271853   2.524   4.426   5.416 -0.4884 -0.4716  0.2508
16813TIP3    H171854   2.548   4.357   5.354 -1.3414 -0.2240 -0.3716
16813TIP3    H271855   2.580   4.410   5.492 -0.0938 -1.3547 -0.2073
16814TIP3   OH271856   3.113   3.780  16.906  0.5146 -0.1722  0.3913
16814TIP3    H171857   3.191   3.742  16.865 -0.3338 -1.3974 -0.1587
16814TIP3    H271858   3.047   3.777  16.838 -0.0102  0.8934  0.8426
16815TIP3   OH271859   0.160   6.238   5.439  0.4313 -0.1227  0.0827
16815TIP3    H171860   0.239   6.193   5.471  0.6498 -0.4754 -0.9075
16815TIP3    H271861   0.102   6.167   5.412  0.4297  0.1703 -0.6910
16816TIP3   OH271862   0.141   3.734   5.126 -0.3034 -0.5492  0.1780
16816TIP3    H171863   0.158   3.826   5.108 -0.7980 -0.5956 -0.5778
16816TIP3    H271864   0.107   3.699   5.043  0.9005 -1.6585  0.1015
16817TIP3   OH271865   1.262   4.449  14.785 -0.1087 -0.1124  0.2853
16817TIP3    H171866   1.167   4.461  14.772  0.2208  1.1322 -1.2372
16817TIP3    H271867   1.270   4.424  14.877 -1.9285 -0.3419  0.4288
16818TIP3   OH271868   3.981   1.761  17.024 -0.1499  0.0696 -0.1432
16818TIP3    H171869   3.934   1.680  17.004 -0.9507  0.7085 -0.9257
16818TIP3    H271870   3.915   1.817  17.067  0.2047  0.5421 -0.2066
16819TIP3   OH271871   2.655   2.320  17.109  0.7267 -0.0837  0.0073
16819TIP3    H171872   2.565   2.351  17.100  0.0893 -2.0888 -1.1602
16819TIP3    H271873   2.701   2.391  17.154 -1.2499  1.3001 -0.0536
16820TIP3   OH271874   2.954   0.279  12.454  0.2417 -0.2311  0.7004
16820TIP3    H171875   3.022   0.315  12.511  0.5282 -0.0761  0.2582
16820TIP3    H271876   2.874   0.286  12.506  0.3679  0.6304  0.7922
16821TIP3   OH271877   1.429   0.448  13.646 -0.2337  0.1581  0.4143
16821TIP3    H171878   1.506   0.478  13.597 -0.3734  1.7989  1.1049
16821TIP3    H271879   1.450   0.359  13.673  0.3089 -0.3682 -1.6208
16822TIP3   OH271880   5.519   1.824   2.072  0.8381  0.0293  0.4891
16822TIP3    H171881   5.470   1.848   2.151  1.8355 -1.4973  1.6401
16822TIP3    H271882   5.554   1.907   2.039 -3.1906  1.3716 -0.9990
16823TIP3   OH271883   2.754   3.403  11.628  0.6494  0.3410 -0.2001
16823TIP3    H171884   2.696   3.469  11.589  0.7451 -0.1953 -1.2860
16823TIP3    H271885   2.842   3.440  11.619  1.1226 -1.2320 -3.8560
16824TIP3   OH271886   2.994   4.416  11.381 -0.4385  0.3412  0.1332
16824TIP3    H171887   2.948   4.500  11.374 -0.9213  0.2700  2.0061
16824TIP3    H271888   2.927   4.350  11.364  0.3849  0.2505 -3.6362
16825TIP3   OH271889   0.623   5.492  13.109  0.3162 -0.4808 -0.3287
16825TIP3    H171890   0.567   5.567  13.087 -1.0832 -0.4114  2.8338
16825TIP3    H271891   0.563   5.430  13.152  1.9099 -2.3959 -0.7219
16826TIP3   OH271892   5.372   4.911  12.884  0.0142 -0.4901 -0.5555
16826TIP3    H171893   5.329   4.996  12.882 -1.5547 -1.2268 -0.2327
16826TIP3    H271894   5.425   4.912  12.963 -0.8099 -0.1697  0.0078
16827TIP3   OH271895   4.701   2.351  12.342 -0.2283 -0.3764  0.2735
16827TIP3    H171896   4.738   2.403  12.414 -0.0685 -0.9313  0.5950
16827TIP3    H271897   4.739   2.264  12.354 -0.9527 -0.7234  0.0819
16828TIP3   OH271898   5.320   3.584  11.795 -0.3869 -0.6667 -0.4905
16828TIP3    H171899   5.399   3.531  11.807  0.4359  0.1750 -1.8930
16828TIP3    H271900   5.265   3.530  11.738  1.0230  0.4110 -3.0639
16829TIP3   OH271901   3.890   0.195  16.708  0.6909  0.8269  0.1074
16829TIP3    H171902   3.860   0.136  16.638  3.7174  1.6404 -2.0563
16829TIP3    H271903   3.847   0.278  16.688  0.9391  0.8495 -0.3685
16830TIP3   OH271904   0.211   6.255   4.553 -0.2680  0.0643  0.0420
16830TIP3    H171905   0.129   6.265   4.505  0.6706 -0.6470 -1.8314
16830TIP3    H271906   0.278   6.247   4.485  1.2700 -0.1125  1.5000
16831TIP3   OH271907   6.088   6.670  17.220  0.5894 -0.5538 -0.3198
16831TIP3    H171908   6.003   6.700  17.251  0.8610 -1.0155  0.9161
16831TIP3    H271909   6.152   6.726  17.265  0.9601 -0.4933 -0.9071
16832TIP3   OH271910   3.444   3.355   5.639  0.2842 -0.3665 -0.0146
16832TIP3    H171911   3.422   3.361   5.732 -0.8720  1.4030 -0.3515
16832TIP3    H271912   3.446   3.261   5.621  0.2240 -0.7326  1.7182
16833TIP3   OH271913   6.400   4.642   3.718 -0.1701  0.4365  0.0756
16833TIP3    H171914   6.386   4.672   3.628 -1.0214 -0.2650 -0.0359
16833TIP3    H271915   6.340   4.694   3.771  1.3792  1.9078  0.4659
16834TIP3   OH271916   1.753   1.727  11.989  0.4454 -0.4880  0.3764
16834TIP3    H171917   1.740   1.709  12.082 -0.1503 -1.7390  0.0729
16834TIP3    H271918   1.799   1.811  11.987 -0.7528  0.2441  1.7496
16835TIP3   OH271919   5.971   2.254   4.324 -0.6220 -0.2642 -0.2548
16835TIP3    H171920   5.970   2.274   4.417 -2.4733 -3.3055  0.5210
16835TIP3    H271921   5.885   2.281   4.292 -1.3013 -2.2097 -0.2378
16836TIP3   OH271922   6.772   1.066  15.903 -0.0168 -0.0174  0.0648
16836TIP3    H171923   6.763   1.152  15.861 -1.0664 -0.6820 -1.1293
16836TIP3    H271924   6.728   1.076  15.987 -1.2576  0.2754 -0.5968
16837TIP3   OH271925   6.362   5.720  13.521  0.6896 -0.3059 -0.2625
16837TIP3    H171926   6.302   5.776  13.571  1.3177  0.8539 -0.7914
16837TIP3    H271927   6.378   5.646  13.580 -1.9095 -1.1108 -0.4163
16838TIP3   OH271928   0.464   2.258   2.008 -0.0882 -0.3222 -0.0025
16838TIP3    H171929   0.477   2.213   1.925 -0.7965 -0.8627  0.1743
16838TIP3    H271930   0.482   2.191   2.075 -1.1313 -0.3554  0.2626
16839TIP3   OH271931   4.556   4.856  13.678  0.1118 -0.1768  0.2858
16839TIP3    H171932   4.551   4.788  13.612  0.3592  0.1949 -0.1227
16839TIP3    H271933   4.482   4.840  13.736 -0.2439 -0.3657 -0.2187
16840TIP3   OH271934   5.869   0.710  16.996  0.0345  0.6046  0.5050
16840TIP3    H171935   5.931   0.645  16.963 -0.8192  1.5561 -3.4164
16840TIP3    H271936   5.785   0.685  16.959 -0.1638  4.3048 -2.1591
16841TIP3   OH271937   1.268   0.466   0.638 -0.5947 -0.0879 -0.0763
16841TIP3    H171938   1.338   0.400   0.641 -0.5417 -0.0412 -0.2485
16841TIP3    H271939   1.204   0.429   0.577 -0.9743 -0.3768  0.4876
16842TIP3   OH271940   6.555   4.129  12.178  0.0921  0.9531  0.4756
16842TIP3    H171941   6.641   4.140  12.218  0.8858 -2.3428 -0.0526
16842TIP3    H271942   6.495   4.120  12.253  1.0569 -1.8150  1.0164
16843TIP3   OH271943   1.117   2.292  15.816 -0.8692  0.2378  0.2623
16843TIP3    H171944   1.045   2.354  15.814 -0.2240  0.9840 -1.0772
16843TIP3    H271945   1.103   2.241  15.896 -1.3979  2.1141  1.4131
16844TIP3   OH271946   5.375   0.838   1.407 -0.2485 -0.3723 -0.3248
16844TIP3    H171947   5.371   0.786   1.487  0.2636  0.1027  0.0194
16844TIP3    H271948   5.305   0.902   1.415  1.0946  1.0467  0.7488
16845TIP3   OH271949   4.296   0.584  15.936  0.0064 -0.1860  0.5322
16845TIP3    H171950   4.383   0.625  15.944 -0.6392  0.9114  4.0362
16845TIP3    H271951   4.313   0.498  15.899  2.9009 -0.6421  2.5695
16846TIP3   OH271952   6.068   5.449   0.707  0.0591 -0.2735  0.3015
16846TIP3    H171953   6.090   5.376   0.649  1.4948 -1.0903  1.7885
16846TIP3    H271954   6.000   5.413   0.765 -1.4966  0.5908 -0.9063
16847TIP3   OH271955   1.059   0.374  15.686 -0.1594  0.2405  0.0480
16847TIP3    H171956   1.092   0.445  15.742  3.1054 -1.0561 -0.0018
16847TIP3    H271957   0.977   0.347  15.727 -0.3342  2.4959  1.3633
16848TIP3   OH271958   0.809   5.792  15.056 -0.0433 -0.8110 -0.3370
16848TIP3    H171959   0.877   5.856  15.079 -2.0633  0.7351  1.8261
16848TIP3    H271960   0.818   5.723  15.123  0.1312 -1.2128 -0.7700
16849TIP3   OH271961   1.828   0.010  14.942 -0.1032  0.2498  0.0750
16849TIP3    H171962   1.860   0.061  15.016 -0.0439  0.3523 -0.0205
16849TIP3    H271963   1.752  -0.036  14.976  2.0323 -2.7198  1.3438
16850TIP3   OH271964   1.234   0.755   5.725  0.0011  0.5677  0.0202
16850TIP3    H171965   1.316   0.763   5.775 -0.9960 -0.6775  1.9875
16850TIP3    H271966   1.196   0.843   5.727  0.7388  0.8947  0.0790
16851TIP3   OH271967   0.811   3.244  14.511  0.1658  0.2441  0.0220
16851TIP3    H171968   0.839   3.152  14.504 -1.4038 -0.3794  1.2754
16851TIP3    H271969   0.770   3.262  14.426  1.2187  0.0662 -0.5367
16852TIP3   OH271970   3.732   3.755  14.456  0.1717  0.1849  0.1812
16852TIP3    H171971   3.794   3.687  14.429  0.9134  0.5814  0.8366
16852TIP3    H271972   3.646   3.722  14.430  0.4970 -1.1134  0.7108
16853TIP3   OH271973   3.390   3.901  12.777 -0.4439 -0.4913 -0.4151
16853TIP3    H171974   3.413   3.994  12.783 -2.0898 -0.0055 -1.1754
16853TIP3    H271975   3.398   3.869  12.867  1.6850 -0.0436 -0.3896
16854TIP3   OH271976   5.918   5.157   5.068  0.2098  0.8236  0.1706
16854TIP3    H171977   5.857   5.149   4.994  1.4526 -2.7472 -0.6714
16854TIP3    H271978   5.997   5.194   5.029  1.4105 -2.4886 -0.8258
16855TIP3   OH271979   2.232   3.616   3.293 -0.3620  0.5594  0.3927
16855TIP3    H171980   2.227   3.643   3.385 -0.3743  0.4905  0.4121
16855TIP3    H271981   2.326   3.603   3.277 -0.1894  2.1012 -0.0449
16856TIP3   OH271982   2.128   5.989   1.404 -0.3479 -0.1065 -0.1476
16856TIP3    H171983   2.041   6.028   1.398  1.3355  4.3402  0.6737
16856TIP3    H271984   2.146   5.984   1.498 -1.2221 -5.4754  0.0477
16857TIP3   OH271985   1.345   4.165   3.108  0.1853 -0.3926  0.3563
16857TIP3    H171986   1.339   4.240   3.167  0.1522 -0.8425  0.9337
16857TIP3    H271987   1.297   4.096   3.152 -1.8814 -0.0995 -1.2572
16858TIP3   OH271988   1.026   4.246   1.119  0.4278 -0.4356  0.1036
16858TIP3    H171989   1.118   4.232   1.141  0.0926 -0.9294  1.2548
16858TIP3    H271990   0.989   4.291   1.195  0.4873  3.0634 -1.7303
16859TIP3   OH271991   3.482   3.176  12.521 -0.0165 -0.2731 -0.7645
16859TIP3    H171992   3.532   3.137  12.592  0.3367  0.9401 -0.3278
16859TIP3    H271993   3.434   3.103  12.482 -0.4635 -0.9165  0.9252
16860TIP3   OH271994   0.820   5.625  12.191  0.4370 -0.0693 -0.3312
16860TIP3    H171995   0.911   5.647  12.171  0.5776 -0.5614 -0.2551
16860TIP3    H271996   0.782   5.707  12.222  0.3019  0.6628 -2.2686
16861TIP3   OH271997   5.993   4.476   3.801  0.6510  0.1698 -0.6281
16861TIP3    H171998   5.957   4.501   3.716 -0.2001 -0.9705 -0.6227
16861TIP3    H271999   5.998   4.558   3.850  2.9016  1.1690 -2.3664
16862TIP3   OH272000   4.589   4.829   2.041  0.1128  0.1995  0.1630
16862TIP3    H172001   4.597   4.921   2.017 -1.0250  0.2499 -0.1230
16862TIP3    H272002   4.675   4.804   2.075  1.1418  0.7223 -1.9533
16863TIP3   OH272003   1.761   3.842   4.541 -0.3683  0.2299 -0.0427
16863TIP3    H172004   1.844   3.881   4.514 -1.1522  1.2013 -1.0982
16863TIP3    H272005   1.696   3.875   4.479 -1.1609 -2.5244 -0.8445
16864TIP3   OH272006   1.276   2.210   3.961  0.5980  0.1887  0.0860
16864TIP3    H172007   1.208   2.198   4.027 -0.1350  0.6197 -0.5870
16864TIP3    H272008   1.341   2.266   4.005 -0.3319  1.2617  0.1401
16865TIP3   OH272009   2.276   5.871   5.447  0.2282  0.6863  0.5726
16865TIP3    H172010   2.203   5.930   5.428  0.8784  1.0806 -0.9113
16865TIP3    H272011   2.322   5.862   5.363  1.9203  0.4909  1.4681
16866TIP3   OH272012   5.245   2.764   4.773  0.7616  0.4713  0.2735
16866TIP3    H172013   5.336   2.779   4.799  1.3554 -2.1954  0.0149
16866TIP3    H272014   5.245   2.774   4.677  1.3066 -1.5313  0.0208
16867TIP3   OH272015   1.435   2.032   0.813 -0.0751 -0.1785  0.2757
16867TIP3    H172016   1.470   2.119   0.832 -2.0318  0.3434  1.7872
16867TIP3    H272017   1.511   1.974   0.817  1.1437  1.3326 -0.0133
16868TIP3   OH272018   2.435   2.679  15.851  0.3487 -0.1579 -0.9124
16868TIP3    H172019   2.492   2.748  15.885  1.3483 -0.7902 -1.2496
16868TIP3    H272020   2.386   2.649  15.927  2.2269 -1.2438 -0.0588
16869TIP3   OH272021   1.040   2.246  15.186 -0.0688 -0.3758 -0.0535
16869TIP3    H172022   1.123   2.279  15.149  1.0505 -2.2133  0.6986
16869TIP3    H272023   1.066   2.176  15.245 -2.0605  0.2632  1.7001
16870TIP3   OH272024   2.612   5.560  11.096 -0.3383 -0.3581  0.5450
16870TIP3    H172025   2.610   5.523  11.007  0.7669  1.6351 -0.3635
16870TIP3    H272026   2.636   5.486  11.152 -0.1765 -1.4640 -0.9240
16871TIP3   OH272027   2.725   4.527   4.282 -0.6725  0.5805 -0.3332
16871TIP3    H172028   2.780   4.547   4.206 -0.2052  0.2906 -0.0775
16871TIP3    H272029   2.649   4.483   4.245  0.7420 -1.9872 -0.4551
16872TIP3   OH272030   4.521   0.464  14.085  0.5359  0.7840 -0.0376
16872TIP3    H172031   4.602   0.493  14.125 -0.5988  4.6318 -0.1024
16872TIP3    H272032   4.470   0.545  14.073 -2.7480 -1.2597 -1.2186
16873TIP3   OH272033   4.605   0.971   0.109  0.3965  0.4841 -0.1003
16873TIP3    H172034   4.636   0.889   0.068  1.3675  0.1341  1.2722
16873TIP3    H272035   4.511   0.958   0.121  0.5866 -0.5485  0.3522
16874TIP3   OH272036   6.712   5.152  15.766  0.2104  0.4571 -0.6486
16874TIP3    H172037   6.719   5.057  15.756  1.0823  0.5949 -1.4892
16874TIP3    H272038   6.777   5.187  15.704  0.4745  1.5754  0.2437
16875TIP3   OH272039   2.604   4.629  11.776  0.1547  0.0730 -0.2091
16875TIP3    H172040   2.541   4.698  11.798 -1.1421 -0.3378 -2.3363
16875TIP3    H272041   2.690   4.672  11.780 -0.2773  0.8227  2.0751
16876TIP3   OH272042   0.979   6.558  11.320  0.0446  0.5911 -0.6264
16876TIP3    H172043   0.948   6.546  11.230 -0.6642 -0.0543 -0.3058
16876TIP3    H272044   0.904   6.592  11.367 -0.8062 -2.6548  0.5614
16877TIP3   OH272045   4.030   0.635  14.977 -0.2595  0.0263 -0.3690
16877TIP3    H172046   3.973   0.702  14.939  0.2026  0.7440  0.1784
16877TIP3    H272047   4.015   0.558  14.923 -0.4748  0.6985 -1.3020
16878TIP3   OH272048   4.430   3.720  12.174  0.4800  0.0146 -0.6157
16878TIP3    H172049   4.416   3.783  12.245 -0.2142  0.7700 -1.3990
16878TIP3    H272050   4.525   3.716  12.164  0.5461  0.6955 -0.3328
16879TIP3   OH272051   6.306   5.075   0.936 -0.1391  0.7864 -0.3183
16879TIP3    H172052   6.399   5.094   0.953 -0.2279 -0.2172  1.6236
16879TIP3    H272053   6.294   5.093   0.843  1.9794  1.0360 -0.5908
16880TIP3   OH272054   4.203   1.645   0.673 -0.0838  0.1725 -0.0025
16880TIP3    H172055   4.226   1.698   0.596 -0.9908  0.1325 -0.3077
16880TIP3    H272056   4.238   1.695   0.747 -1.2597  1.4383 -0.2523
16881TIP3   OH272057   0.343   0.198   2.567 -0.1263 -0.3006 -0.1326
16881TIP3    H172058   0.343   0.264   2.498 -1.8698  0.4551  0.5343
16881TIP3    H272059   0.376   0.119   2.525  0.7502  0.6507 -1.2885
16882TIP3   OH272060   0.185   5.457   3.842  0.8005  0.2641  0.1066
16882TIP3    H172061   0.230   5.540   3.831  1.8536 -0.3643 -0.4773
16882TIP3    H272062   0.129   5.450   3.764  0.2138  0.7025  0.4731
16883TIP3   OH272063   1.297   6.101   2.570  0.2461  0.4244 -0.1892
16883TIP3    H172064   1.230   6.060   2.517 -0.6508  1.0898  0.3837
16883TIP3    H272065   1.248   6.149   2.637  1.3218 -0.7284  1.5112
16884TIP3   OH272066   4.447   5.028  14.277  0.0027 -0.5340 -0.1918
16884TIP3    H172067   4.366   5.057  14.319  0.3525  0.1006  0.0657
16884TIP3    H272068   4.418   4.981  14.199 -0.6128  0.3830 -0.5401
16885TIP3   OH272069   0.392   5.687  13.053 -0.8422  0.0076  0.9644
16885TIP3    H172070   0.385   5.773  13.094 -1.3743 -0.7881  2.6271
16885TIP3    H272071   0.301   5.658  13.043 -0.7274  0.1565 -0.7886
16886TIP3   OH272072   4.204   4.376  15.084  0.3847  0.3001 -0.3301
16886TIP3    H172073   4.155   4.375  15.166  0.8601 -1.5837 -0.0290
16886TIP3    H272074   4.158   4.440  15.030  0.0188  1.5399  1.3503
16887TIP3   OH272075   6.069   4.315   2.772 -0.6337 -0.2354  0.3550
16887TIP3    H172076   6.163   4.312   2.756 -0.7082  0.2344 -0.2111
16887TIP3    H272077   6.039   4.225   2.758 -0.3598 -0.2640 -0.0748
16888TIP3   OH272078   5.620   5.403  15.047 -0.0542 -0.9536 -0.1541
16888TIP3    H172079   5.527   5.384  15.034 -0.6540  1.1442  0.7290
16888TIP3    H272080   5.622   5.486  15.095  2.2848 -0.0946 -1.5298
16889TIP3   OH272081   3.117   6.793   1.722 -0.4602 -0.0684 -0.1899
16889TIP3    H172082   3.027   6.824   1.737 -1.2529 -0.9861 -2.6557
16889TIP3    H272083   3.118   6.705   1.758 -0.3529  0.1525  0.3610
16890TIP3   OH272084   5.844   0.057  16.905 -0.6163 -0.0653  0.2669
16890TIP3    H172085   5.860   0.145  16.872  2.6035 -0.3294  0.7614
16890TIP3    H272086   5.852   0.065  17.000 -0.9293 -0.7886  0.3626
16891TIP3   OH272087   3.734   0.397  13.346 -0.6012  0.0541 -0.0500
16891TIP3    H172088   3.816   0.415  13.300 -0.9606  1.4295 -0.1983
16891TIP3    H272089   3.744   0.438  13.432 -1.2484  0.5213 -0.1866
16892TIP3   OH272090   5.067   0.309   5.567  0.4219  0.3317 -0.3514
16892TIP3    H172091   5.112   0.233   5.530  0.2739  0.0133  0.1000
16892TIP3    H272092   4.977   0.279   5.580  0.4080  0.5242  0.0029
16893TIP3   OH272093   5.317   0.361  15.314  0.5343 -0.7262  0.4303
16893TIP3    H172094   5.235   0.325  15.282 -0.0518 -0.1751  1.2553
16893TIP3    H272095   5.376   0.359  15.238 -1.2719  2.0596 -1.2114
16894TIP3   OH272096   4.197   1.972  12.793  0.0190  0.4427  0.3206
16894TIP3    H172097   4.288   1.997  12.773 -0.3754  1.0193 -0.8548
16894TIP3    H272098   4.171   1.916  12.720 -1.4374  2.5061 -0.8428
16895TIP3   OH272099   5.924   6.318  12.585 -0.0757 -0.3829  0.0347
16895TIP3    H172100   5.926   6.300  12.491 -1.9364 -0.5384 -0.0032
16895TIP3    H272101   5.850   6.267  12.618 -0.4247  0.8887  1.3219
16896TIP3   OH272102   1.802   3.897   0.681  0.3589  0.3719  0.2648
16896TIP3    H172103   1.725   3.879   0.628 -0.2394  0.6356  1.0307
16896TIP3    H272104   1.873   3.851   0.636 -0.3125 -0.2031 -0.2327
16897TIP3   OH272105   3.804   5.226  13.186 -0.2115  0.0435  0.0900
16897TIP3    H172106   3.863   5.160  13.150  0.5017  0.6984  0.0346
16897TIP3    H272107   3.743   5.244  13.114 -1.0022 -1.2234  0.4200
16898TIP3   OH272108   1.885   1.541   6.187 -0.1374 -0.4471  0.0027
16898TIP3    H172109   1.920   1.630   6.194 -0.4695 -0.3136 -0.0295
16898TIP3    H272110   1.867   1.514   6.277  0.8596 -0.8477  0.0981
16899TIP3   OH272111   6.370   1.652  14.830  0.6835  0.3880  0.1952
16899TIP3    H172112   6.283   1.633  14.866  0.1064  0.6671 -1.0218
16899TIP3    H272113   6.427   1.654  14.907 -0.2904 -0.2981  0.9671
16900TIP3   OH272114   2.006   0.615  12.406  0.0541  0.3637  0.0632
16900TIP3    H172115   1.945   0.687  12.387 -0.3674  0.2143  0.8094
16900TIP3    H272116   2.041   0.591  12.321  0.5946  1.7876 -0.1527
16901TIP3   OH272117   2.864   2.768  12.755 -0.2887  0.4408 -1.0707
16901TIP3    H172118   2.941   2.720  12.786  0.0914  1.0804 -0.9966
16901TIP3    H272119   2.847   2.732  12.668 -0.1037  0.0708 -0.9565
16902TIP3   OH272120   6.458   1.970   2.278  0.6787  0.0037 -0.1396
16902TIP3    H172121   6.511   1.891   2.289  0.9877  0.3584  1.0583
16902TIP3    H272122   6.505   2.038   2.326 -0.1111  0.6766 -0.2926
16903TIP3   OH272123   1.418   3.849   3.640  0.1460  0.0037 -0.0192
16903TIP3    H172124   1.356   3.779   3.621  0.6816 -0.6641  0.6392
16903TIP3    H272125   1.504   3.809   3.626  0.4684  0.3848  0.8408
16904TIP3   OH272126   2.030   4.384  15.670  0.2371  0.1378 -0.4227
16904TIP3    H172127   2.108   4.338  15.701 -1.6729 -1.4640  2.4762
16904TIP3    H272128   1.957   4.331  15.702 -2.1004  3.0203 -0.5541
16905TIP3   OH272129   6.605   2.449  16.604 -0.5150 -0.0883  0.1598
16905TIP3    H172130   6.645   2.521  16.556  1.0923 -0.0032  1.5144
16905TIP3    H272131   6.586   2.484  16.691 -2.2446 -0.5657  0.0179
16906TIP3   OH272132   3.167   2.536  14.764 -0.4643 -0.1787  0.0649
16906TIP3    H172133   3.075   2.561  14.764 -0.0112  1.6512 -0.0297
16906TIP3    H272134   3.178   2.486  14.845 -1.4004  0.1558  0.4116
16907TIP3   OH272135   1.892   6.159   3.504  0.2192  0.4102  0.0854
16907TIP3    H172136   1.840   6.100   3.450  0.0612 -0.4970  1.1743
16907TIP3    H272137   1.837   6.175   3.581  1.6430 -0.8662  1.4337
16908TIP3   OH272138   6.655   4.801  16.202  0.3434 -0.4003  0.3157
16908TIP3    H172139   6.648   4.747  16.123  1.3358  0.0356 -0.0791
16908TIP3    H272140   6.675   4.889  16.170  0.6123 -0.1894  1.0421
16909TIP3   OH272141   1.559   6.493   2.304 -0.1836 -0.5328  0.2700
16909TIP3    H172142   1.573   6.474   2.211 -1.0071  1.1750 -0.2403
16909TIP3    H272143   1.641   6.469   2.346  1.5245  1.8620 -1.4404
16910TIP3   OH272144   5.523   2.886  15.555  0.4721  0.0604 -0.0228
16910TIP3    H172145   5.592   2.833  15.516 -0.3544 -0.4326 -0.8571
16910TIP3    H272146   5.568   2.963  15.589  1.2303  0.6300 -2.1611
16911TIP3   OH272147   1.688   2.066   1.644 -0.2240 -0.0525  0.5403
16911TIP3    H172148   1.752   1.997   1.628 -0.2100  0.0066  0.3359
16911TIP3    H272149   1.627   2.059   1.570 -0.5918 -0.2676  0.8608
16912TIP3   OH272150   5.569   4.980   5.582  0.2265 -0.1683 -0.1966
16912TIP3    H172151   5.477   4.966   5.606  0.4874 -1.4757  0.1004
16912TIP3    H272152   5.617   4.974   5.664  0.5928  0.5244 -0.3503
16913TIP3   OH272153   1.972   6.524   2.163 -1.2191 -0.0507  0.2019
16913TIP3    H172154   1.973   6.444   2.216 -2.8635  0.4679  1.0885
16913TIP3    H272155   1.927   6.498   2.082  0.7844 -0.6953 -0.7808
16914TIP3   OH272156   2.056   1.189  12.251 -0.4702 -0.0473  0.4899
16914TIP3    H172157   1.986   1.140  12.209 -1.5098  1.3342  0.5553
16914TIP3    H272158   2.109   1.222  12.179  1.5919 -3.0193  0.4540
16915TIP3   OH272159   1.289   1.978  14.119  0.0707 -0.3216  0.0919
16915TIP3    H172160   1.274   2.070  14.099  0.4013 -0.1880  0.4386
16915TIP3    H272161   1.224   1.958  14.187 -0.4444 -0.5262 -0.4599
16916TIP3   OH272162   2.486   5.249  14.886  0.0796  0.0551  0.4983
16916TIP3    H172163   2.402   5.205  14.902 -0.1657 -0.2511 -1.4135
16916TIP3    H272164   2.545   5.179  14.859  0.0015  0.6912 -1.4491
16917TIP3   OH272165   5.654   6.431   4.556  0.3299 -0.5598 -0.2004
16917TIP3    H172166   5.659   6.523   4.530 -1.0824 -0.7152 -1.1210
16917TIP3    H272167   5.721   6.388   4.503  1.3132 -0.0187  0.5634
16918TIP3   OH272168   6.321   4.903   4.972 -0.3098 -0.2982 -0.1079
16918TIP3    H172169   6.263   4.843   5.018  1.3769 -1.8486  0.1403
16918TIP3    H272170   6.263   4.963   4.927 -2.0840 -1.6088  0.3129
16919TIP3   OH272171   1.600   3.004   6.158 -0.3386 -0.4522  0.0536
16919TIP3    H172172   1.559   2.988   6.073  0.8840  0.4863 -0.7526
16919TIP3    H272173   1.651   2.925   6.176 -0.4746 -0.5876 -0.1588
16920TIP3   OH272174   3.912   3.953   2.528  0.1247 -0.0676  0.7764
16920TIP3    H172175   3.929   3.861   2.509  1.3497  0.4692 -0.9649
16920TIP3    H272176   3.994   3.997   2.509 -0.4478  1.4027  1.5487
16921TIP3   OH272177   0.798   6.667  11.521  0.2850  0.1751  0.0133
16921TIP3    H172178   0.788   6.620  11.604  2.3414  1.9237  1.3535
16921TIP3    H272179   0.720   6.723  11.516 -1.4897 -2.2057 -0.9312
16922TIP3   OH272180   1.958   6.719  14.023  0.2885  0.6939  0.0085
16922TIP3    H172181   1.866   6.742  14.037  0.5590  1.3977  0.7091
16922TIP3    H272182   2.002   6.746  14.104  1.1891  0.8165 -0.5075
16923TIP3   OH272183   0.470   4.333  11.491  0.1507 -0.0665 -0.5529
16923TIP3    H172184   0.426   4.349  11.574 -1.2078 -0.6790 -1.1227
16923TIP3    H272185   0.535   4.265  11.510  0.3569  0.3219  0.1526
16924TIP3   OH272186   2.634   6.439   5.034  0.0145  0.1718  0.2194
16924TIP3    H172187   2.586   6.442   5.117 -0.9962 -2.1438 -0.1802
16924TIP3    H272188   2.689   6.361   5.041  1.4214  1.0585 -0.5501
16925TIP3   OH272189   2.752   3.102  13.938  0.0025  0.2741  0.0238
16925TIP3    H172190   2.673   3.076  13.891  0.2287  0.1209 -0.2787
16925TIP3    H272191   2.764   3.194  13.915 -0.0934  0.3011  0.0807
16926TIP3   OH272192   3.315   3.709   3.929 -0.3830 -0.3884  0.1765
16926TIP3    H172193   3.266   3.630   3.905 -1.6860  0.6400 -0.7360
16926TIP3    H272194   3.395   3.677   3.970 -0.6358 -2.1848 -0.6462
16927TIP3   OH272195   2.823   5.646   3.548 -0.1252  0.3567 -0.1045
16927TIP3    H172196   2.789   5.663   3.461 -0.7117 -1.1855 -0.2006
16927TIP3    H272197   2.759   5.684   3.608 -1.1308 -0.9465 -0.3193
16928TIP3   OH272198   0.864   3.995   4.660 -0.0988 -0.3212 -0.2311
16928TIP3    H172199   0.799   3.986   4.729  0.4625 -0.0701  0.3374
16928TIP3    H272200   0.900   3.907   4.649 -0.1050 -0.3361 -0.1271
16929TIP3   OH272201   2.842   2.039  12.240 -0.7636  0.3909  0.0842
16929TIP3    H172202   2.900   2.107  12.272 -1.3579  0.7149  0.5044
16929TIP3    H272203   2.849   1.969  12.306  0.3606 -0.2548 -0.6955
16930TIP3   OH272204   4.329   4.823  13.291 -0.1930  0.2634  0.1423
16930TIP3    H172205   4.299   4.753  13.233  0.5140  0.3986 -0.3931
16930TIP3    H272206   4.415   4.847  13.257  0.2560  0.3095  1.2884
16931TIP3   OH272207   4.803   3.670   6.218  0.1058 -0.4792 -0.4546
16931TIP3    H172208   4.843   3.621   6.146  0.7325 -1.0215  0.2378
16931TIP3    H272209   4.736   3.612   6.252 -0.5980  0.0192 -0.9662
16932TIP3   OH272210   2.601   1.236  14.958 -0.2763 -0.2477 -0.1300
16932TIP3    H172211   2.651   1.223  15.038 -1.5092 -0.3350  0.6654
16932TIP3    H272212   2.616   1.156  14.907  0.9994  0.0732 -0.2778
16933TIP3   OH272213   0.579   3.277  16.435 -0.0404 -0.7413  0.1256
16933TIP3    H172214   0.585   3.181  16.428  1.6350 -0.6249 -0.3257
16933TIP3    H272215   0.535   3.291  16.519 -1.4466 -1.9064 -0.3736
16934TIP3   OH272216   0.813   1.071  16.699 -0.3697 -0.6258  0.0351
16934TIP3    H172217   0.783   0.983  16.675 -1.4749 -0.5081  0.9252
16934TIP3    H272218   0.756   1.097  16.771  0.2125  0.6665  0.0505
16935TIP3   OH272219   1.993   5.409  12.479 -0.9059  0.1058  0.6982
16935TIP3    H172220   2.064   5.399  12.415 -0.9576 -1.4614  0.8673
16935TIP3    H272221   1.945   5.327  12.475 -2.6624  1.0785  0.6871
16936TIP3   OH272222   6.804   4.402  14.665 -0.7011 -0.0850  0.1749
16936TIP3    H172223   6.878   4.443  14.621 -1.7595  1.2990 -0.3733
16936TIP3    H272224   6.783   4.462  14.737  0.1886 -1.6623  1.8435
16937TIP3   OH272225   4.968   4.881  16.602  0.1060 -0.0076  0.7155
16937TIP3    H172226   5.005   4.898  16.688 -0.3952 -1.9530  1.3764
16937TIP3    H272227   4.926   4.963  16.577  2.1313  1.2851  1.3138
16938TIP3   OH272228   3.219   6.812  15.599  0.8687  0.0898 -0.0413
16938TIP3    H172229   3.279   6.850  15.663 -2.1089  2.1007  1.7465
16938TIP3    H272230   3.181   6.887  15.554  0.2569 -1.1665 -1.7328
16939TIP3   OH272231   1.759   0.133  14.255  0.5749 -0.2375 -0.1356
16939TIP3    H172232   1.786   0.191  14.185  1.4181  1.9430  1.8567
16939TIP3    H272233   1.713   0.190  14.317  1.0075 -1.7793  1.6900
16940TIP3   OH272234   1.930   4.176  14.624 -0.2023 -0.4696  0.0858
16940TIP3    H172235   1.930   4.159  14.718  1.5342 -2.5496 -0.2115
16940TIP3    H272236   2.001   4.239  14.611 -1.1487  0.6560  0.2590
16941TIP3   OH272237   2.294   2.205   2.661 -0.3345  0.0830 -0.3468
16941TIP3    H172238   2.245   2.235   2.585  1.6316 -0.5120 -1.9436
16941TIP3    H272239   2.244   2.131   2.695 -0.6822 -0.3683 -1.7773
16942TIP3   OH272240   6.778   3.214  16.509 -0.2012 -0.1124  0.0193
16942TIP3    H172241   6.835   3.138  16.523  1.2036  0.8502 -0.2754
16942TIP3    H272242   6.834   3.289  16.526 -1.5424  0.8865  0.2273
16943TIP3   OH272243   5.861   2.373   5.797  0.3990  0.2652  0.0952
16943TIP3    H172244   5.800   2.323   5.743 -1.6994  0.9464  1.6868
16943TIP3    H272245   5.857   2.331   5.883  0.9053  1.3335  0.6644
16944TIP3   OH272246   3.872   1.518  14.576  0.6039 -0.3584 -0.4318
16944TIP3    H172247   3.796   1.473  14.536  1.6724 -1.4257 -1.3564
16944TIP3    H272248   3.945   1.458  14.560  1.6619  0.6953  0.3663
16945TIP3   OH272249   2.349   5.280  17.021 -0.2830 -0.4307 -0.0687
16945TIP3    H172250   2.308   5.242  16.943 -2.5682  0.7095  0.4648
16945TIP3    H272251   2.287   5.259  17.091  1.8147 -1.5969  1.5204
16946TIP3   OH272252   1.332   6.482   1.035  1.1579  0.5531 -0.4592
16946TIP3    H172253   1.326   6.536   0.956  0.4568  0.3285 -0.5617
16946TIP3    H272254   1.321   6.544   1.107  1.1126  0.6570 -0.5548
16947TIP3   OH272255   4.887   4.239  16.966 -0.3589  0.3045 -0.3013
16947TIP3    H172256   4.958   4.304  16.961 -0.1117  0.0147 -0.6095
16947TIP3    H272257   4.828   4.274  17.032  1.0123 -0.3609  1.3560
16948TIP3   OH272258   5.850   1.488   0.418  0.2980  0.1467  0.5532
16948TIP3    H172259   5.811   1.433   0.488  2.0924 -2.8437 -0.6008
16948TIP3    H272260   5.939   1.503   0.447  0.8871 -0.6365 -0.7610
16949TIP3   OH272261   5.000   6.174  12.722 -0.0992  0.2155 -0.2363
16949TIP3    H172262   5.090   6.190  12.693  0.0724  0.4664  0.4239
16949TIP3    H272263   4.946   6.225  12.661  0.3667  2.3803  1.0730
16950TIP3   OH272264   4.283   3.304  11.462  0.6627 -0.3139 -0.4760
16950TIP3    H172265   4.303   3.396  11.479 -1.6163  0.2715 -0.7121
16950TIP3    H272266   4.269   3.300  11.367 -0.1907 -0.6890 -0.3376
16951TIP3   OH272267   5.964   3.277  13.977  0.0575  0.0880  0.8482
16951TIP3    H172268   5.875   3.295  14.007 -0.2303  1.1359 -0.5257
16951TIP3    H272269   5.962   3.294  13.883  1.0888 -2.3916  0.2977
16952TIP3   OH272270   2.526   1.449  15.139 -0.3039 -0.0218  0.2199
16952TIP3    H172271   2.511   1.380  15.074  0.3191 -0.7190  0.7975
16952TIP3    H272272   2.534   1.529  15.088 -0.1588 -0.5139 -0.5408
16953TIP3   OH272273   3.538   3.687   0.460 -0.1712  0.0387 -0.1090
16953TIP3    H172274   3.486   3.656   0.386  1.6347 -0.3330 -1.2959
16953TIP3    H272275   3.535   3.616   0.524  1.7775 -1.6256 -1.7073
16954TIP3   OH272276   0.422   2.587   2.966  0.1047 -0.2967  0.0744
16954TIP3    H172277   0.426   2.510   3.023  1.0854 -0.1652  0.1996
16954TIP3    H272278   0.361   2.646   3.011  2.0132  0.4574  1.8560
16955TIP3   OH272279   3.301   2.684  13.797  0.4133 -0.3811  1.2625
16955TIP3    H172280   3.362   2.621  13.836 -0.6554 -1.9746  0.4546
16955TIP3    H272281   3.232   2.694  13.863 -0.4499 -1.6497  0.5779
16956TIP3   OH272282   5.507   5.894   0.902  0.0200  0.1647  0.8258
16956TIP3    H172283   5.537   5.961   0.841 -0.7703  0.0410  0.2846
16956TIP3    H272284   5.576   5.828   0.901 -0.4617 -0.3634 -0.7907
16957TIP3   OH272285   1.102   1.070   5.165  0.1238  0.1159  0.0770
16957TIP3    H172286   1.130   1.028   5.083  0.1045  0.4304 -0.0912
16957TIP3    H272287   1.011   1.043   5.175 -0.3497  1.3107 -0.8063
16958TIP3   OH272288   1.063   3.055  12.396  0.0161 -0.0126  0.2499
16958TIP3    H172289   1.106   2.969  12.401  0.7318  0.3809  0.9891
16958TIP3    H272290   0.987   3.040  12.339  0.0780 -1.1603  0.4453
16959TIP3   OH272291   2.342   3.256   5.743 -0.3785  0.1933 -0.0946
16959TIP3    H172292   2.331   3.295   5.830 -1.5656 -0.5408  0.0984
16959TIP3    H272293   2.418   3.302   5.706  0.4889  0.1470  1.5288
16960TIP3   OH272294   4.350   6.290   2.867 -0.0061  0.5581  0.6945
16960TIP3    H172295   4.374   6.380   2.845  0.8270  0.0727 -0.4527
16960TIP3    H272296   4.422   6.257   2.919  0.2317  0.2060  0.1581
16961TIP3   OH272297   2.838   4.867  11.284 -0.8807  0.4094 -0.2514
16961TIP3    H172298   2.892   4.790  11.299  0.0815  0.6307 -2.2468
16961TIP3    H272299   2.757   4.833  11.247 -0.2788  0.3367 -1.5656
16962TIP3   OH272300   1.417   4.221   0.367 -0.3684 -0.2418  0.5501
16962TIP3    H172301   1.474   4.279   0.316 -3.3334  0.5984 -2.1008
16962TIP3    H272302   1.427   4.252   0.457  0.8345  2.0361 -0.2793
16963TIP3   OH272303   6.536   0.085   3.925 -0.2762  0.4603 -0.3653
16963TIP3    H172304   6.458   0.077   3.979  0.6249 -0.1993  0.8885
16963TIP3    H272305   6.607   0.050   3.979  0.8158  0.5937 -1.6438
16964TIP3   OH272306   4.227   5.003   2.122 -0.3934 -0.3526  0.2214
16964TIP3    H172307   4.191   5.080   2.079 -0.0340 -0.7850 -0.9100
16964TIP3    H272308   4.156   4.939   2.118 -0.2465 -0.5035 -0.0616
16965TIP3   OH272309   4.661   1.356  16.025  0.3703  0.4840 -0.1727
16965TIP3    H172310   4.623   1.347  15.937  0.7740 -0.6965 -0.2457
16965TIP3    H272311   4.599   1.311  16.083  1.1083 -0.5453 -0.1536
16966TIP3   OH272312   6.268   1.832   2.905 -0.1223  0.3421  0.4786
16966TIP3    H172313   6.315   1.751   2.923  1.2223  0.8506 -0.6013
16966TIP3    H272314   6.183   1.803   2.872  0.1515 -0.6246  0.6049
16967TIP3   OH272315   4.733   2.668  13.003 -0.9232  0.0653  0.2664
16967TIP3    H172316   4.819   2.707  13.016 -0.3800 -1.0582  0.1315
16967TIP3    H272317   4.687   2.683  13.086 -0.2300 -0.2328  0.7157
16968TIP3   OH272318   2.187   4.497  12.535  0.9932 -0.4718 -0.1295
16968TIP3    H172319   2.184   4.586  12.570  0.5351  0.4566 -2.3656
16968TIP3    H272320   2.203   4.508  12.441 -1.2352 -2.6326 -0.8747
16969TIP3   OH272321   4.074   4.639   4.565 -0.3163  0.0090  0.0246
16969TIP3    H172322   4.069   4.717   4.620 -1.7075  0.0978 -0.1934
16969TIP3    H272323   4.037   4.569   4.619  1.0089 -0.5343  0.2527
16970TIP3   OH272324   3.190   1.428   0.403 -0.2985  0.0270  0.1509
16970TIP3    H172325   3.146   1.497   0.453  0.9233  0.5865  0.5009
16970TIP3    H272326   3.134   1.351   0.415 -1.4954  0.8527  0.0517
16971TIP3   OH272327   4.503   5.577   6.268 -0.1478 -0.0771  0.2381
16971TIP3    H172328   4.563   5.601   6.338 -1.2203 -0.2084  1.2524
16971TIP3    H272329   4.519   5.483   6.254  1.0058  0.2366 -0.6625
16972TIP3   OH272330   1.951   3.216   2.838 -0.0306  0.0226  0.4921
16972TIP3    H172331   1.866   3.203   2.879 -0.4785 -0.0933 -0.4427
16972TIP3    H272332   1.945   3.300   2.794  0.8389  0.6874  1.5885
16973TIP3   OH272333   4.624   3.587  16.055 -0.4346  0.3602 -0.2963
16973TIP3    H172334   4.576   3.670  16.053 -1.6468 -0.3195 -0.8591
16973TIP3    H272335   4.702   3.605  16.107 -1.0816  1.6387  0.2669
16974TIP3   OH272336   0.383   0.702  11.911  0.0480  0.6183 -0.2440
16974TIP3    H172337   0.403   0.794  11.928 -0.5158  0.4341  1.6067
16974TIP3    H272338   0.360   0.666  11.996 -0.2183 -1.1369 -1.0116
16975TIP3   OH272339   0.024   5.906  11.056 -0.2238  0.3253 -0.0221
16975TIP3    H172340  -0.025   5.932  10.978 -0.5132  0.6198  0.2558
16975TIP3    H272341   0.035   5.811  11.047 -1.6474  0.1092  0.3625
16976TIP3   OH272342   5.376   0.429   5.618 -0.4413  0.1310 -0.0967
16976TIP3    H172343   5.435   0.372   5.569 -0.6198 -0.8218  0.7721
16976TIP3    H272344   5.322   0.471   5.550 -0.0498 -0.4347 -0.7713
16977TIP3   OH272345   4.373   1.366  16.175  0.1926  0.3275 -0.7170
16977TIP3    H172346   4.457   1.342  16.215  0.3563 -1.6987 -2.1439
16977TIP3    H272347   4.357   1.455  16.206  1.6181 -0.1336  1.6051
16978TIP3   OH272348   0.894   0.099  12.198  0.4485 -0.0844 -1.0773
16978TIP3    H172349   0.871   0.079  12.289 -1.0073 -0.2389 -1.4524
16978TIP3    H272350   0.925   0.190  12.201 -0.6188  0.2911 -0.5654
16979TIP3   OH272351   1.409   4.189   2.229  0.3074 -0.0311 -0.2692
16979TIP3    H172352   1.407   4.121   2.161  1.0327 -0.9010  0.5474
16979TIP3    H272353   1.489   4.170   2.279 -0.8534 -0.2237  1.6205
16980TIP3   OH272354   1.902   2.279  14.592 -0.6088 -0.1786 -0.5485
16980TIP3    H172355   1.847   2.242  14.522  0.3386  0.3498 -1.6014
16980TIP3    H272356   1.975   2.217  14.600 -0.4154  0.0637 -0.4380
16981TIP3   OH272357   2.118   3.592   0.920 -0.7057 -0.6275  0.1787
16981TIP3    H172358   2.124   3.620   0.828  0.7433 -0.9314  0.1523
16981TIP3    H272359   2.040   3.537   0.923 -2.0033  1.0781 -0.3821
16982TIP3   OH272360   4.264   4.133  12.754  0.2484 -0.0179 -0.2900
16982TIP3    H172361   4.298   4.199  12.694  0.5894 -0.2820 -0.3877
16982TIP3    H272362   4.176   4.114  12.722  0.6938 -0.6940 -1.1531
16983TIP3   OH272363   2.867   3.834   5.705 -0.5481  1.0358 -0.0078
16983TIP3    H172364   2.853   3.824   5.611 -1.1973  0.7577  0.1139
16983TIP3    H272365   2.944   3.780   5.724  0.7588  2.5666 -0.6854
16984TIP3   OH272366   0.404   4.514   3.114 -0.1762  0.9878  0.0696
16984TIP3    H172367   0.396   4.429   3.157 -0.4996  0.4691 -0.9855
16984TIP3    H272368   0.436   4.495   3.027 -0.0362  1.9751 -0.1147
16985TIP3   OH272369   3.783   0.862   5.910 -0.0760 -0.1819  0.8061
16985TIP3    H172370   3.820   0.785   5.954 -0.8409 -0.6808  0.5963
16985TIP3    H272371   3.757   0.920   5.981  1.2740  0.2809  0.9599
16986TIP3   OH272372   3.523   2.893  14.631 -0.5103 -0.4478 -0.1582
16986TIP3    H172373   3.616   2.902  14.650 -1.2923  1.4602  3.5186
16986TIP3    H272374   3.506   2.799  14.639  0.7585 -0.6003  1.0902
16987TIP3   OH272375   2.438   0.693  13.608 -1.0957 -0.4775 -0.4490
16987TIP3    H172376   2.466   0.735  13.689 -0.5162 -1.7338  0.0152
16987TIP3    H272377   2.416   0.766  13.550  1.0183  0.5193 -0.0671
16988TIP3   OH272378   5.224   1.308   2.857 -0.0017 -0.0567 -0.5843
16988TIP3    H172379   5.130   1.324   2.857  0.0959  0.6400 -1.9372
16988TIP3    H272380   5.234   1.230   2.912 -1.4445 -0.5642 -0.9820
16989TIP3   OH272381   5.218   3.251  11.956  0.1493 -0.2182  0.0991
16989TIP3    H172382   5.302   3.273  11.995 -0.3542  0.2363  0.9842
16989TIP3    H272383   5.239   3.201  11.878  1.2618  0.7928 -0.2706
16990TIP3   OH272384   4.325   4.997  10.744  0.0432 -0.0714 -0.2718
16990TIP3    H172385   4.382   5.028  10.815 -0.3392 -0.8098  0.3661
16990TIP3    H272386   4.349   4.905  10.733 -1.7168 -0.7031  0.7246
16991TIP3   OH272387   5.416   5.176  13.837 -0.1397  0.1737  0.1078
16991TIP3    H172388   5.374   5.262  13.835  2.8437  1.7684 -2.5721
16991TIP3    H272389   5.350   5.116  13.802 -0.4330  2.5662 -4.0629
16992TIP3   OH272390   2.568   3.356   4.402  0.2562  0.1472 -0.0835
16992TIP3    H172391   2.628   3.343   4.475 -0.0070 -0.0559  0.1022
16992TIP3    H272392   2.562   3.451   4.393  0.4270  0.1720  0.0458
16993TIP3   OH272393   5.213   0.797  14.385  1.0585  0.3937  0.2476
16993TIP3    H172394   5.193   0.888  14.365  0.8406  0.4734  0.8073
16993TIP3    H272395   5.226   0.795  14.480 -0.5732 -0.4460  0.5055
16994TIP3   OH272396   5.790   1.297  11.650 -0.2779 -0.3167  0.5007
16994TIP3    H172397   5.886   1.296  11.644 -0.2459  0.0039  0.9247
16994TIP3    H272398   5.760   1.293  11.559  0.1455  0.2533  0.3361
16995TIP3   OH272399   6.054   3.307   1.132  0.2794  0.1669 -0.0565
16995TIP3    H172400   6.103   3.263   1.062  1.2001  1.6090 -0.3638
16995TIP3    H272401   6.107   3.294   1.210 -0.4375 -0.9045  0.2815
16996TIP3   OH272402   3.697   0.293   2.629 -0.8534  0.0350  0.0970
16996TIP3    H172403   3.615   0.293   2.579 -1.0389  0.9967  0.3820
16996TIP3    H272404   3.765   0.279   2.564 -1.2052 -0.1852 -0.2248
16997TIP3   OH272405   0.899   0.410   2.068  0.6075  0.1329  0.2597
16997TIP3    H172406   0.843   0.333   2.065  1.7699 -0.7187 -1.0102
16997TIP3    H272407   0.842   0.481   2.097 -0.2782 -1.3626  2.3640
16998TIP3   OH272408   1.794   4.425   5.662 -0.1767 -0.5325  0.1974
16998TIP3    H172409   1.771   4.518   5.658  0.8811 -0.2998 -1.7708
16998TIP3    H272410   1.889   4.424   5.659 -0.1645 -1.6747  0.5884
16999TIP3   OH272411   2.490   3.489   6.269 -0.9005  0.2977 -0.1529
16999TIP3    H172412   2.497   3.491   6.364 -0.4595  1.1989 -0.1926
16999TIP3    H272413   2.431   3.416   6.250 -0.6565 -0.1501  0.7883
17000TIP3   OH272414   4.225   3.555  15.216 -0.2044 -0.0845  0.0759
17000TIP3    H172415   4.184   3.581  15.134  1.8339  0.9909 -0.6809
17000TIP3    H272416   4.235   3.636  15.266  0.6108 -0.3665  0.3991
17001TIP3   OH272417   0.215   0.853  12.611  0.3520 -0.2252  0.1585
17001TIP3    H172418   0.274   0.928  12.617 -1.0990  0.9501  0.2276
17001TIP3    H272419   0.158   0.861  12.687 -0.7783 -0.5482 -0.6338
17002TIP3   OH272420   3.983   5.494   0.567  0.4075 -0.7399 -0.4003
17002TIP3    H172421   3.928   5.551   0.621 -0.5257 -0.5651 -1.5102
17002TIP3    H272422   4.000   5.545   0.488 -0.1981 -1.8723 -1.2875
17003TIP3   OH272423   6.678   4.583  16.724  0.6424  0.0125  0.6442
17003TIP3    H172424   6.696   4.654  16.662  0.7683  1.3327  2.1358
17003TIP3    H272425   6.584   4.568  16.718  0.7919 -0.5835 -0.5669
17004TIP3   OH272426   3.436   1.782  13.474 -0.0524  0.2658 -0.1228
17004TIP3    H172427   3.382   1.842  13.423  0.2652  1.8072  1.2688
17004TIP3    H272428   3.374   1.724  13.518 -0.5436  1.2972  0.5794
17005TIP3   OH272429   3.021   3.390   2.249  0.0186 -0.0363 -0.1155
17005TIP3    H172430   3.072   3.382   2.168 -0.2928  0.1593 -0.3321
17005TIP3    H272431   2.937   3.425   2.221  0.3377  1.2524  0.4422
17006TIP3   OH272432   0.148   6.503   5.491 -0.3894 -0.0785  0.7046
17006TIP3    H172433   0.145   6.408   5.487 -0.9713 -0.0604  0.5637
17006TIP3    H272434   0.133   6.532   5.401  2.8727  0.1265  0.1207
17007TIP3   OH272435   4.141   1.498   0.908  0.2091  0.1525  0.1039
17007TIP3    H172436   4.221   1.447   0.924  1.2395  1.0135 -1.9625
17007TIP3    H272437   4.156   1.540   0.824 -1.7772  1.6562  0.4328
17008TIP3   OH272438   3.231   2.361  14.261 -0.1554 -0.2181  0.1366
17008TIP3    H172439   3.243   2.374  14.355 -0.6013 -0.0956  0.1803
17008TIP3    H272440   3.154   2.413  14.239  1.7194  2.3368 -0.9078
17009TIP3   OH272441   1.337   6.148  16.613  0.2344 -0.1445  0.1558
17009TIP3    H172442   1.364   6.227  16.568  1.4044  0.9017  2.5134
17009TIP3    H272443   1.244   6.160  16.630  0.0252 -0.0826 -1.0030
17010TIP3   OH272444   6.548   2.607   1.373 -0.2134 -0.2386 -0.1549
17010TIP3    H172445   6.504   2.542   1.318  1.7942 -1.5427 -0.3066
17010TIP3    H272446   6.626   2.632   1.324  0.1536  0.7037  0.8590
17011TIP3   OH272447   3.079   5.934  13.634  0.1745  0.0411  0.3696
17011TIP3    H172448   3.138   5.859  13.641  0.2021 -0.0065 -0.3253
17011TIP3    H272449   3.016   5.921  13.705  2.2910  1.3010  2.6194
17012TIP3   OH272450   1.146   4.567  16.871  0.9718  0.1099 -0.2112
17012TIP3    H172451   1.143   4.662  16.867  2.5610  0.1955  0.0708
17012TIP3    H272452   1.122   4.545  16.961 -1.7367  0.0553 -0.8447
17013TIP3   OH272453   0.952   3.697   3.151  0.5152  0.2899  0.2573
17013TIP3    H172454   0.896   3.622   3.131  0.2261  0.7494 -0.6944
17013TIP3    H272455   0.905   3.772   3.115  0.8751  0.9138  1.0724
17014TIP3   OH272456   3.191   3.215  16.188 -0.2298 -0.3547 -0.5207
17014TIP3    H172457   3.125   3.284  16.201  0.7659  0.6696 -0.8046
17014TIP3    H272458   3.244   3.246  16.115  1.5204 -0.4065  0.6794
17015TIP3   OH272459   6.012   6.520  11.241 -0.0573  0.1565  0.3331
17015TIP3    H172460   6.017   6.439  11.190  3.4964  0.6031 -0.3162
17015TIP3    H272461   6.016   6.492  11.332  2.4593 -0.4818  0.1030
17016TIP3   OH272462   2.521   4.550  14.716  0.2112 -0.2990  0.6392
17016TIP3    H172463   2.605   4.593  14.696  0.2774 -0.3743  0.7540
17016TIP3    H272464   2.510   4.562  14.811 -0.7060  1.1575  0.3862
17017TIP3   OH272465   3.503   4.060   5.258  0.0799 -0.4778  0.4883
17017TIP3    H172466   3.433   4.078   5.320  1.0262  0.0384  1.4320
17017TIP3    H272467   3.567   4.010   5.307  0.8551 -0.0524 -0.0595
17018TIP3   OH272468   1.601   5.194   2.841 -0.1479 -0.2252 -0.3728
17018TIP3    H172469   1.656   5.272   2.842  1.3294 -1.2072 -0.9517
17018TIP3    H272470   1.539   5.207   2.913  0.4033  1.2298 -0.1331
17019TIP3   OH272471   4.412   3.436   2.279 -0.2200 -0.1843  0.4527
17019TIP3    H172472   4.464   3.405   2.353 -0.8146  0.1903  1.0405
17019TIP3    H272473   4.358   3.507   2.316 -0.6752 -0.1402 -0.2868
17020TIP3   OH272474   0.743   2.731  17.212  0.0445  0.1326  0.5893
17020TIP3    H172475   0.701   2.659  17.258  0.1138 -0.7429 -0.6605
17020TIP3    H272476   0.815   2.758  17.270 -0.4230 -0.3181  1.3937
17021TIP3   OH272477   6.187   4.279   1.167 -0.0022 -0.2076  0.4697
17021TIP3    H172478   6.217   4.355   1.117 -3.6552  0.8238 -0.4295
17021TIP3    H272479   6.237   4.206   1.131  2.9613  1.5279  0.7312
17022TIP3   OH272480   3.460   2.269  13.568 -0.0383  0.0093 -0.0494
17022TIP3    H172481   3.412   2.191  13.597  0.6416  0.1692  1.6421
17022TIP3    H272482   3.397   2.340  13.574 -0.3871 -0.2405 -0.6594
17023TIP3   OH272483   1.914   1.174   1.345 -0.2612  0.0753  0.2878
17023TIP3    H172484   1.900   1.269   1.343 -0.1333  0.1665  2.1615
17023TIP3    H272485   1.829   1.137   1.322 -1.0785  0.6702  2.1877
17024TIP3   OH272486   3.962   4.841   2.002 -0.0019 -0.2546 -0.2868
17024TIP3    H172487   3.871   4.869   2.005  0.5086  1.3748  0.7394
17024TIP3    H272488   3.986   4.847   1.909 -0.7076  0.0796 -0.4503
17025TIP3   OH272489   5.088   2.767   3.687 -0.4617  0.3402  0.3286
17025TIP3    H172490   5.107   2.687   3.736  4.0357  1.4492  0.8534
17025TIP3    H272491   5.048   2.825   3.752 -1.6756 -0.6974  0.5424
17026TIP3   OH272492   2.728   4.970   2.676 -0.5677 -0.3265 -0.2133
17026TIP3    H172493   2.643   4.972   2.719 -0.9485  0.9373 -0.9752
17026TIP3    H272494   2.768   5.055   2.697  0.1083 -0.5336 -0.6144
17027TIP3   OH272495   4.817   3.169   3.670  0.4411 -0.2470  0.2633
17027TIP3    H172496   4.857   3.203   3.591  0.2429 -0.8537 -0.1039
17027TIP3    H272497   4.849   3.226   3.740  0.4168  0.4489 -0.2812
17028TIP3   OH272498   0.017   4.855   2.034  0.4516 -0.5037  0.5268
17028TIP3    H172499  -0.051   4.839   1.968 -1.8655  2.5011  1.9341
17028TIP3    H272500   0.085   4.904   1.988 -0.3287  0.0890 -0.0172
17029TIP3   OH272501   0.440   5.407  16.934 -0.1290  0.0231 -0.1424
17029TIP3    H172502   0.510   5.456  16.890  1.7360 -0.6142  1.9461
17029TIP3    H272503   0.427   5.330  16.878  2.3911 -0.9256  0.4245
17030TIP3   OH272504   3.306   1.745   5.314  0.1539  0.0870  0.1780
17030TIP3    H172505   3.386   1.794   5.334 -0.7852  1.9601 -0.4615
17030TIP3    H272506   3.235   1.800   5.347 -1.0106 -0.3267 -1.5096
17031TIP3   OH272507   2.932   5.576  12.050 -0.3176  0.3724 -0.7618
17031TIP3    H172508   3.018   5.539  12.030 -0.3497  0.4888 -1.1264
17031TIP3    H272509   2.937   5.601  12.142  0.2184  0.8533 -0.9168
17032TIP3   OH272510   4.115   2.061  11.333 -0.6607  0.0578  0.1756
17032TIP3    H172511   4.133   2.115  11.410  0.3749 -1.3990  0.9907
17032TIP3    H272512   4.196   2.064  11.282 -0.9548  0.0967 -0.2979
17033TIP3   OH272513   4.953   4.907  12.444 -0.8634 -0.4157 -0.1299
17033TIP3    H172514   5.024   4.891  12.382  1.3380  2.7780  1.3260
17033TIP3    H272515   4.905   4.981  12.408 -1.3175 -0.3388  0.6114
17034TIP3   OH272516   0.988   0.823  15.690  0.4558  0.0495 -0.0976
17034TIP3    H172517   1.058   0.879  15.724 -0.9789  1.2376  0.9868
17034TIP3    H272518   0.923   0.884  15.655 -0.2226 -1.0202 -0.7656
17035TIP3   OH272519   0.632   0.014  14.153 -0.0185 -0.7187  0.1043
17035TIP3    H172520   0.659   0.052  14.236  1.3174 -0.6810 -0.3236
17035TIP3    H272521   0.625   0.088  14.093 -0.9962 -0.7420  0.1769
17036TIP3   OH272522   5.700   0.762   1.682 -0.1573  0.1994 -0.3320
17036TIP3    H172523   5.619   0.800   1.716  0.6698  0.3857  1.5332
17036TIP3    H272524   5.727   0.821   1.611 -0.8840  0.9392  0.0050
17037TIP3   OH272525   3.719   4.010   1.900 -0.0322 -0.2264 -0.4616
17037TIP3    H172526   3.737   4.099   1.932  1.7119 -0.8762  0.4877
17037TIP3    H272527   3.657   3.974   1.963 -0.8254  0.3324 -0.9045
17038TIP3   OH272528   1.084   4.741  14.992  0.3826 -0.4330 -0.5140
17038TIP3    H172529   1.037   4.796  15.054  2.7816  2.4464 -1.0304
17038TIP3    H272530   1.138   4.684  15.047 -1.7197 -2.0229  0.0194
17039TIP3   OH272531   2.695   5.350   4.128 -0.2733  0.1872 -0.5089
17039TIP3    H172532   2.735   5.343   4.041 -0.4140 -0.8500 -0.5138
17039TIP3    H272533   2.692   5.259   4.160 -1.2894  0.4105  0.0870
17040TIP3   OH272534   0.857   1.230   5.587  0.4724 -0.2505 -0.1122
17040TIP3    H172535   0.908   1.207   5.665  0.7180 -0.3658 -0.3031
17040TIP3    H272536   0.906   1.303   5.548 -0.3876  0.7160  0.5770
17041TIP3   OH272537   0.085   2.393   1.649  0.1558 -0.7313  0.3603
17041TIP3    H172538   0.095   2.409   1.743  1.1515  0.0834  0.1345
17041TIP3    H272539   0.158   2.333   1.628 -0.7513 -1.8531  0.3079
17042TIP3   OH272540   2.856   4.974   4.842 -0.4164  0.3423 -0.2321
17042TIP3    H172541   2.943   4.962   4.804 -0.5999 -0.1958 -0.4800
17042TIP3    H272542   2.795   4.942   4.775 -0.7646 -0.1456  0.3124
17043TIP3   OH272543   5.292   3.464   1.955 -0.4581  0.6183  0.0379
17043TIP3    H172544   5.379   3.477   1.993 -1.7434 -0.5972  3.7912
17043TIP3    H272545   5.285   3.370   1.942 -0.3203  0.9161 -2.9750
17044TIP3   OH272546   5.054   1.285  11.677  0.3796  0.3345  0.2302
17044TIP3    H172547   4.959   1.297  11.686  0.1583 -0.8635 -0.2586
17044TIP3    H272548   5.086   1.282  11.767 -0.2626 -0.6875  0.4418
17045TIP3   OH272549   3.039   3.941   0.063  0.0970  0.1090  0.1015
17045TIP3    H172550   3.038   3.916  -0.029  0.0796 -0.6378  0.3024
17045TIP3    H272551   3.126   3.980   0.076 -0.0196  0.5147 -0.3033
17046TIP3   OH272552   3.293   6.124  12.399 -0.1750  0.3307  0.3562
17046TIP3    H172553   3.230   6.194  12.412 -0.8212 -0.2660  0.4988
17046TIP3    H272554   3.374   6.169  12.375 -0.8152  1.0833 -0.4842
17047TIP3   OH272555   1.746   5.177   5.918  0.1179 -0.3176  0.4928
17047TIP3    H172556   1.770   5.209   5.831 -0.9429 -0.0867  0.2676
17047TIP3    H272557   1.728   5.255   5.969  0.5202 -0.4612  0.8571
17048TIP3   OH272558   1.166   1.901   3.416  0.5230 -0.1972  0.1865
17048TIP3    H172559   1.141   1.824   3.366  1.4801  0.2930 -1.1103
17048TIP3    H272560   1.099   1.909   3.484 -0.8223 -0.8880 -1.0179
17049TIP3   OH272561   6.673   2.121   2.621  0.2932  0.4419 -0.1145
17049TIP3    H172562   6.614   2.045   2.624  0.1881  0.4297 -1.6052
17049TIP3    H272563   6.747   2.096   2.675  0.1519 -0.6494 -0.4018
17050TIP3   OH272564   5.013   6.141   5.837 -0.2448  0.2545  0.3030
17050TIP3    H172565   4.948   6.123   5.769 -0.6481  0.0289  0.7405
17050TIP3    H272566   5.096   6.150   5.790 -0.1439 -1.8865 -0.0683
17051TIP3   OH272567   6.767   5.279  15.061  0.1859  0.6926  1.4469
17051TIP3    H172568   6.854   5.243  15.077  0.4151  0.4308 -0.1923
17051TIP3    H272569   6.776   5.330  14.981 -1.5972 -1.0310  0.0303
17052TIP3   OH272570   4.449   1.618   1.594  0.1293  0.1667 -0.1272
17052TIP3    H172571   4.399   1.544   1.561  2.4959 -0.4050 -2.7268
17052TIP3    H272572   4.503   1.581   1.664 -1.0282  0.2225  0.8366
17053TIP3   OH272573   2.578   4.012   4.046  0.2321  0.4106 -0.2356
17053TIP3    H172574   2.627   3.951   3.990  0.4852 -0.8331  1.2912
17053TIP3    H272575   2.554   3.960   4.122 -1.8434  1.5167 -0.0710
17054TIP3   OH272576   5.136   6.679   2.165 -0.4693  0.0171 -0.1231
17054TIP3    H172577   5.093   6.700   2.248  0.2534 -0.1915  0.3226
17054TIP3    H272578   5.225   6.653   2.191  0.4959  2.0759 -1.1384
17055TIP3   OH272579   2.580   4.150  13.225 -0.3788  1.0087  0.1872
17055TIP3    H172580   2.564   4.056  13.231  0.3833  0.9391  1.3382
17055TIP3    H272581   2.608   4.163  13.134 -0.9873  0.2206 -0.1323
17056TIP3   OH272582   6.380   2.237   5.613  0.1445  0.3747  0.5749
17056TIP3    H172583   6.425   2.308   5.567  0.1739  0.8483  1.3155
17056TIP3    H272584   6.411   2.158   5.571 -0.6453  0.8246 -0.9440
17057TIP3   OH272585   2.991   6.067   3.734  0.5879  0.1614 -0.1191
17057TIP3    H172586   3.033   5.999   3.680  0.6901 -0.4685  0.7261
17057TIP3    H272587   3.054   6.138   3.736  1.0281 -0.2260  0.0090
17058TIP3   OH272588   4.344   1.478  13.500  0.2032 -0.0357  0.3028
17058TIP3    H172589   4.428   1.440  13.473 -0.8451 -0.7921 -2.1499
17058TIP3    H272590   4.364   1.523  13.582  3.5007  1.5855 -1.1784
17059TIP3   OH272591   5.595   0.910  16.894  0.4778  0.1029 -0.1918
17059TIP3    H172592   5.571   0.851  16.823 -4.0426  2.1835 -0.7059
17059TIP3    H272593   5.549   0.876  16.971  0.7589  0.9946  0.3905
17060TIP3   OH272594   0.920   5.451   5.321 -0.3319 -0.1594 -0.8601
17060TIP3    H172595   0.889   5.494   5.400 -2.3602 -3.3528  0.2787
17060TIP3    H272596   0.932   5.522   5.258  1.3390  2.5136  2.1932
17061TIP3   OH272597   2.708   0.578   0.767  0.3689  0.8936  0.1133
17061TIP3    H172598   2.697   0.637   0.841  0.3943 -0.8639  1.6112
17061TIP3    H272599   2.693   0.491   0.804  2.6559 -0.2587 -1.4112
17062TIP3   OH272600   5.705   3.418  14.480  0.1482  0.5246 -0.4003
17062TIP3    H172601   5.740   3.476  14.412 -1.8332  2.1891 -0.0763
17062TIP3    H272602   5.642   3.471  14.528 -1.5495 -1.8201  0.1451
17063TIP3   OH272603   1.742   5.100   4.005  0.2374 -0.1387 -0.1790
17063TIP3    H172604   1.765   5.081   3.915 -0.2839  1.6068 -0.7275
17063TIP3    H272605   1.647   5.115   4.003  0.0554 -1.0405  0.8475
17064TIP3   OH272606   5.350   0.705   1.625  0.0737  0.5176 -0.2201
17064TIP3    H172607   5.285   0.751   1.679 -0.2718 -2.1422  1.8710
17064TIP3    H272608   5.369   0.625   1.674  1.4460 -1.0609 -3.0846
17065TIP3   OH272609   1.416   0.091   5.275 -0.2023  0.5513  0.1211
17065TIP3    H172610   1.438   0.176   5.237  1.4893  0.2497  0.3403
17065TIP3    H272611   1.441   0.099   5.367  0.0177 -0.1860  0.1313
17066TIP3   OH272612   0.738   1.369  13.262 -0.1351  0.4273  0.4889
17066TIP3    H172613   0.761   1.368  13.169 -0.5451  0.5349  0.3826
17066TIP3    H272614   0.820   1.353  13.307  0.1250  0.6940  0.1192
17067TIP3   OH272615   1.818   1.139  11.044 -0.1334 -0.0091 -0.3555
17067TIP3    H172616   1.869   1.217  11.068 -1.5769  1.0390 -0.5555
17067TIP3    H272617   1.869   1.098  10.975  1.3146  0.0065  0.6549
17068TIP3   OH272618   6.424   3.101  11.875 -0.0033  0.1533 -0.6480
17068TIP3    H172619   6.467   3.032  11.926 -0.0756 -0.2254 -1.0961
17068TIP3    H272620   6.338   3.112  11.916 -0.1895 -0.3847 -0.8882
17069TIP3   OH272621   2.988   0.218  15.951 -0.5192 -0.2363 -0.4332
17069TIP3    H172622   2.946   0.221  16.037  0.7460  1.0089  0.1657
17069TIP3    H272623   3.013   0.309  15.933  1.5653 -0.8565 -0.9218
17070TIP3   OH272624   1.109   1.565  10.464  0.1439  0.3177  0.5243
17070TIP3    H172625   1.175   1.615  10.417  0.5931  1.2176  2.0564
17070TIP3    H272626   1.069   1.510  10.397  1.1089  1.1632 -0.7966
17071TIP3   OH272627   5.629   1.928  13.557 -0.2272  0.2389 -0.0798
17071TIP3    H172628   5.596   2.016  13.575 -0.6696  0.0388  0.1017
17071TIP3    H272629   5.620   1.881  13.640 -0.7852 -0.2236 -0.3945
17072TIP3   OH272630   6.665   2.385  16.254 -0.2290  0.0443  0.3927
17072TIP3    H172631   6.662   2.419  16.164  1.5734 -1.0969 -0.1436
17072TIP3    H272632   6.741   2.429  16.294 -0.1952 -0.4686  0.9122
17073TIP3   OH272633   2.902   2.622   5.166 -0.7096 -0.6510 -0.2920
17073TIP3    H172634   2.973   2.686   5.167 -0.1940 -1.1797 -1.6537
17073TIP3    H272635   2.928   2.557   5.231 -0.3990 -0.3758 -0.1343
17074TIP3   OH272636   3.855   0.361  12.016  0.3055  0.0236  0.1497
17074TIP3    H172637   3.880   0.383  11.926 -2.3635  0.0553 -0.6736
17074TIP3    H272638   3.880   0.269  12.026 -0.2363 -0.2617 -0.9836
17075TIP3   OH272639   2.462   1.578  15.380 -0.0605 -0.2374 -0.0054
17075TIP3    H172640   2.385   1.543  15.424  0.4589 -1.7124 -0.1980
17075TIP3    H272641   2.478   1.516  15.308  1.1783  0.1445 -0.0742
17076TIP3   OH272642   4.790   5.743   0.435  0.3043 -0.7602 -0.3129
17076TIP3    H172643   4.782   5.700   0.350  0.2045  0.3668 -0.8864
17076TIP3    H272644   4.763   5.676   0.498  2.3108 -2.3090 -0.9578
17077TIP3   OH272645   3.517   5.249   4.276 -0.6409  0.0869 -0.1269
17077TIP3    H172646   3.472   5.310   4.335 -1.5176 -1.7046  1.1345
17077TIP3    H272647   3.447   5.194   4.240  0.1630 -0.3809 -1.0255
17078TIP3   OH272648   1.805   1.990  12.137  0.5218 -0.1994  0.5140
17078TIP3    H172649   1.848   2.017  12.219 -0.4418  0.8042  0.7187
17078TIP3    H272650   1.714   1.977  12.161  0.5928 -1.8713 -0.0084
17079TIP3   OH272651   6.710   4.492  14.373 -0.2065  0.1436  0.4490
17079TIP3    H172652   6.776   4.557  14.397  1.1513 -0.7165 -0.7573
17079TIP3    H272653   6.737   4.412  14.417  1.2428 -0.9500 -2.1681
17080TIP3   OH272654   1.564   3.284  11.583  0.4131  0.0514  0.0645
17080TIP3    H172655   1.477   3.247  11.571 -0.7668  2.5828  0.3810
17080TIP3    H272656   1.620   3.207  11.596 -1.6435 -1.6740 -0.6212
17081TIP3   OH272657   0.237   2.459  12.513  0.0395  0.3581  0.5435
17081TIP3    H172658   0.274   2.407  12.441 -2.1652  0.0444 -0.4647
17081TIP3    H272659   0.265   2.413  12.592 -0.7226 -1.6571 -0.2737
17082TIP3   OH272660   0.050   6.664   6.131 -0.1082 -0.0292 -0.1506
17082TIP3    H172661   0.100   6.746   6.125 -0.0687 -0.1666 -3.3083
17082TIP3    H272662   0.109   6.604   6.178 -0.5145  1.8606  3.1410
17083TIP3   OH272663   1.234   0.180  16.236 -0.4335 -0.0738  0.0011
17083TIP3    H172664   1.178   0.137  16.301 -1.1444 -0.7771 -1.0538
17083TIP3    H272665   1.199   0.152  16.152  1.0457  0.0807 -0.6922
17084TIP3   OH272666   3.139   1.768   6.515 -0.0912 -0.4224 -0.2914
17084TIP3    H172667   3.219   1.752   6.565  0.1554 -0.0878 -0.5729
17084TIP3    H272668   3.068   1.734   6.571  0.3354 -1.7650 -0.5418
17085TIP3   OH272669   3.882   2.317  12.131 -0.2456 -0.3638  0.5974
17085TIP3    H172670   3.864   2.341  12.040 -2.6770 -0.4156  0.9831
17085TIP3    H272671   3.955   2.373  12.157 -0.0055  0.1956 -1.1416
17086TIP3   OH272672   0.865   5.618  13.102 -0.1493  0.0748 -0.1031
17086TIP3    H172673   0.784   5.591  13.146 -0.0283  1.8772  1.3232
17086TIP3    H272674   0.926   5.546  13.117 -0.2024  0.4817  2.5412
17087TIP3   OH272675   6.468   1.402   2.655  0.6659 -0.3116 -0.0029
17087TIP3    H172676   6.384   1.422   2.696  1.5190  2.0614  0.7588
17087TIP3    H272677   6.449   1.330   2.595 -1.8823  0.1145  0.1795
17088TIP3   OH272678   5.733   5.291   5.237 -0.2010 -0.1651 -0.2708
17088TIP3    H172679   5.811   5.266   5.188  1.1510  1.4696  0.9078
17088TIP3    H272680   5.725   5.226   5.306 -0.9431 -1.3332 -1.4256
17089TIP3   OH272681   6.614   4.881   1.812 -0.7101  0.1573 -0.9069
17089TIP3    H172682   6.608   4.972   1.841 -0.9359 -0.0889 -0.1535
17089TIP3    H272683   6.679   4.882   1.741  0.4336  0.6639  0.1161
17090TIP3   OH272684   5.616   0.747  12.718  0.2198  0.3183 -0.0483
17090TIP3    H172685   5.551   0.695  12.670  0.9049  0.6093 -1.3355
17090TIP3    H272686   5.699   0.707  12.694  0.5043 -0.8011  2.5025
17091TIP3   OH272687   2.996   0.094   2.079  0.1899 -0.2311  0.1407
17091TIP3    H172688   3.069   0.056   2.128  0.6660 -2.0254 -1.8208
17091TIP3    H272689   3.036   0.164   2.027  0.3308 -0.5238 -0.1500
17092TIP3   OH272690   6.563   4.612  16.972  0.0849  0.3381 -0.3490
17092TIP3    H172691   6.480   4.640  16.933  0.2453 -0.5494 -1.3710
17092TIP3    H272692   6.629   4.633  16.905  0.3971 -1.0145 -0.4934
17093TIP3   OH272693   5.926   4.123   5.119  0.4996 -0.3655 -0.0793
17093TIP3    H172694   5.889   4.174   5.191  1.1718 -0.0828  0.0793
17093TIP3    H272695   5.862   4.054   5.103 -0.4265  0.5173 -0.2886
17094TIP3   OH272696   3.567   1.893   1.623 -0.1967  0.6435 -0.0625
17094TIP3    H172697   3.572   1.950   1.699  1.4086  0.7382 -0.2077
17094TIP3    H272698   3.491   1.836   1.640 -1.4025  2.3282  0.3901
17095TIP3   OH272699   4.334   6.798   2.716  0.0374  0.0091  0.1869
17095TIP3    H172700   4.357   6.882   2.755  2.0072  0.1557 -1.1554
17095TIP3    H272701   4.241   6.805   2.696 -0.2716  1.1320  1.7978
17096TIP3   OH272702   6.676   3.795  11.921  0.4441  0.0285 -0.0372
17096TIP3    H172703   6.711   3.790  12.010  0.2093 -0.0071  0.0542
17096TIP3    H272704   6.618   3.720  11.913  1.5056 -0.7505 -0.6904
17097TIP3   OH272705   0.843   5.970   1.461  0.5043  0.7949  1.0663
17097TIP3    H172706   0.858   6.021   1.541 -1.0444  1.4654  0.9506
17097TIP3    H272707   0.902   6.010   1.397 -0.0271  1.8648  1.2205
17098TIP3   OH272708   2.213   2.302   4.220  0.0693 -0.4222  0.2694
17098TIP3    H172709   2.175   2.215   4.203 -2.3702  0.7189 -0.4897
17098TIP3    H272710   2.263   2.322   4.141  2.2723 -1.8468  1.1915
17099TIP3   OH272711   0.308   0.451   3.639  0.0524  0.2169  0.0468
17099TIP3    H172712   0.349   0.513   3.579  3.7976 -2.0984 -0.0959
17099TIP3    H272713   0.314   0.493   3.725  0.1577  1.0863 -0.3746
17100TIP3   OH272714   2.004   5.216  16.585 -0.0594 -0.1901  0.2480
17100TIP3    H172715   1.961   5.286  16.536  0.1381 -0.7204 -0.7069
17100TIP3    H272716   2.069   5.181  16.525  0.9826 -0.1135  1.2897
17101TIP3   OH272717   3.973   4.943  14.369  0.8964  0.1973  0.5859
17101TIP3    H172718   4.041   4.877  14.356 -0.5517 -1.2655  0.1055
17101TIP3    H272719   4.008   5.023  14.330  1.4746 -1.0778 -1.6300
17102TIP3   OH272720   6.767   0.446  11.552 -0.3470  0.1365 -0.4818
17102TIP3    H172721   6.690   0.398  11.584 -0.1861 -1.7526 -2.6583
17102TIP3    H272722   6.731   0.510  11.490 -0.2010 -1.5571 -2.4323
17103TIP3   OH272723   6.780   5.897   3.361 -0.1270 -0.4504 -0.0747
17103TIP3    H172724   6.763   5.898   3.266 -2.2070 -1.4042  0.2144
17103TIP3    H272725   6.772   5.988   3.388  0.0256 -0.2281 -0.7496
17104TIP3   OH272726   6.705   4.768   4.240 -0.0296  0.1668 -0.3045
17104TIP3    H172727   6.613   4.776   4.216  0.1903  1.9987 -0.6804
17104TIP3    H272728   6.716   4.676   4.266 -2.0210  0.0089  0.0866
17105TIP3   OH272729   2.105   3.802   2.282  0.7675  0.3738 -0.1248
17105TIP3    H172730   2.165   3.865   2.321 -1.2887  0.8788  2.5350
17105TIP3    H272731   2.026   3.852   2.261  0.8371 -0.4302 -2.6844
17106TIP3   OH272732   6.532   5.472   5.050 -0.3908 -0.3745 -0.0408
17106TIP3    H172733   6.601   5.411   5.024 -0.6096  0.2805 -2.4267
17106TIP3    H272734   6.452   5.436   5.012 -0.5617  1.2238 -1.2989
17107TIP3   OH272735   0.110   3.126  12.256  0.3364  0.2389 -0.1169
17107TIP3    H172736   0.094   3.092  12.344  1.2333 -1.8134 -0.6838
17107TIP3    H272737   0.043   3.194  12.243 -2.1071 -1.8512  0.8289
17108TIP3   OH272738   1.520   4.043   1.016 -0.1387  0.2730 -0.0641
17108TIP3    H172739   1.443   4.090   1.050 -0.3990  0.6028 -1.0742
17108TIP3    H272740   1.571   4.022   1.094 -1.7008 -0.7789  0.7262
17109TIP3   OH272741   1.281   3.248   2.027 -0.0505 -0.6773 -0.0019
17109TIP3    H172742   1.234   3.221   1.948  0.3279 -0.5296 -0.2800
17109TIP3    H272743   1.318   3.167   2.062  0.8619 -0.5686 -0.6897
17110TIP3   OH272744   0.785   1.132  11.547  0.3834  0.3043  0.3991
17110TIP3    H172745   0.810   1.165  11.461 -0.3259 -0.4218 -0.1021
17110TIP3    H272746   0.740   1.049  11.529 -0.0533  0.2965  1.4405
17111TIP3   OH272747   6.332   3.169  12.661 -0.1657  0.2071  0.1798
17111TIP3    H172748   6.236   3.164  12.661 -0.1427 -0.5548  1.3581
17111TIP3    H272749   6.361   3.080  12.645  0.3275  0.1920  1.0631
17112TIP3   OH272750   2.986   4.157   3.318 -0.1909 -0.6534  0.1655
17112TIP3    H172751   2.918   4.216   3.284 -1.2324 -0.3846  2.5328
17112TIP3    H272752   2.941   4.100   3.379  1.6172 -0.8383  1.4198
17113TIP3   OH272753   3.618   6.047   0.282  0.6656 -0.2773 -0.0486
17113TIP3    H172754   3.583   6.135   0.296  0.2757 -0.0403 -2.1863
17113TIP3    H272755   3.624   6.010   0.370 -0.3492  1.4185  0.8027
17114TIP3   OH272756   1.324   5.484  13.502  0.6314  0.1175 -0.0086
17114TIP3    H172757   1.316   5.462  13.595  1.3356  1.6214  0.4401
17114TIP3    H272758   1.233   5.487  13.471  0.3487  0.2540  0.7947
17115TIP3   OH272759   0.271   3.401  12.983  0.5932 -0.6109  0.1019
17115TIP3    H172760   0.292   3.488  12.952  1.8925 -0.1070  2.1477
17115TIP3    H272761   0.181   3.407  13.014  0.7257  0.0680  0.3705
17116TIP3   OH272762   3.515   6.631  16.434  0.0095  0.3038  0.2449
17116TIP3    H172763   3.542   6.540  16.421 -0.0887  0.3692 -0.4959
17116TIP3    H272764   3.552   6.677  16.359 -2.8154  0.2542 -1.3178
17117TIP3   OH272765   1.435   2.554   4.752 -0.4516  0.4368 -0.5530
17117TIP3    H172766   1.445   2.640   4.793 -0.6764 -1.3120  3.6590
17117TIP3    H272767   1.346   2.553   4.718 -0.2728  1.9550 -1.1742
17118TIP3   OH272768   2.664   3.729  12.490 -0.6149 -0.2373  0.2510
17118TIP3    H172769   2.691   3.693  12.575 -1.0851 -0.0647  0.4765
17118TIP3    H272770   2.572   3.705  12.482 -0.9318  0.8613  0.3852
17119TIP3   OH272771   1.755   5.961   3.794 -0.0239 -0.5229  0.0821
17119TIP3    H172772   1.725   6.048   3.819 -0.2148 -1.0629  1.8549
17119TIP3    H272773   1.680   5.904   3.811 -0.3751 -0.8937 -2.3402
17120TIP3   OH272774   2.849   5.375   3.024  0.4915  0.5809  0.3163
17120TIP3    H172775   2.831   5.400   3.115 -0.1149  1.0141  0.0838
17120TIP3    H272776   2.928   5.321   3.029 -1.9521 -3.2961  1.6810
17121TIP3   OH272777   5.741   2.593  15.980  0.3660 -0.0467 -0.6007
17121TIP3    H172778   5.822   2.562  15.940  0.2318 -0.4768 -0.5402
17121TIP3    H272779   5.724   2.677  15.937  1.1627  0.3415 -0.1907
17122TIP3   OH272780   1.832   0.095   3.312  0.1433 -0.1075 -0.6361
17122TIP3    H172781   1.747   0.139   3.302  0.5365  0.8046 -0.1240
17122TIP3    H272782   1.878   0.115   3.230  0.9392  1.8948  0.2272
17123TIP3   OH272783   5.592   5.776  16.495 -0.1583 -0.0326 -0.1140
17123TIP3    H172784   5.514   5.763  16.440  0.8378 -3.0121 -1.0447
17123TIP3    H272785   5.573   5.729  16.575  0.1144  0.5456  0.2962
17124TIP3   OH272786   6.296   3.551   4.632 -0.1432  0.3929  0.1301
17124TIP3    H172787   6.219   3.501   4.605 -0.1402  0.7091 -0.4966
17124TIP3    H272788   6.324   3.511   4.714  0.7946 -1.6380 -1.1153
17125TIP3   OH272789   6.679   0.516   1.783 -0.1668  0.0631 -0.4799
17125TIP3    H172790   6.662   0.473   1.700 -0.8089  0.2614 -0.4600
17125TIP3    H272791   6.774   0.511   1.794 -0.1990 -1.1491 -0.5811
17126TIP3   OH272792   2.353   6.809  12.537 -0.6210 -0.0423 -0.6122
17126TIP3    H172793   2.339   6.719  12.508 -0.6095  0.4257 -2.1860
17126TIP3    H272794   2.266   6.840  12.561 -0.8753 -0.0275 -1.5024
17127TIP3   OH272795   1.844   1.536  12.344  0.0215 -0.3055  0.0231
17127TIP3    H172796   1.782   1.463  12.356 -1.0029  0.7799  1.7671
17127TIP3    H272797   1.796   1.599  12.290  0.2149 -0.1484  0.0347
17128TIP3   OH272798   2.270   3.570  15.454  0.1463  0.1035 -0.0697
17128TIP3    H172799   2.326   3.493  15.444 -1.3525 -1.3025  1.6657
17128TIP3    H272800   2.311   3.636  15.398  2.1265 -1.5789 -0.7653
17129TIP3   OH272801   3.899   4.630  14.496 -0.0818  0.1126  0.0872
17129TIP3    H172802   3.827   4.684  14.529 -0.0768 -0.8323  1.7701
17129TIP3    H272803   3.873   4.540  14.514  1.6339 -0.2438  1.0720
17130TIP3   OH272804   3.289   1.459   3.172  0.4307 -0.1811  0.4169
17130TIP3    H172805   3.308   1.430   3.083 -1.2082 -1.8705  0.5526
17130TIP3    H272806   3.298   1.380   3.225  0.9862  0.7128  1.7158
17131TIP3   OH272807   2.604   1.780  15.541  0.0538  0.5094 -0.0619
17131TIP3    H172808   2.575   1.722  15.471 -0.5160 -0.3913  0.8906
17131TIP3    H272809   2.676   1.831  15.502 -0.3961  0.1948 -1.3507
17132TIP3   OH272810   0.599   5.761  16.932 -0.2173  1.0371  0.5435
17132TIP3    H172811   0.581   5.790  17.021  2.2351  0.9480  1.1408
17132TIP3    H272812   0.633   5.672  16.942  2.4798  1.8874 -0.1358
17133TIP3   OH272813   3.923   6.230  13.943  0.2002  0.0924  0.6721
17133TIP3    H172814   3.961   6.167  14.004 -0.6690 -0.9054  0.2225
17133TIP3    H272815   3.994   6.252  13.883  0.4523 -0.6723  0.6847
17134TIP3   OH272816   6.127   4.789  15.382 -0.3097 -0.4233 -0.3414
17134TIP3    H172817   6.111   4.881  15.402 -0.7754 -0.7175  0.6958
17134TIP3    H272818   6.222   4.779  15.391 -0.2840 -0.1021 -0.2381
17135TIP3   OH272819   4.683   5.356   4.214  0.7761  0.1079 -0.1038
17135TIP3    H172820   4.770   5.321   4.199  0.5651  0.1872 -1.6904
17135TIP3    H272821   4.693   5.451   4.207  0.4914  0.0954 -0.9004
17136TIP3   OH272822   1.260   3.787   4.777  0.2630  0.4659  0.5891
17136TIP3    H172823   1.213   3.703   4.784 -0.1000  0.6418  0.2552
17136TIP3    H272824   1.246   3.815   4.687  2.1206 -0.1306  0.0559
17137TIP3   OH272825   1.279   0.608  12.094  0.2731 -0.1324 -0.2530
17137TIP3    H172826   1.235   0.568  12.019  1.5607  1.1423 -1.7595
17137TIP3    H272827   1.265   0.702  12.082  2.1880  0.2116 -0.0174
17138TIP3   OH272828   1.841   6.461   1.138 -0.1515 -0.0487  0.3688
17138TIP3    H172829   1.754   6.450   1.177  0.3220  2.2103  2.3236
17138TIP3    H272830   1.837   6.546   1.094  0.8617 -0.2511 -0.1330
17139TIP3   OH272831   0.085   5.664   3.446  0.0725  0.5696  0.0053
17139TIP3    H172832   0.132   5.691   3.525  0.2724  0.9614 -0.2453
17139TIP3    H272833   0.052   5.746   3.409  2.0492  0.6949 -1.6448
17140TIP3   OH272834   3.547   2.396  10.815  0.4988  0.2268  0.7013
17140TIP3    H172835   3.572   2.469  10.758  0.9666  0.5810  1.3483
17140TIP3    H272836   3.458   2.375  10.789 -0.4291  2.4046  1.8945
17141TIP3   OH272837   3.348   6.636   5.478  0.6517  0.1473 -0.7637
17141TIP3    H172838   3.283   6.603   5.539 -0.7843  0.0218 -2.2804
17141TIP3    H272839   3.387   6.711   5.523  1.7484 -1.6578  1.4510
17142TIP3   OH272840   5.982   2.668  13.925 -0.6273 -1.0091 -0.2295
17142TIP3    H172841   5.936   2.708  13.998 -2.1252 -2.3562 -0.3834
17142TIP3    H272842   6.039   2.738  13.891 -0.3632 -0.1790  1.7885
17143TIP3   OH272843   1.456   6.045  13.470 -0.2433  0.1656 -0.3340
17143TIP3    H172844   1.386   6.094  13.512 -0.7670 -1.6026  0.9794
17143TIP3    H272845   1.459   6.079  13.380 -3.0973 -0.0115 -0.5915
17144TIP3   OH272846   4.123   0.283  15.124  0.0233  0.0160  0.2519
17144TIP3    H172847   4.138   0.199  15.081 -3.0997 -1.0041  0.8586
17144TIP3    H272848   4.096   0.341  15.053  1.5819  0.3646 -0.0799
17145TIP3   OH272849   5.315   0.847  13.511 -0.2243 -0.2206 -0.6066
17145TIP3    H172850   5.292   0.928  13.557  3.0646  0.5246  0.0104
17145TIP3    H272851   5.335   0.875  13.422 -0.1894 -0.5387 -0.6996
17146TIP3   OH272852   2.676   6.455   3.179 -0.3248  0.0078  0.0929
17146TIP3    H172853   2.701   6.390   3.112  1.8937  1.4808 -0.6040
17146TIP3    H272854   2.752   6.462   3.236 -1.7420 -0.3132  2.1400
17147TIP3   OH272855   3.172   4.283   0.215  0.4898 -0.4352  0.1567
17147TIP3    H172856   3.224   4.211   0.180  0.2726 -0.6755  0.3260
17147TIP3    H272857   3.145   4.333   0.138 -0.8984 -1.5750 -0.1491
17148TIP3   OH272858   5.627   6.067  15.726  0.4830  0.0960  0.1875
17148TIP3    H172859   5.552   6.055  15.667 -1.0342 -0.5208  2.1431
17148TIP3    H272860   5.686   5.995  15.703 -1.2591 -1.7422  1.0477
17149TIP3   OH272861   2.008   5.069  10.329 -0.1085  0.0513 -0.0269
17149TIP3    H172862   1.989   5.137  10.265  0.9958 -0.1474 -0.5904
17149TIP3    H272863   1.931   5.013  10.329 -1.0608  1.3119  0.4794
17150TIP3   OH272864   3.556   2.468   0.024 -0.1064  0.3395  0.0123
17150TIP3    H172865   3.631   2.408   0.017  0.2712  0.9660 -1.6330
17150TIP3    H272866   3.586   2.535   0.085  1.1373  1.2001 -1.4939
17151TIP3   OH272867   4.509   2.547   5.938  0.2469  0.5438  0.2297
17151TIP3    H172868   4.504   2.457   5.970 -1.2410  0.6420  0.3434
17151TIP3    H272869   4.514   2.600   6.017 -0.3980  0.6298  0.2171
17152TIP3   OH272870   1.757   2.900  12.242 -0.2733 -0.0942 -0.5217
17152TIP3    H172871   1.700   2.840  12.289 -0.1917 -0.5581 -1.0079
17152TIP3    H272872   1.841   2.894  12.288  0.2521 -1.6819 -1.5891
17153TIP3   OH272873   6.784   5.545   4.039  0.0688 -0.1279 -0.6005
17153TIP3    H172874   6.836   5.466   4.025 -1.0673 -1.3144  1.3204
17153TIP3    H272875   6.720   5.545   3.968  1.6817  0.5605 -2.1346
17154TIP3   OH272876   2.218   5.407  12.321  0.2701 -0.4779  0.0638
17154TIP3    H172877   2.279   5.445  12.384  0.2274 -3.2714  1.9577
17154TIP3    H272878   2.272   5.388  12.244  1.1792 -0.4472  0.6785
17155TIP3   OH272879   6.491   0.520   4.774  0.1221  0.0359 -0.0916
17155TIP3    H172880   6.514   0.543   4.684  0.3461 -0.4915 -0.1769
17155TIP3    H272881   6.448   0.598   4.809  1.2700  0.7496 -0.2122
17156TIP3   OH272882   4.548   3.725   0.302 -0.4766 -0.1150  0.5677
17156TIP3    H172883   4.491   3.696   0.231  2.1367 -0.0644 -1.7590
17156TIP3    H272884   4.521   3.815   0.319 -0.5665  0.2247 -1.1327
17157TIP3   OH272885   3.120   5.678   4.364  0.5724  0.0879  0.0230
17157TIP3    H172886   3.031   5.647   4.350  0.1332 -0.4208  3.1205
17157TIP3    H272887   3.113   5.774   4.366  0.3989  0.1085 -1.2635
17158TIP3   OH272888   5.374   1.375  16.887  0.7491  0.4296 -0.4836
17158TIP3    H172889   5.394   1.286  16.857  1.2252  0.0171  0.9873
17158TIP3    H272890   5.279   1.375  16.903  0.5975  0.4689 -1.3394
17159TIP3   OH272891   2.180   5.606  14.089 -0.7678 -0.3052  0.3412
17159TIP3    H172892   2.248   5.629  14.153  0.3259  2.3170 -1.5727
17159TIP3    H272893   2.218   5.536  14.037  1.6753  2.6090 -2.1655
17160TIP3   OH272894   4.246   3.674   1.925 -0.0957  0.5946  0.4796
17160TIP3    H172895   4.183   3.707   1.989 -0.7516  1.9106 -0.7867
17160TIP3    H272896   4.319   3.642   1.978 -1.2098  0.2994  1.9257
17161TIP3   OH272897   3.443   5.559   1.730  0.0296  0.4307  0.4136
17161TIP3    H172898   3.405   5.472   1.742 -1.2796  1.0290  0.8211
17161TIP3    H272899   3.386   5.617   1.780  1.3237  1.4375  0.7897
17162TIP3   OH272900   0.181   6.681  11.087 -0.3430 -0.0673  0.0583
17162TIP3    H172901   0.102   6.651  11.043  0.4782 -0.2213 -1.3519
17162TIP3    H272902   0.222   6.740  11.025 -0.0366  1.1190  1.3277
17163TIP3   OH272903   0.153   2.190   3.975  0.2802  0.2152  0.3463
17163TIP3    H172904   0.200   2.262   4.018  0.2967 -0.3029  1.2064
17163TIP3    H272905   0.221   2.138   3.933  0.4278 -0.1555  1.0260
17164TIP3   OH272906   5.019   1.991   5.947  0.6779  0.4735  0.1247
17164TIP3    H172907   4.982   2.028   6.027  2.4241  1.6554  0.4405
17164TIP3    H272908   5.074   2.061   5.912  0.7164 -0.3711 -1.5959
17165TIP3   OH272909   0.454   1.502  17.203 -1.0065 -1.1568  0.4175
17165TIP3    H172910   0.496   1.462  17.279 -0.1022 -0.2072  0.4550
17165TIP3    H272911   0.451   1.595  17.225  0.1928 -0.7106 -1.0946
17166TIP3   OH272912   3.751   2.887   1.198 -0.5562 -0.4324  0.2271
17166TIP3    H172913   3.830   2.930   1.164 -1.5391  0.5788 -0.8609
17166TIP3    H272914   3.781   2.799   1.222  0.5871 -0.6497 -1.7159
17167TIP3   OH272915   5.939   5.214  16.686 -0.6662  0.0044 -0.3210
17167TIP3    H172916   5.892   5.264  16.620 -0.8793 -1.6176 -1.4403
17167TIP3    H272917   6.020   5.264  16.701 -1.1589  1.0014 -0.9148
17168TIP3   OH272918   6.193   5.973  14.701  0.1349 -0.0058  0.0141
17168TIP3    H172919   6.259   5.960  14.634 -0.9166 -0.2505 -1.0127
17168TIP3    H272920   6.173   5.884  14.733 -0.2315 -0.0029 -0.2084
17169TIP3   OH272921   4.209   6.548  16.845 -0.0874  0.5239 -0.5389
17169TIP3    H172922   4.264   6.533  16.922 -1.5899 -0.3512  0.4205
17169TIP3    H272923   4.122   6.567  16.882 -0.6309  1.0024 -2.0104
17170TIP3   OH272924   5.226   4.520   4.933 -0.2137 -0.3093  0.7628
17170TIP3    H172925   5.279   4.443   4.913  0.6701  0.5029 -0.1589
17170TIP3    H272926   5.245   4.581   4.861 -0.7381  0.8462  1.5768
17171TIP3   OH272927   3.267   6.199   3.437 -0.2442  0.6548 -0.2046
17171TIP3    H172928   3.174   6.178   3.436  0.3018 -2.4538  2.0405
17171TIP3    H272929   3.285   6.227   3.527  0.9164  2.0076 -0.8057
17172TIP3   OH272930   0.648   2.043   2.651 -0.4863  0.2036  0.4060
17172TIP3    H172931   0.667   1.978   2.584  0.6061  0.3959  0.5224
17172TIP3    H272932   0.675   2.126   2.612  1.4011  0.1666  1.5594
17173TIP3   OH272933   6.669   5.446  16.017 -0.3766  0.1306  0.6696
17173TIP3    H172934   6.629   5.422  15.933  0.9131  1.1633 -0.2735
17173TIP3    H272935   6.609   5.509  16.055 -0.5963  0.2432  0.1526
17174TIP3   OH272936   0.236   0.966  14.146 -0.7825  0.6150 -0.7145
17174TIP3    H172937   0.301   1.026  14.110  0.1623  0.1668  0.1850
17174TIP3    H272938   0.253   0.967  14.241  0.0612 -1.9444 -0.7706
17175TIP3   OH272939   5.702   6.025   1.067  0.5392 -1.1665 -0.2612
17175TIP3    H172940   5.622   5.979   1.044 -0.0504 -0.9416  1.2087
17175TIP3    H272941   5.677   6.117   1.070  1.1446 -0.9699 -0.8943
17176TIP3   OH272942   0.907   6.332   0.016  0.5703  0.2874  0.2116
17176TIP3    H172943   0.947   6.247  -0.003 -0.1485 -0.0030 -0.0532
17176TIP3    H272944   0.868   6.359  -0.067 -0.7677  0.0129  0.7260
17177TIP3   OH272945   6.018   5.699   6.469  0.5841 -0.3802  0.4293
17177TIP3    H172946   6.071   5.637   6.519  0.5247  0.5029  1.6415
17177TIP3    H272947   6.080   5.764   6.438  0.3098  0.3267  1.3352
17178TIP3   OH272948   5.501   2.233  12.796  0.3286  0.0450 -0.4363
17178TIP3    H172949   5.534   2.282  12.720  1.8500  0.6923  0.5896
17178TIP3    H272950   5.493   2.298  12.865  0.6931 -0.8410  0.4658
17179TIP3   OH272951   0.284   2.352  10.383  0.4662  0.9898  0.2758
17179TIP3    H172952   0.369   2.384  10.354  0.3128  0.9730 -0.2134
17179TIP3    H272953   0.254   2.416  10.447  1.5983  0.1143  1.7500
17180TIP3   OH272954   4.097   3.839   0.466  0.5772 -0.2140  0.0270
17180TIP3    H172955   4.124   3.763   0.416 -0.3437  0.1045 -0.9736
17180TIP3    H272956   4.078   3.906   0.401  0.8659  0.7176  0.8663
17181TIP3   OH272957   2.648   2.762   0.784 -0.5926  0.3780 -0.3757
17181TIP3    H172958   2.717   2.700   0.764  0.8053  1.8544 -0.3285
17181TIP3    H272959   2.571   2.729   0.737  0.6342 -0.2781 -1.9971
17182TIP3   OH272960   3.042   1.140   0.586 -0.3665  0.0944  0.1182
17182TIP3    H172961   3.085   1.192   0.655 -0.0286 -2.2628  1.7988
17182TIP3    H272962   2.979   1.086   0.633 -0.3035 -1.4401 -1.4640
17183TIP3   OH272963   6.488   4.141   5.067  0.0431 -0.0682  0.3098
17183TIP3    H172964   6.431   4.117   4.994 -0.8909  0.0153  0.9878
17183TIP3    H272965   6.570   4.168   5.026 -0.9882  1.5369 -0.8157
17184TIP3   OH272966   3.007   4.513  13.314 -0.0732  0.1689  0.2811
17184TIP3    H172967   3.055   4.530  13.233 -1.5235 -0.8771 -0.8569
17184TIP3    H272968   3.062   4.550  13.383 -0.5720  4.6287 -1.4399
17185TIP3   OH272969   3.955   0.929  15.603  0.1524  0.6283  0.3889
17185TIP3    H172970   4.014   0.860  15.633  1.0487  0.9951 -0.4616
17185TIP3    H272971   3.990   0.955  15.518  0.4851  2.8357  1.1336
17186TIP3   OH272972   3.305   1.123   2.255 -0.5630  0.0646  0.7024
17186TIP3    H172973   3.325   1.160   2.341  0.3476 -2.3943  1.6200
17186TIP3    H272974   3.379   1.150   2.200  1.0067 -1.7151  1.8132
17187TIP3   OH272975   4.026   1.859  15.845  0.7008 -0.2731 -0.2302
17187TIP3    H172976   3.968   1.935  15.854 -1.5953 -1.9239 -0.2077
17187TIP3    H272977   4.063   1.868  15.757  0.2686  0.7420 -0.3228
17188TIP3   OH272978   1.090   0.333  17.217  0.3359  0.4145 -0.4955
17188TIP3    H172979   1.126   0.261  17.164 -0.0672 -1.1276  1.2275
17188TIP3    H272980   1.166   0.385  17.242  1.7076 -2.8278  3.1504
17189TIP3   OH272981   5.494   5.549   4.134 -0.3839 -0.1640 -0.0558
17189TIP3    H172982   5.574   5.501   4.154  0.3701  0.7940 -0.6937
17189TIP3    H272983   5.435   5.528   4.207  0.6470 -0.4195  0.7256
17190TIP3   OH272984   5.647   6.293   1.082  0.5838 -0.3835 -0.1150
17190TIP3    H172985   5.665   6.377   1.039  0.0104 -0.5681 -0.7459
17190TIP3    H272986   5.584   6.315   1.152 -0.7981 -0.4825 -1.2721
17191TIP3   OH272987   6.507   0.684  16.601  0.0478 -0.6186  0.2160
17191TIP3    H172988   6.572   0.752  16.585  0.0372 -0.2719  1.5170
17191TIP3    H272989   6.431   0.710  16.548 -0.2739  0.8817  1.3262
17192TIP3   OH272990   2.056   4.643  13.755 -0.5735 -0.2546 -0.0757
17192TIP3    H172991   2.077   4.556  13.721 -1.9423 -0.8635  0.5424
17192TIP3    H272992   1.961   4.640  13.771 -0.7413  1.5238 -0.5063
17193TIP3   OH272993   1.748   3.937   2.613 -0.0520  0.2093  0.2949
17193TIP3    H172994   1.667   3.917   2.661 -1.9009 -0.0812 -2.6645
17193TIP3    H272995   1.793   3.853   2.607 -1.5024 -0.5184 -1.2692
17194TIP3   OH272996   2.928   2.756   2.138 -0.0323 -0.3173  0.2299
17194TIP3    H172997   2.975   2.800   2.209  0.2011  0.9140 -0.6579
17194TIP3    H272998   2.984   2.683   2.113  0.2440 -0.3025  0.7963
17195TIP3   OH272999   0.262   3.093  14.627 -0.0544 -0.2750 -0.3612
17195TIP3    H173000   0.290   3.145  14.702  0.8571 -1.0507 -0.1511
17195TIP3    H273001   0.237   3.008  14.664 -1.2560 -0.1048 -0.7337
17196TIP3   OH273002   3.387   3.997  14.984  0.4826 -0.6635 -0.0038
17196TIP3    H173003   3.355   4.081  14.952  1.0435 -0.1413  0.7858
17196TIP3    H273004   3.329   3.976  15.058 -0.0851 -1.3095 -0.6163
17197TIP3   OH273005   3.555   2.430  15.364 -0.0814  0.4613  0.3225
17197TIP3    H173006   3.516   2.408  15.280 -2.0429  2.7351  0.5468
17197TIP3    H273007   3.557   2.347  15.412 -4.9392  0.1072  0.3427
17198TIP3   OH273008   3.624   0.692  15.440  0.0265  0.4074  0.3931
17198TIP3    H173009   3.633   0.785  15.419  1.6921 -0.1144 -1.4751
17198TIP3    H273010   3.680   0.678  15.516  1.2780  0.6152 -0.4630
17199TIP3   OH273011   2.558   4.651   3.467  0.5904 -0.5304  0.0207
17199TIP3    H173012   2.586   4.690   3.384  0.6978 -0.8665 -0.1023
17199TIP3    H273013   2.465   4.634   3.455  0.5799 -0.4684  0.0132
17200TIP3   OH273014   4.426   2.641  10.693  0.0500  0.3754 -0.5143
17200TIP3    H173015   4.399   2.715  10.639 -1.4716  0.4411  0.2807
17200TIP3    H273016   4.509   2.613  10.655 -0.4865  1.0216 -2.2670
17201TIP3   OH273017   1.884   1.373  13.187 -0.0568 -0.3803 -0.4436
17201TIP3    H173018   1.837   1.349  13.107 -1.5632  3.6336 -0.9917
17201TIP3    H273019   1.815   1.397  13.248  1.1778  0.9091  0.4952
17202TIP3   OH273020   2.681   6.020  11.931  0.6213 -0.0288  0.5030
17202TIP3    H173021   2.727   6.095  11.969  0.2187  0.9472 -0.8387
17202TIP3    H273022   2.657   6.049  11.843 -0.7169 -1.2805  0.4216
17203TIP3   OH273023   1.716   4.280  14.935 -0.1900 -0.4495 -0.3972
17203TIP3    H173024   1.631   4.287  14.978 -0.0082 -0.1330 -0.0803
17203TIP3    H273025   1.737   4.370  14.909  0.2925 -0.4323  0.0204
17204TIP3   OH273026   6.361   1.042  13.610  0.1769  0.7345 -0.2250
17204TIP3    H173027   6.427   1.058  13.676  0.4538 -1.2933  0.0443
17204TIP3    H273028   6.308   0.971  13.645 -1.5202  1.6021 -0.8979
17205TIP3   OH273029   1.573   0.061   1.894  0.4129  0.2550 -0.2879
17205TIP3    H173030   1.590   0.151   1.922 -1.0063 -0.3976  3.2018
17205TIP3    H273031   1.489   0.066   1.849  0.0673  0.6291  0.3783
17206TIP3   OH273032   1.057   0.003  14.491  0.3149 -0.4402 -0.1187
17206TIP3    H173033   0.964  -0.011  14.509 -0.1100  2.1427  0.0379
17206TIP3    H273034   1.069   0.097  14.499  2.5351 -0.4667 -2.1298
17207TIP3   OH273035   2.124   5.532   3.227  0.5256  0.0369 -0.6671
17207TIP3    H173036   2.059   5.541   3.157  0.1686  0.4549 -0.2866
17207TIP3    H273037   2.076   5.495   3.300  0.6065  0.7487 -0.2415
17208TIP3   OH273038   5.763   3.727   3.818  0.3826  0.4359  0.4047
17208TIP3    H173039   5.713   3.674   3.756  1.5167  1.0667 -1.1137
17208TIP3    H273040   5.706   3.803   3.835 -0.6834 -0.5810  1.5703
17209TIP3   OH273041   6.106   6.007   4.113  0.2992 -0.5847  0.2491
17209TIP3    H173042   6.088   6.100   4.100 -3.6571 -1.1555  0.3618
17209TIP3    H273043   6.168   6.004   4.186  0.5585  1.9439  0.2004
17210TIP3   OH273044   5.534   0.285   1.452  0.4380 -0.1560  0.2477
17210TIP3    H173045   5.626   0.260   1.449  0.8443  1.1581  0.7776
17210TIP3    H273046   5.534   0.379   1.430 -0.9937 -0.5566 -1.7635
17211TIP3   OH273047   0.718   4.054  11.194  0.5439 -0.0564 -0.2738
17211TIP3    H173048   0.791   4.116  11.195  1.1846 -0.7752 -1.0902
17211TIP3    H273049   0.663   4.082  11.120 -0.0102  0.4665  0.3208
17212TIP3   OH273050   2.109   3.022  14.706 -0.2353 -0.2757 -0.0601
17212TIP3    H173051   2.129   2.929  14.707  1.1712 -0.0452 -1.3571
17212TIP3    H273052   2.182   3.061  14.658 -0.9027  1.4682  0.2637
17213TIP3   OH273053   1.598   0.167  15.087 -0.1120 -0.3201 -0.2594
17213TIP3    H173054   1.540   0.193  15.015 -0.1156  0.0602 -0.1210
17213TIP3    H273055   1.572   0.077  15.107 -1.1249  0.0633  0.2518
17214TIP3   OH273056   2.193   2.673   4.157 -0.0836 -0.2673 -0.0409
17214TIP3    H173057   2.183   2.605   4.223  1.1856  0.0943  0.5591
17214TIP3    H273058   2.234   2.746   4.203  1.0276 -0.0808 -1.2491
17215TIP3   OH273059   1.799   5.431  14.253 -0.2262  0.6429 -0.3695
17215TIP3    H173060   1.769   5.450  14.164 -1.1854 -0.2232 -0.2479
17215TIP3    H273061   1.804   5.335  14.256  0.2595  0.6829  0.3713
17216TIP3   OH273062   6.001   5.666   5.788  0.3288 -0.0621 -0.1947
17216TIP3    H173063   5.968   5.708   5.867  0.4004 -0.7732  0.2178
17216TIP3    H273064   5.942   5.593   5.773  0.8951 -0.5223 -0.2305
17217TIP3   OH273065   2.476   4.205   1.696 -0.3631  0.7254  0.5034
17217TIP3    H173066   2.454   4.113   1.679 -1.8252  0.9285  1.1344
17217TIP3    H273067   2.509   4.238   1.612 -0.6580 -0.1382  0.0379
17218TIP3   OH273068   5.764   4.470   5.063  0.0097 -0.8896 -0.4041
17218TIP3    H173069   5.772   4.460   4.968  1.5279  2.9325 -0.8556
17218TIP3    H273070   5.676   4.507   5.075  0.7356  1.0125 -0.6738
17219TIP3   OH273071   1.374   1.681  13.402  0.7334  1.0934  0.2161
17219TIP3    H173072   1.358   1.736  13.326 -2.3456 -2.1224 -1.7234
17219TIP3    H273073   1.436   1.615  13.372 -0.6043 -0.2847  0.3686
17220TIP3   OH273074   6.401   1.315  12.175 -0.5098 -0.4077  0.2117
17220TIP3    H173075   6.400   1.250  12.105  0.3813  0.0889 -0.2849
17220TIP3    H273076   6.442   1.392  12.136  0.3748 -0.2459  1.3967
17221TIP3   OH273077   6.398   5.715  11.623 -0.1896 -0.2855 -0.0502
17221TIP3    H173078   6.451   5.695  11.700 -1.8996 -1.0826  0.9899
17221TIP3    H273079   6.358   5.800  11.643 -0.5898 -0.4657 -0.0572
17222TIP3   OH273080   5.938   0.077   3.936  0.0017 -0.1449 -0.6774
17222TIP3    H173081   5.941  -0.005   3.885  1.9278  0.4376 -1.6114
17222TIP3    H273082   5.981   0.141   3.880  0.7399  0.9246  1.0405
17223TIP3   OH273083   6.795   2.733  16.827  0.3006 -0.7282  0.0629
17223TIP3    H173084   6.760   2.679  16.898  0.4163 -1.6192 -0.5467
17223TIP3    H273085   6.788   2.823  16.860 -0.6459 -1.0466  0.7636
17224TIP3   OH273086   6.286   3.440  11.218  0.3332 -0.5126 -0.3052
17224TIP3    H173087   6.230   3.441  11.140  0.4357 -3.8950 -0.5557
17224TIP3    H273088   6.321   3.529  11.223 -1.4198  0.4377 -2.8042
17225TIP3   OH273089   3.266   2.294  16.970  0.1820  0.7021 -0.8213
17225TIP3    H173090   3.358   2.316  16.979  0.2322 -0.0999  0.8426
17225TIP3    H273091   3.257   2.206  17.007 -1.4298  1.2177  0.1474
17226TIP3   OH273092   3.270   3.336  14.039 -0.0220  0.0952 -0.3328
17226TIP3    H173093   3.257   3.270  13.971  0.3232  0.4470 -0.7415
17226TIP3    H273094   3.335   3.297  14.098 -0.7156 -0.4324  0.0955
17227TIP3   OH273095   1.523   4.935  14.261  0.3337  0.1663 -0.8441
17227TIP3    H173096   1.618   4.932  14.248  0.3826 -0.1122 -0.4523
17227TIP3    H273097   1.506   4.866  14.326 -0.3171 -0.8365 -2.0374
17228TIP3   OH273098   5.671   5.752  14.405  0.2885 -0.0283 -0.0054
17228TIP3    H173099   5.588   5.764  14.360  0.0749  1.5453  0.7331
17228TIP3    H273100   5.734   5.805  14.356  0.4604  0.2072  0.4606
17229TIP3   OH273101   0.642   6.311   1.477  0.3192  0.2265 -0.3404
17229TIP3    H173102   0.602   6.227   1.455  0.9325 -0.0704 -0.3456
17229TIP3    H273103   0.658   6.353   1.393  0.6858  0.0237 -0.3763
17230TIP3   OH273104   6.693   1.492  15.539 -0.6882 -0.2435 -0.0578
17230TIP3    H173105   6.780   1.520  15.509  0.2179  0.4538  2.8658
17230TIP3    H273106   6.638   1.571  15.530 -0.2125  0.2019  0.8052
17231TIP3   OH273107   0.327   4.971   5.673 -0.2576  0.5031  0.1479
17231TIP3    H173108   0.235   4.969   5.645 -0.2291  1.0729 -0.0054
17231TIP3    H273109   0.350   4.879   5.687 -0.8625  0.3560  0.2274
17232TIP3   OH273110   4.020   3.830  13.183  0.7986 -0.5018  0.3164
17232TIP3    H173111   3.964   3.880  13.123  0.9254  0.6437  1.1351
17232TIP3    H273112   4.103   3.877  13.184  0.9305 -0.7397  1.0914
17233TIP3   OH273113   3.798   4.394  10.780 -0.2220  0.7480  0.4116
17233TIP3    H173114   3.853   4.357  10.711 -1.7249 -1.7601  0.4488
17233TIP3    H273115   3.808   4.332  10.853 -1.4281  1.4224  1.1642
17234TIP3   OH273116   4.600   4.851  14.781 -0.0557 -0.3399 -0.3399
17234TIP3    H173117   4.668   4.786  14.762 -0.1038 -0.5625  0.2329
17234TIP3    H273118   4.580   4.890  14.696 -1.2636 -2.2907 -1.0266
17235TIP3   OH273119   2.827   5.800   2.512 -0.4570 -0.0105 -0.2406
17235TIP3    H173120   2.780   5.740   2.569  0.6112  0.4703  1.2369
17235TIP3    H273121   2.874   5.744   2.450 -0.8237 -0.6110  0.0191
17236TIP3   OH273122   4.066   1.380  12.199 -0.3041  0.1328  0.2699
17236TIP3    H173123   4.052   1.473  12.219 -0.2594 -0.1804  1.9623
17236TIP3    H273124   4.001   1.334  12.252  0.6489 -0.8608  0.6236
17237TIP3   OH273125   1.481   5.471   0.873 -0.8660  0.2847 -0.1042
17237TIP3    H173126   1.388   5.484   0.857 -0.7320 -0.8396 -2.1943
17237TIP3    H273127   1.523   5.495   0.790  0.6173 -0.1256  0.4885
17238TIP3   OH273128   1.379   3.966   5.848 -0.1158  0.5661 -0.4142
17238TIP3    H173129   1.436   3.942   5.921 -1.1930 -0.3779  0.1404
17238TIP3    H273130   1.387   4.061   5.842  2.8578  0.3768 -1.5072
17239TIP3   OH273131   3.551   6.240   3.787  0.6388 -0.3243  0.0902
17239TIP3    H173132   3.550   6.236   3.882 -0.0079  0.1926  0.1150
17239TIP3    H273133   3.616   6.307   3.767  1.5662 -1.1982  0.1234
17240TIP3   OH273134   2.654   1.151   4.392  0.5960 -0.0351  0.3210
17240TIP3    H173135   2.561   1.157   4.370  0.8048  0.3059 -0.5045
17240TIP3    H273136   2.655   1.132   4.486 -0.3253 -1.1507  0.1344
17241TIP3   OH273137   6.132   5.276  14.990 -0.3945  0.0199  0.6247
17241TIP3    H173138   6.067   5.208  14.974 -0.0837 -0.0327 -0.4760
17241TIP3    H273139   6.209   5.228  15.020 -0.3521 -0.0637  0.3834
17242TIP3   OH273140   5.771   3.306   2.809 -0.3017 -0.2064 -0.5045
17242TIP3    H173141   5.767   3.217   2.776 -1.9970  0.0043 -0.9287
17242TIP3    H273142   5.763   3.297   2.904  2.2159 -0.6428 -0.2584
17243TIP3   OH273143   4.990   6.195  11.993 -0.2152 -0.0704 -0.0322
17243TIP3    H173144   4.965   6.284  11.968  1.6800  0.3465 -0.5348
17243TIP3    H273145   5.080   6.202  12.023 -0.1918 -1.7479  0.3791
17244TIP3   OH273146   5.119   2.266   4.084 -0.1621  0.2315  0.4911
17244TIP3    H173147   5.142   2.210   4.158 -3.9317 -0.0892  1.6428
17244TIP3    H273148   5.137   2.355   4.115 -0.0393 -0.0001  1.1034
17245TIP3   OH273149   5.857   6.146  12.316 -0.0480  0.0273 -0.3238
17245TIP3    H173150   5.879   6.058  12.344  1.5203  0.9030  1.3914
17245TIP3    H273151   5.925   6.169  12.252 -0.4394  0.0194 -0.7513
17246TIP3   OH273152   6.418   4.736   6.336  0.1759 -0.0983  0.6644
17246TIP3    H173153   6.373   4.810   6.376  0.4900 -1.0049  2.8736
17246TIP3    H273154   6.349   4.683   6.298 -0.0071  1.5443 -1.4726
17247TIP3   OH273155   5.426   4.290   1.911 -0.9013 -0.0557 -0.3674
17247TIP3    H173156   5.358   4.277   1.845 -1.4940 -0.0608  0.2402
17247TIP3    H273157   5.466   4.374   1.889 -2.4765  0.9582  0.4757
17248TIP3   OH273158   1.043   2.434   3.427  0.1653  0.4995  0.1454
17248TIP3    H173159   0.967   2.475   3.467 -0.9086 -0.8982 -0.3971
17248TIP3    H273160   1.008   2.359   3.380  1.6657  0.8208 -1.5864
17249TIP3   OH273161   0.986   4.348   2.053  0.4914  0.0755 -0.4450
17249TIP3    H173162   0.986   4.255   2.074 -2.2980  0.0289 -0.3692
17249TIP3    H273163   1.005   4.391   2.137 -0.6991 -0.3688  0.0650
17250TIP3   OH273164   3.996   4.173  15.608  0.0122 -0.3010  0.3714
17250TIP3    H173165   3.915   4.142  15.567 -0.6397 -0.4794  1.7268
17250TIP3    H273166   3.968   4.204  15.695  1.6216 -1.7771  1.4763
17251TIP3   OH273167   4.533   0.707  17.243 -0.5034  0.0832 -0.3900
17251TIP3    H173168   4.448   0.678  17.211 -0.5252  1.5999 -1.8442
17251TIP3    H273169   4.568   0.632  17.290 -2.8062 -0.4330  0.6045
17252TIP3   OH273170   2.750   3.016  12.816  0.1387  0.0378  0.3490
17252TIP3    H173171   2.775   2.925  12.801  1.5945  0.4194  0.2602
17252TIP3    H273172   2.769   3.060  12.732 -1.2234  0.2927  0.1603
17253TIP3   OH273173   5.886   6.328  12.064  0.3437  0.0141  0.2633
17253TIP3    H173174   5.885   6.422  12.084  1.4369 -0.0797  0.8252
17253TIP3    H273175   5.972   6.313  12.025  0.3945 -0.8695  0.7102
17254TIP3   OH273176   0.545   3.372   4.012  0.0634  0.4738 -0.2058
17254TIP3    H173177   0.516   3.332   3.930  0.4757 -0.6344  0.1658
17254TIP3    H273178   0.580   3.457   3.986  0.2666  0.1038 -1.2041
17255TIP3   OH273179   1.827   4.331  13.079 -0.0395 -0.6110  0.2171
17255TIP3    H173180   1.819   4.252  13.132  0.3974 -1.4599 -0.9218
17255TIP3    H273181   1.893   4.384  13.124  1.1990 -1.8467 -0.0678
17256TIP3   OH273182   6.506   3.780  10.619  0.1562 -0.3589 -0.4798
17256TIP3    H173183   6.519   3.871  10.644 -0.0298 -1.0517  2.5592
17256TIP3    H273184   6.420   3.778  10.577 -1.4285  0.4821  2.4404
17257TIP3   OH273185   4.929   5.046  13.630 -0.3373  0.0614  0.2147
17257TIP3    H173186   4.868   4.993  13.683 -1.1578  0.4459 -0.3253
17257TIP3    H273187   4.920   5.011  13.541  2.2746 -1.7219  0.5401
17258TIP3   OH273188   5.441   2.618   5.503 -0.2292  0.2476 -0.0490
17258TIP3    H173189   5.397   2.700   5.524 -3.4137 -1.5049  0.7357
17258TIP3    H273190   5.479   2.589   5.585  0.5888  0.6927 -0.2511
17259TIP3   OH273191   4.367   0.094   5.011 -0.3312  0.5137  0.3082
17259TIP3    H173192   4.422   0.075   5.087  0.3209  1.0472 -0.0169
17259TIP3    H273193   4.429   0.103   4.939 -1.0447 -1.8295 -0.6976
17260TIP3   OH273194   4.088   0.112   3.911 -0.7104 -0.0704 -0.0850
17260TIP3    H173195   4.082   0.203   3.883 -0.1997 -0.0315 -0.0870
17260TIP3    H273196   4.107   0.064   3.830 -0.5916 -0.1277 -0.0235
17261TIP3   OH273197   0.953   2.677   5.596 -0.2757 -0.1950  0.3527
17261TIP3    H173198   0.991   2.765   5.597  1.4175 -0.8735 -0.3259
17261TIP3    H273199   0.916   2.667   5.508 -0.1382 -0.2890  0.3049
17262TIP3   OH273200   5.585   4.380   5.497  0.0681  0.1036  0.0286
17262TIP3    H173201   5.504   4.371   5.547  1.2184 -1.9494  1.7001
17262TIP3    H273202   5.558   4.368   5.406 -1.8598  2.3413  0.1910
17263TIP3   OH273203   6.358   4.270   3.476 -0.2403  0.5619 -0.7980
17263TIP3    H173204   6.271   4.231   3.488  0.4578 -1.0635 -0.8112
17263TIP3    H273205   6.369   4.275   3.381  0.7769 -1.8970 -0.8670
17264TIP3   OH273206   1.147   4.273   1.350  0.0559 -0.5259 -1.1037
17264TIP3    H173207   1.226   4.286   1.403 -0.6767 -1.2794  0.2407
17264TIP3    H273208   1.098   4.355   1.360 -0.8842 -1.2510  0.8923
17265TIP3   OH273209   6.498   2.836   3.079 -0.0893 -0.3029  0.2809
17265TIP3    H173210   6.450   2.755   3.058 -0.4126 -0.1157  0.2944
17265TIP3    H273211   6.429   2.899   3.102  0.1412  0.0779 -0.0623
17266TIP3   OH273212   0.227   5.077  10.939 -0.1440 -0.0837  0.2888
17266TIP3    H173213   0.135   5.056  10.926  0.0005 -0.6782  0.1897
17266TIP3    H273214   0.228   5.137  11.014 -0.7577  1.3506 -0.7980
17267TIP3   OH273215   2.889   6.333  11.055 -0.6776  0.6165  0.6527
17267TIP3    H173216   2.843   6.270  10.998  1.5192  0.3760 -0.9658
17267TIP3    H273217   2.826   6.405  11.065 -1.2764  0.5661 -1.9386
17268TIP3   OH273218   6.255   3.287   5.006 -0.2493  0.2948  0.4776
17268TIP3    H173219   6.294   3.345   4.940  0.0747  0.4083  0.7635
17268TIP3    H273220   6.238   3.345   5.081  1.5838 -0.2562  1.3859
17269TIP3   OH273221   1.832   0.749   0.677  0.1319 -0.3581 -0.0851
17269TIP3    H173222   1.824   0.747   0.582  0.0894 -0.1715 -0.0852
17269TIP3    H273223   1.744   0.726   0.708  0.0931 -0.2185 -0.0906
17270TIP3   OH273224   1.403   4.290  11.705  0.2807  0.2518 -0.3538
17270TIP3    H173225   1.392   4.286  11.610 -0.8765 -0.5782 -0.2140
17270TIP3    H273226   1.486   4.244  11.721  1.1032  1.4588 -1.0360
17271TIP3   OH273227   1.739   1.480   3.426 -0.6207 -0.0210  0.2361
17271TIP3    H173228   1.678   1.462   3.354 -0.4769 -0.4037  0.2086
17271TIP3    H273229   1.824   1.452   3.393 -0.2701  1.3586 -0.0671
17272TIP3   OH273230   1.576   3.446   3.407  0.0926  0.1124  0.1091
17272TIP3    H173231   1.552   3.392   3.332  1.7973 -1.0811  0.3517
17272TIP3    H273232   1.507   3.430   3.471  0.2001 -1.3117 -0.0847
17273TIP3   OH273233   5.112   0.927   2.829 -0.4300  0.4691  0.2183
17273TIP3    H173234   5.116   0.837   2.862  1.3686  1.0759  1.8750
17273TIP3    H273235   5.093   0.980   2.906 -1.4955  1.5475 -0.7378
17274TIP3   OH273236   3.697   6.464   6.318  0.2707  0.4495  0.1877
17274TIP3    H173237   3.757   6.518   6.369 -2.6875  2.1003  2.2553
17274TIP3    H273238   3.657   6.405   6.382 -0.1164 -0.7872 -1.1472
17275TIP3   OH273239   5.748   5.709  12.681  0.1129 -0.0964  0.7223
17275TIP3    H173240   5.672   5.657  12.656 -0.4143  0.6000  0.8540
17275TIP3    H273241   5.712   5.792  12.713  0.9140  0.1696  0.9715
17276TIP3   OH273242   4.654   0.238  15.257 -0.4491  0.3712  0.3041
17276TIP3    H173243   4.674   0.171  15.193 -1.9837 -0.5134  0.6908
17276TIP3    H273244   4.592   0.296  15.212 -4.7145 -2.3918  1.9434
17277TIP3   OH273245   3.575   3.281  16.499 -0.0139  0.3764 -0.4731
17277TIP3    H173246   3.641   3.332  16.453 -0.4930  0.2395 -1.3334
17277TIP3    H273247   3.494   3.296  16.450 -0.6956  0.7949  0.7395
17278TIP3   OH273248   6.176   3.528   0.562 -0.2147 -0.1610 -0.6703
17278TIP3    H173249   6.257   3.547   0.611 -0.0897  1.1232 -1.3133
17278TIP3    H273250   6.152   3.613   0.524 -0.8556 -0.9252 -2.0063
17279TIP3   OH273251   4.920   4.476   1.269 -0.7010 -0.3869  0.0771
17279TIP3    H173252   4.983   4.447   1.335 -0.2634  0.2116 -0.0641
17279TIP3    H273253   4.850   4.518   1.319  0.9911  2.6969  0.1064
17280TIP3   OH273254   2.819   1.304  16.764 -0.1553  0.3740  0.8002
17280TIP3    H173255   2.759   1.242  16.724  0.2146 -0.5923  1.6887
17280TIP3    H273256   2.864   1.345  16.690  0.0527 -0.8953  0.1849
17281TIP3   OH273257   6.432   1.620  13.822  0.3306 -0.4276 -0.8587
17281TIP3    H173258   6.476   1.609  13.907 -0.6281 -0.3393 -0.3379
17281TIP3    H273259   6.430   1.532  13.784 -0.6009 -0.7531 -0.0889
17282TIP3   OH273260   0.093   6.400  14.715 -0.1055  0.3113 -0.2933
17282TIP3    H173261   0.100   6.305  14.730  1.2871  0.6427  1.5801
17282TIP3    H273262   0.177   6.425  14.678 -1.4646  0.4640 -3.5908
17283TIP3   OH273263   5.089   4.748   6.781 -0.8138  0.4698 -0.2003
17283TIP3    H173264   5.175   4.727   6.817 -0.1680  4.0551  0.6399
17283TIP3    H273265   5.098   4.734   6.687 -0.5414 -2.6503  0.1598
17284TIP3   OH273266   1.964   1.522  16.075  0.2584 -0.3861  0.2651
17284TIP3    H173267   2.047   1.522  16.122  0.1370 -1.2248  0.5008
17284TIP3    H273268   1.980   1.469  15.997  0.1104 -0.0388 -0.0079
17285TIP3   OH273269   5.304   5.763  13.834  0.3400 -0.8752  0.0593
17285TIP3    H173270   5.323   5.817  13.757  1.4474 -1.6225 -0.2173
17285TIP3    H273271   5.390   5.742  13.870 -0.1259 -1.4044  0.8972
17286TIP3   OH273272   3.489   6.263  15.706 -0.4388  0.1966 -0.2227
17286TIP3    H173273   3.513   6.223  15.623 -0.4640  0.6805 -0.4648
17286TIP3    H273274   3.546   6.221  15.770 -0.6733 -0.4394 -0.4299
17287TIP3   OH273275   2.854   1.773  12.382 -0.0729 -0.1089  0.1776
17287TIP3    H173276   2.894   1.735  12.304 -1.4843  1.7116 -1.5382
17287TIP3    H273277   2.923   1.770  12.448  1.6335 -0.4837 -1.5376
17288TIP3   OH273278   1.899   5.720   0.635 -0.0963  0.5157  1.0600
17288TIP3    H173279   1.901   5.681   0.723  1.1500 -0.0362  0.8080
17288TIP3    H273280   1.985   5.699   0.597 -0.8745  0.1277 -0.5674
17289TIP3   OH273281   0.112   1.266  13.321  1.1430  0.2534 -0.3028
17289TIP3    H173282   0.170   1.195  13.296  1.3047 -1.6442  4.3873
17289TIP3    H273283   0.024   1.231  13.310  1.2044 -0.4217  1.1405
17290TIP3   OH273284   0.299   6.445   2.664  0.1424 -0.4940  0.1796
17290TIP3    H173285   0.232   6.397   2.615 -0.6281  1.1228 -0.4164
17290TIP3    H273286   0.265   6.451   2.753 -1.5526  2.0473 -0.5477
17291TIP3   OH273287   0.240   0.996   4.876  0.4159 -0.6444 -0.3521
17291TIP3    H173288   0.203   1.030   4.795  1.6818  0.0585 -0.6625
17291TIP3    H273289   0.207   0.907   4.883 -0.1608 -0.5169 -1.3366
17292TIP3   OH273290   4.439   5.817   2.905 -0.1479 -0.2745  0.2890
17292TIP3    H173291   4.456   5.892   2.848 -0.9948  0.3425  0.8293
17292TIP3    H273292   4.401   5.855   2.984  0.7193 -1.1382  1.1611
17293TIP3   OH273293   2.996   6.394  13.047 -0.0426 -0.1624 -0.3468
17293TIP3    H173294   2.948   6.313  13.062 -0.1910  0.1905  1.2150
17293TIP3    H273295   2.957   6.430  12.967 -0.9393 -0.9181 -0.2730
17294TIP3   OH273296   2.330   0.611   1.340 -0.6086 -0.0778  0.2267
17294TIP3    H173297   2.268   0.631   1.411 -0.1056  1.8926  0.1660
17294TIP3    H273298   2.389   0.686   1.338  1.7237 -1.8109  0.1676
17295TIP3   OH273299   1.964   4.135   2.941 -0.0269 -0.5156 -0.1237
17295TIP3    H173300   2.018   4.066   2.903 -2.9797 -2.8924 -0.3916
17295TIP3    H273301   1.971   4.122   3.036  0.7878 -0.0133 -0.1073
17296TIP3   OH273302   3.212   1.676   2.463 -0.0891  0.8473 -0.0592
17296TIP3    H173303   3.144   1.681   2.531  1.1398 -1.4011  1.4579
17296TIP3    H273304   3.289   1.715   2.503  1.0293 -1.7102  0.4714
17297TIP3   OH273305   4.212   5.972  16.236  0.1035  0.2891 -0.2675
17297TIP3    H173306   4.281   6.039  16.243  0.8962 -0.5072 -0.2429
17297TIP3    H273307   4.237   5.906  16.301 -0.3780 -0.2876 -0.6615
17298TIP3   OH273308   5.579   6.143  11.913 -0.2783 -0.2919 -0.0064
17298TIP3    H173309   5.528   6.076  11.867  2.0431 -2.8770  0.8885
17298TIP3    H273310   5.667   6.136  11.876  0.4975  0.9016  1.5048
17299TIP3   OH273311   6.615   1.869   3.423 -0.2141  0.5379 -0.3280
17299TIP3    H173312   6.560   1.864   3.501  0.8190  0.3308  0.3971
17299TIP3    H273313   6.683   1.932   3.445  0.1716  0.3708 -1.0106
17300TIP3   OH273314   4.023   4.076  12.628 -0.2398  0.3448 -0.4484
17300TIP3    H173315   3.955   4.014  12.654  0.0939  0.0910 -0.1670
17300TIP3    H273316   3.976   4.153  12.598 -0.7106 -0.4618 -1.8923
17301TIP3   OH273317   2.052   1.066   5.131  0.5957 -0.4691  0.4011
17301TIP3    H173318   2.129   1.038   5.081  0.7708  0.1823  0.2975
17301TIP3    H273319   2.068   1.158   5.151 -0.3957 -0.1758 -0.0735
17302TIP3   OH273320   6.383   5.270   4.907  0.2084 -0.0732 -0.5817
17302TIP3    H173321   6.354   5.285   4.817 -1.7112 -1.0391 -0.1726
17302TIP3    H273322   6.463   5.218   4.897 -0.2359 -0.5895 -1.7387
17303TIP3   OH273323   3.629   6.794   1.756 -0.3757  0.1047  0.1145
17303TIP3    H173324   3.620   6.776   1.663 -1.0027  1.1595 -0.0386
17303TIP3    H273325   3.548   6.840   1.780 -1.0521 -1.6884  1.5639
17304TIP3   OH273326   0.615   0.163   0.996 -0.2844  0.0607  0.0999
17304TIP3    H173327   0.607   0.170   1.091 -0.2695 -1.3409  0.2271
17304TIP3    H273328   0.694   0.212   0.975  1.0290 -1.5407  1.1108
17305TIP3   OH273329   5.214   3.453   3.158  0.7467  0.4794 -0.3407
17305TIP3    H173330   5.215   3.361   3.186  2.1297  0.9912  1.4876
17305TIP3    H273331   5.303   3.470   3.129  0.6485  1.3957 -0.1349
17306TIP3   OH273332   3.638   4.216   4.669 -0.1215 -0.5368  0.0814
17306TIP3    H173333   3.580   4.147   4.636 -0.2949 -0.2118 -0.3110
17306TIP3    H273334   3.589   4.297   4.654  0.1233 -0.3217  0.4426
17307TIP3   OH273335   4.825   1.646  16.300  0.1811 -0.1205 -0.3915
17307TIP3    H173336   4.799   1.732  16.333 -1.8717 -1.0940  0.7393
17307TIP3    H273337   4.886   1.665  16.228 -0.6183  2.2722 -0.5278
17308TIP3   OH273338   2.909   3.944   1.343  0.4526  0.6652  0.0044
17308TIP3    H173339   2.928   4.038   1.337  1.6182  0.4230 -0.3406
17308TIP3    H273340   2.950   3.906   1.265 -0.5348 -0.0627 -0.1838
17309TIP3   OH273341   2.075   5.690   5.219  0.2959 -0.0277  0.0767
17309TIP3    H173342   2.021   5.629   5.270 -0.1509  0.3543  0.0690
17309TIP3    H273343   2.059   5.775   5.259  0.6625  0.1368 -0.1231
17310TIP3   OH273344   1.736   2.989   4.176 -0.2136  0.3962  0.1860
17310TIP3    H173345   1.823   3.029   4.171  0.3075 -0.8007 -2.5521
17310TIP3    H273346   1.679   3.049   4.127 -0.3880  0.0114 -0.0927
17311TIP3   OH273347   0.648   4.587   5.640 -0.5276  0.3557 -0.1473
17311TIP3    H173348   0.698   4.544   5.709  0.5648 -0.1041 -1.1984
17311TIP3    H273349   0.565   4.539   5.637 -0.5345  0.2942  0.7360
17312TIP3   OH273350   2.232   4.688   2.777  0.2895  0.2862  0.3493
17312TIP3    H173351   2.258   4.719   2.863 -0.1413 -1.8654  1.3292
17312TIP3    H273352   2.291   4.614   2.759 -0.2593  0.0880 -0.7506
17313TIP3   OH273353   5.417   4.512   0.127  0.2101 -0.6986 -0.7152
17313TIP3    H173354   5.441   4.440   0.069 -0.2338 -0.2613 -1.4455
17313TIP3    H273355   5.398   4.585   0.069  1.3034  0.2246  0.0291
17314TIP3   OH273356   1.946   6.301   0.055  0.0828  0.5449 -0.4216
17314TIP3    H173357   2.003   6.271  -0.015 -0.7846 -1.0150 -0.4875
17314TIP3    H273358   1.862   6.258   0.039 -0.7981  1.9073  0.3173
17315TIP3   OH273359   3.728   4.814   4.241  0.2607  0.5857 -0.1516
17315TIP3    H173360   3.677   4.736   4.219  0.1736  0.4868  0.3949
17315TIP3    H273361   3.697   4.880   4.180  0.5413  0.1195 -0.8187
17316TIP3   OH273362   4.967   6.803  12.293 -0.3145  0.2985 -0.8018
17316TIP3    H173363   4.992   6.847  12.374  0.3222 -0.9431 -0.2860
17316TIP3    H273364   5.051   6.780  12.252 -0.6022 -0.9868 -0.7198
17317TIP3   OH273365   1.026   4.788   4.732 -0.2137 -0.4305 -0.3499
17317TIP3    H173366   1.106   4.814   4.686 -2.0976  1.1282 -3.0219
17317TIP3    H273367   1.007   4.862   4.789 -0.1069 -0.5206 -0.1968
17318TIP3   OH273368   1.086   6.344  15.905  0.1282 -0.7241  0.5902
17318TIP3    H173369   1.009   6.296  15.935 -2.5432  1.8369 -1.4997
17318TIP3    H273370   1.111   6.399  15.979 -1.4477 -0.0727  0.6770
17319TIP3   OH273371   2.975   0.631  14.742 -0.1995  0.2707 -0.1161
17319TIP3    H173372   2.922   0.571  14.794  0.0519  0.1901  0.0543
17319TIP3    H273373   2.972   0.597  14.653 -1.5395  1.0324 -0.3794
17320TIP3   OH273374   4.757   2.751  16.937  0.3404 -0.2127  0.2113
17320TIP3    H173375   4.819   2.822  16.951 -1.3539  1.9686 -2.3121
17320TIP3    H273376   4.810   2.677  16.909  1.9542  0.8649  0.3276
17321TIP3   OH273377   4.100   3.379  16.821 -0.0850 -0.4630  0.0774
17321TIP3    H173378   4.059   3.309  16.771  1.0197 -0.6973 -0.5255
17321TIP3    H273379   4.193   3.370  16.805  0.6137 -1.8832  3.8961
17322TIP3   OH273380   3.816   4.503   0.232  0.7376  0.2014  0.2276
17322TIP3    H173381   3.757   4.557   0.179 -1.1359 -0.3029  1.6893
17322TIP3    H273382   3.856   4.443   0.170 -0.1133  0.7136 -0.8551
17323TIP3   OH273383   3.245   3.839  15.263  0.6346  0.0085 -0.0967
17323TIP3    H173384   3.315   3.856  15.326  0.0386  1.6258  0.1579
17323TIP3    H273385   3.235   3.744  15.264  1.3216 -0.0792  1.4901
17324TIP3   OH273386   4.612   2.573  12.521  0.3018  0.3570  0.3679
17324TIP3    H173387   4.640   2.578  12.612 -0.6410 -0.5288  0.7302
17324TIP3    H273388   4.528   2.527  12.524  1.3575 -1.8267 -1.1501
17325TIP3   OH273389   5.793   4.616  14.917 -0.5027  0.0434  0.1107
17325TIP3    H173390   5.851   4.657  14.852 -1.2656  0.3262 -0.4110
17325TIP3    H273391   5.834   4.635  15.001 -0.7494  1.7855 -0.1220
17326TIP3   OH273392   4.364   0.458   0.534 -0.5818  0.0105  0.1398
17326TIP3    H173393   4.417   0.488   0.460 -0.4840 -0.0476  0.1858
17326TIP3    H273394   4.365   0.363   0.528  1.1792 -0.0980  1.4134
17327TIP3   OH273395   2.017   2.416  13.685  0.3261 -0.5170  0.2424
17327TIP3    H173396   2.032   2.400  13.778  0.2977 -1.8008  0.0416
17327TIP3    H273397   1.927   2.387  13.670 -0.2858  1.3123  0.1550
17328TIP3   OH273398   1.545   3.210  10.976  0.3088  0.0012  0.1257
17328TIP3    H173399   1.460   3.223  11.018 -0.3034  0.3744 -1.1787
17328TIP3    H273400   1.543   3.119  10.945  1.4316 -0.8282  2.3076
17329TIP3   OH273401   4.755   1.663  14.125 -0.1712  0.4158  0.2314
17329TIP3    H173402   4.798   1.748  14.131  1.9130 -0.6549  1.9640
17329TIP3    H273403   4.826   1.600  14.138 -1.8545 -1.5493  0.2472
17330TIP3   OH273404   2.943   3.077   4.579  0.0184 -0.0671  0.1071
17330TIP3    H173405   2.981   3.077   4.491 -1.0904 -0.2507 -0.3975
17330TIP3    H273406   3.017   3.094   4.637  0.8407 -0.3022 -0.8305
17331TIP3   OH273407   3.845   2.673  14.490  0.0254  0.1756  0.2751
17331TIP3    H173408   3.816   2.597  14.440 -0.2807 -0.1145  0.8807
17331TIP3    H273409   3.936   2.653  14.513 -0.5779 -0.8613  1.9710
17332TIP3   OH273410   4.531   2.290  12.052 -0.2602 -0.1825  0.1806
17332TIP3    H173411   4.494   2.345  12.121  0.5716 -0.0789  0.5489
17332TIP3    H273412   4.619   2.323  12.039 -0.0908 -0.7980 -0.2912
17333TIP3   OH273413   6.692   6.191  14.936  0.1358  0.2303  0.1972
17333TIP3    H173414   6.613   6.147  14.906  0.2420 -0.0367  0.3128
17333TIP3    H273415   6.661   6.268  14.983 -0.0407  0.5631 -0.4511
17334TIP3   OH273416   0.766   0.640   0.529  0.3787 -0.1559 -0.0424
17334TIP3    H173417   0.688   0.645   0.585 -0.8954  1.0545 -1.8419
17334TIP3    H273418   0.829   0.699   0.570 -0.8240  1.3366 -0.2508
17335TIP3   OH273419   4.779   5.590   4.955 -0.4484 -0.0928  0.5405
17335TIP3    H173420   4.699   5.537   4.958  0.5005 -1.9719 -2.5727
17335TIP3    H273421   4.762   5.653   4.885  0.2905  0.3754  0.7869
17336TIP3   OH273422   2.431   6.674   4.221 -0.3392  0.9851  0.1556
17336TIP3    H173423   2.521   6.647   4.201 -0.4590 -0.3476  1.2798
17336TIP3    H273424   2.379   6.639   4.149 -0.1409  0.4755  0.2545
17337TIP3   OH273425   6.282   6.601  17.022  0.3179 -0.5189  0.4075
17337TIP3    H173426   6.210   6.640  17.073  1.5152  1.4822  0.6319
17337TIP3    H273427   6.361   6.627  17.068  1.3802  0.1621 -1.6810
17338TIP3   OH273428   0.755   2.077  11.764 -0.1461 -0.4375  0.0497
17338TIP3    H173429   0.697   2.145  11.729  2.6233  1.9944 -0.1593
17338TIP3    H273430   0.800   2.042  11.686  0.6026 -0.3844  0.4536
17339TIP3   OH273431   1.393   5.429   1.394  0.1209  0.6106  0.3984
17339TIP3    H173432   1.357   5.490   1.330 -0.5160  0.8319  0.9593
17339TIP3    H273433   1.465   5.476   1.435  0.1175  0.7074  0.2924
17340TIP3   OH273434   6.411   4.829   2.537  0.1306 -0.2261 -0.8859
17340TIP3    H173435   6.351   4.827   2.612  0.4252 -0.0463 -0.6447
17340TIP3    H273436   6.497   4.844   2.576  0.3927 -0.8966 -1.1916
17341TIP3   OH273437   0.825   2.980   3.207 -0.3009 -0.9331 -0.2583
17341TIP3    H173438   0.776   2.964   3.126 -0.7090 -1.8428  0.1459
17341TIP3    H273439   0.890   2.910   3.210  0.8246  0.0778 -0.6198
17342TIP3   OH273440   1.586   5.171  11.203  0.8221  0.4976  0.4960
17342TIP3    H173441   1.599   5.088  11.249  3.4795  0.8135  0.4880
17342TIP3    H273442   1.545   5.147  11.121 -0.3180 -0.5514  1.3459
17343TIP3   OH273443   0.197   3.195   0.300  0.0784 -0.2797  0.0105
17343TIP3    H173444   0.231   3.106   0.313 -0.2225 -0.2675  0.9559
17343TIP3    H273445   0.119   3.199   0.355  0.4084  0.7524  0.4228
17344TIP3   OH273446   1.670   1.110  17.037 -0.0993  0.3080  0.1751
17344TIP3    H173447   1.718   1.191  17.020 -0.5861  0.4024 -0.7549
17344TIP3    H273448   1.739   1.044  17.048  0.2661  0.5944 -0.3633
17345TIP3   OH273449   1.755   0.057   3.572 -0.1486 -0.1791 -0.2219
17345TIP3    H173450   1.707   0.137   3.592 -0.9005 -0.5192 -0.6250
17345TIP3    H273451   1.777   0.064   3.479  1.0372  0.1954  0.0593
17346TIP3   OH273452   2.637   1.240  12.630 -0.2940  0.4785 -0.8172
17346TIP3    H173453   2.696   1.278  12.695 -1.0443  0.0327  0.1486
17346TIP3    H273454   2.621   1.311  12.568 -0.9148  1.4665  0.4248
17347TIP3   OH273455   6.561   0.815  13.645  0.3828  1.1136 -0.1386
17347TIP3    H173456   6.507   0.792  13.721  1.6487  0.9565  0.7475
17347TIP3    H273457   6.556   0.738  13.588 -0.5997  1.2395 -0.2325
17348TIP3   OH273458   6.683   6.160  13.175 -0.0952 -0.3805  0.5614
17348TIP3    H173459   6.648   6.203  13.097  1.2603  1.0472  0.6875
17348TIP3    H273460   6.644   6.073  13.174 -0.7192 -0.1222 -1.2800
17349TIP3   OH273461   5.030   2.114   3.282 -0.5114  0.3503  0.3170
17349TIP3    H173462   4.972   2.089   3.210 -0.1802  1.5421 -0.3963
17349TIP3    H273463   4.991   2.074   3.359 -0.3388 -1.8210 -0.6288
17350TIP3   OH273464   5.080   0.959   4.471 -0.0917 -0.2387  0.3733
17350TIP3    H173465   5.119   0.891   4.416  0.5781  0.1938  0.3099
17350TIP3    H273466   4.986   0.937   4.473 -0.4344  0.6232 -2.2657
17351TIP3   OH273467   4.405   0.652  13.541  0.5254  0.1386  0.2148
17351TIP3    H173468   4.425   0.743  13.518 -0.3419 -0.0680 -1.4789
17351TIP3    H273469   4.448   0.600  13.474  0.2779 -0.6640  0.6676
17352TIP3   OH273470   2.284   3.741  15.215 -0.2403  0.1145  0.5026
17352TIP3    H173471   2.350   3.811  15.218 -1.5519  1.4337 -0.0284
17352TIP3    H273472   2.212   3.779  15.166 -1.8847 -0.8858  2.0541
17353TIP3   OH273473   0.607   3.331   5.478  0.5064 -0.5506  0.1407
17353TIP3    H173474   0.533   3.368   5.524  0.4651 -0.1428 -0.2480
17353TIP3    H273475   0.569   3.267   5.418  0.5247 -0.7841  0.3762
17354TIP3   OH273476   2.248   2.744  14.683  0.3911  0.1849 -0.2560
17354TIP3    H173477   2.339   2.715  14.687  0.2413 -0.2946 -0.3029
17354TIP3    H273478   2.197   2.665  14.701 -0.0215  0.3948 -0.5031
17355TIP3   OH273479   0.322   0.478   6.529 -0.4124  0.3360  0.5348
17355TIP3    H173480   0.343   0.528   6.608 -0.5799  0.0041  0.7914
17355TIP3    H273481   0.407   0.460   6.489 -0.2705 -0.0893  1.0099
17356TIP3   OH273482   1.797   2.203   0.500 -0.1016  0.3926 -0.2935
17356TIP3    H173483   1.703   2.218   0.486 -0.1730 -1.3468 -2.1743
17356TIP3    H273484   1.839   2.241   0.423  0.8363  1.6733  0.8090
17357TIP3   OH273485   2.907   3.083  15.217  0.0186  0.2815 -0.3669
17357TIP3    H173486   2.891   2.994  15.185  1.9325  0.2589 -1.4122
17357TIP3    H273487   2.917   3.073  15.312 -0.1238 -0.5572 -0.4267
17358TIP3   OH273488   5.295   1.440  12.150  0.4841  0.0579  0.5691
17358TIP3    H173489   5.321   1.369  12.092 -0.4755 -0.4601  0.7488
17358TIP3    H273490   5.339   1.421  12.233  1.3354  0.4436  0.2143
17359TIP3   OH273491   1.789   5.854   1.353 -0.1701  0.2277 -0.1782
17359TIP3    H173492   1.705   5.855   1.397  0.7090 -1.1064  1.6839
17359TIP3    H273493   1.822   5.943   1.361 -0.9308  0.4893  0.0557
17360TIP3   OH273494   3.896   3.240  12.565  0.2484 -0.5330 -0.5617
17360TIP3    H173495   3.880   3.278  12.651  1.3529  1.9386 -1.3396
17360TIP3    H273496   3.910   3.147  12.581  2.3282  0.1293  2.2273
17361TIP3   OH273497   3.713   4.173   5.608 -0.1943  0.3141  0.1149
17361TIP3    H173498   3.783   4.181   5.673  0.4151 -0.3561 -0.4358
17361TIP3    H273499   3.647   4.118   5.650  0.4184 -0.5247  0.0092
17362TIP3   OH273500   0.412   6.781  11.223  0.2217  0.6484  0.8265
17362TIP3    H173501   0.451   6.706  11.179  0.6939  0.2718  1.8633
17362TIP3    H273502   0.324   6.752  11.246  0.1684  0.6513  0.6282
17363TIP3   OH273503   3.457   1.629   3.732 -0.4465 -0.2342 -0.2662
17363TIP3    H173504   3.517   1.656   3.663  1.9002 -0.3755  1.5827
17363TIP3    H273505   3.410   1.709   3.757 -1.4930 -0.2221 -2.0604
17364TIP3   OH273506   4.123   2.546  13.876  0.5736  0.3824  0.4568
17364TIP3    H173507   4.073   2.483  13.928  1.2103  0.9243  1.7873
17364TIP3    H273508   4.214   2.516  13.884  0.5990 -0.0975 -1.2166
17365TIP3   OH273509   1.639   1.782  14.619 -0.3314  0.0307 -0.6193
17365TIP3    H173510   1.552   1.790  14.659 -0.1839 -0.1916 -0.2494
17365TIP3    H273511   1.691   1.851  14.661 -0.3737  0.2768 -0.9679
17366TIP3   OH273512   0.380   0.466  12.366  0.4864 -0.2835 -0.0913
17366TIP3    H173513   0.418   0.531  12.307 -0.9133  1.0314  0.3792
17366TIP3    H273514   0.370   0.387  12.312 -0.6398  0.8366 -1.6387
17367TIP3   OH273515   2.370   1.432   0.874 -0.8304 -0.4316 -0.1629
17367TIP3    H173516   2.385   1.451   0.782  0.5317  1.3687  0.3729
17367TIP3    H273517   2.313   1.503   0.904  0.0195 -0.0833  0.6984
17368TIP3   OH273518   3.486   5.342  15.448  0.1696  0.1607  0.3107
17368TIP3    H173519   3.524   5.298  15.372 -0.8195  0.5757 -0.4372
17368TIP3    H273520   3.437   5.415  15.412  2.7232  2.6980  1.5691
17369TIP3   OH273521   5.933   6.154   5.004  0.0920  0.3516 -0.1691
17369TIP3    H173522   5.955   6.200   4.924 -0.7012  1.1746  0.0567
17369TIP3    H273523   6.017   6.138   5.048  0.5208 -0.0603 -1.1175
17370TIP3   OH273524   5.550   0.424  12.844 -0.6594 -0.1380  0.0217
17370TIP3    H173525   5.588   0.499  12.890 -2.7341  0.8961  0.1779
17370TIP3    H273526   5.477   0.397  12.899 -0.0513 -2.2150 -0.1189
17371TIP3   OH273527   0.069   4.687  12.885 -0.1410  0.4299  0.0404
17371TIP3    H173528   0.094   4.729  12.803  0.4179  0.0599  0.0108
17371TIP3    H273529   0.133   4.617  12.897 -1.0889 -0.4638  0.0498
17372TIP3   OH273530   2.448   4.040  10.964  0.3086  0.1110 -0.7391
17372TIP3    H173531   2.466   3.952  10.931  0.3289  0.2262 -1.0467
17372TIP3    H273532   2.377   4.072  10.907 -1.4001 -0.6015  0.8795
17373TIP3   OH273533   4.252   1.031  11.405 -0.4367 -0.3211  0.7090
17373TIP3    H173534   4.223   0.940  11.408  0.3811 -0.7291 -1.3069
17373TIP3    H273535   4.205   1.069  11.330 -0.7162  0.9052  1.4820
17374TIP3   OH273536   6.450   2.360   3.377  0.0793 -0.4961 -0.0137
17374TIP3    H173537   6.431   2.355   3.283 -0.9440 -0.0134  0.1551
17374TIP3    H273538   6.516   2.429   3.385 -2.4045  2.0452 -0.0613
17375TIP3   OH273539   4.792   3.801   1.179  0.4478  0.6573 -0.2301
17375TIP3    H173540   4.760   3.887   1.155  1.4550  1.3672  0.8712
17375TIP3    H273541   4.882   3.798   1.144  0.4605  0.0954 -0.1645
17376TIP3   OH273542   3.476   6.805   3.651  0.1775  0.3950 -0.3300
17376TIP3    H173543   3.549   6.820   3.710 -0.8877 -0.1689  1.2081
17376TIP3    H273544   3.502   6.729   3.599 -0.0673 -1.0489  1.5716
17377TIP3   OH273545   3.013   4.928   4.463 -0.1084  0.8048  0.5098
17377TIP3    H173546   2.972   4.901   4.381  0.8239  0.2171  0.2237
17377TIP3    H273547   2.986   4.861   4.526  1.4609 -0.3482  0.0105
17378TIP3   OH273548   0.968   2.435   5.230  0.6960 -0.3761 -0.1578
17378TIP3    H173549   0.887   2.395   5.198  0.6542 -0.3824 -0.0442
17378TIP3    H273550   1.028   2.431   5.156 -0.0688  1.5279 -0.9462
17379TIP3   OH273551   2.805   4.783   0.422 -0.0380 -0.4446  0.0906
17379TIP3    H173552   2.828   4.691   0.407  1.4015  0.0030 -0.6734
17379TIP3    H273553   2.874   4.832   0.377  0.8063  1.0169  2.7408
17380TIP3   OH273554   1.468   5.899  14.115 -0.1888  0.5103  0.5169
17380TIP3    H173555   1.420   5.845  14.053  3.0385 -3.2550  0.9352
17380TIP3    H273556   1.545   5.928  14.067  0.6943  0.3487  1.7934
17381TIP3   OH273557   3.592   5.272   1.763  0.5581  0.0133 -0.1765
17381TIP3    H173558   3.662   5.337   1.758  1.0209  0.0417  3.7148
17381TIP3    H273559   3.636   5.189   1.744  0.4227  0.4832 -2.9569
17382TIP3   OH273560   3.547   0.856  12.635  0.0409 -0.1922  0.0607
17382TIP3    H173561   3.498   0.775  12.620  1.5949 -1.3759  1.0559
17382TIP3    H273562   3.638   0.833  12.614  0.6452  1.0460  1.2084
17383TIP3   OH273563   0.311   3.458   5.862  0.0991 -0.4418 -0.4472
17383TIP3    H173564   0.367   3.400   5.914  0.6415 -0.3558 -0.9264
17383TIP3    H273565   0.265   3.512   5.927 -0.0055 -1.0331 -0.0219
17384TIP3   OH273566   1.478   1.941   2.398 -1.3425  0.5247 -0.4236
17384TIP3    H173567   1.439   1.907   2.479 -0.7665  1.5822  0.3329
17384TIP3    H273568   1.453   2.034   2.396  2.9556  2.0056  1.4330
17385TIP3   OH273569   2.630   1.899   5.676  0.3770  0.0657 -0.5382
17385TIP3    H173570   2.692   1.942   5.617 -0.4219  2.6632  0.4106
17385TIP3    H273571   2.638   1.947   5.759 -1.3577 -0.9337  0.2700
17386TIP3   OH273572   2.348   1.820   2.247 -0.2990 -0.5494  0.1119
17386TIP3    H173573   2.374   1.839   2.157 -1.5740  0.4654 -0.0778
17386TIP3    H273574   2.253   1.810   2.243 -0.2481 -1.8041  1.1427
17387TIP3   OH273575   3.521   2.430  14.592  0.4159  0.3965  0.0308
17387TIP3    H173576   3.591   2.451  14.531  1.4649  1.4866  1.5156
17387TIP3    H273577   3.461   2.375  14.542  2.3779 -0.6992 -1.2662
17388TIP3   OH273578   4.894   2.041   4.428 -0.0778  0.2589 -0.0880
17388TIP3    H173579   4.890   2.135   4.447 -0.6050  0.4391 -1.0403
17388TIP3    H273580   4.803   2.014   4.419  0.1067 -0.0163 -1.3196
17389TIP3   OH273581   2.532   0.460  14.694 -0.2897 -0.2895  0.8261
17389TIP3    H173582   2.596   0.501  14.636 -1.5495 -1.4325 -1.5219
17389TIP3    H273583   2.585   0.405  14.752  0.9505 -0.8219 -0.7160
17390TIP3   OH273584   2.389   4.851  14.814  0.0667  0.4835  0.1250
17390TIP3    H173585   2.294   4.855  14.825  0.1953  1.1914  1.0785
17390TIP3    H273586   2.424   4.863  14.902  1.0703  1.8204 -0.4328
17391TIP3   OH273587   0.292   4.536  12.939 -0.3559  0.6612 -0.3981
17391TIP3    H173588   0.312   4.492  13.022  1.8537  1.1288 -0.6198
17391TIP3    H273589   0.346   4.615  12.941  0.5043  0.1902 -2.7044
17392TIP3   OH273590   5.597   2.060  16.420  0.6309  0.0517  0.7639
17392TIP3    H173591   5.632   2.080  16.333 -1.9254 -1.2450 -0.6566
17392TIP3    H273592   5.547   2.138  16.444  1.4684  0.4737  1.1783
17393TIP3   OH273593   2.146   1.321  16.308 -0.3913  0.6979  0.2336
17393TIP3    H173594   2.190   1.387  16.254  1.4825  0.0768  0.9166
17393TIP3    H273595   2.167   1.346  16.398 -1.4612  0.3735  0.5835
17394TIP3   OH273596   2.657   2.246   4.738  0.1699  0.0288 -0.0046
17394TIP3    H173597   2.689   2.331   4.769  1.1878 -0.7368  1.1419
17394TIP3    H273598   2.721   2.219   4.672 -1.2078  0.9936 -1.8260
17395TIP3   OH273599   3.680   2.458  11.552 -0.4176  0.2845  0.6047
17395TIP3    H173600   3.763   2.457  11.601  0.6210 -0.1424 -1.0723
17395TIP3    H273601   3.681   2.541  11.505  1.7441 -1.7789 -3.5746
17396TIP3   OH273602   2.777   0.474   3.070  0.0890 -0.1540  0.2836
17396TIP3    H173603   2.827   0.480   3.151 -1.6001 -0.9301  1.4422
17396TIP3    H273604   2.774   0.380   3.051 -3.0444 -0.4478  1.6995
17397TIP3   OH273605   1.321   4.084  14.483  0.6364  0.8515  0.1784
17397TIP3    H173606   1.381   4.017  14.451  0.0922 -0.1547  1.1944
17397TIP3    H273607   1.346   4.098  14.574 -1.1140 -0.1614  0.8765
17398TIP3   OH273608   6.370   5.601   5.300  0.6953 -0.1900 -0.1667
17398TIP3    H173609   6.421   5.565   5.227  1.1405  0.2685 -0.0877
17398TIP3    H273610   6.364   5.529   5.363  1.1098 -0.2941 -0.2440
17399TIP3   OH273611   6.088   4.839  12.906 -0.7315  0.1579  0.4895
17399TIP3    H173612   6.130   4.771  12.853 -0.7570  1.1738 -0.8894
17399TIP3    H273613   6.161   4.883  12.951 -0.3679  1.2545 -1.1047
17400TIP3   OH273614   5.732   3.714  15.465  0.2029  0.2513 -0.3420
17400TIP3    H173615   5.787   3.769  15.409 -0.0377 -0.8598 -1.7566
17400TIP3    H273616   5.782   3.632  15.472 -1.5191 -1.0746 -2.3034
17401TIP3   OH273617   4.298   2.618   2.523 -0.5920 -0.2534 -0.0881
17401TIP3    H173618   4.230   2.551   2.517 -1.7254  0.9147 -1.3342
17401TIP3    H273619   4.379   2.570   2.537 -1.3907 -1.8707 -0.7483
17402TIP3   OH273620   5.236   6.776  15.408  0.5893  0.3619 -0.4173
17402TIP3    H173621   5.186   6.695  15.395  1.3300 -0.0616 -0.6826
17402TIP3    H273622   5.249   6.780  15.503 -1.1486  1.2267 -0.1718
17403TIP3   OH273623   2.258   5.840   4.954  0.4948  0.7710  0.2250
17403TIP3    H173624   2.247   5.927   4.993  0.1716  1.4320 -1.2882
17403TIP3    H273625   2.171   5.818   4.919  0.5802 -0.1526  0.5491
17404TIP3   OH273626   1.853   1.872   5.983 -0.3797  0.3221 -0.5768
17404TIP3    H173627   1.810   1.840   5.904 -0.7099 -0.3393 -0.1392
17404TIP3    H273628   1.782   1.912   6.034 -0.8669 -2.2342  0.9121
17405TIP3   OH273629   5.213   6.154  13.855  0.3088  0.0768 -0.0369
17405TIP3    H173630   5.198   6.107  13.938  3.4946 -0.9998  0.0753
17405TIP3    H273631   5.286   6.213  13.875  1.4296 -0.5153 -2.1324
17406TIP3   OH273632   6.623   6.412  15.056 -0.2051 -0.0422 -0.1959
17406TIP3    H173633   6.625   6.423  14.961  0.2865 -1.1145 -0.3153
17406TIP3    H273634   6.674   6.487  15.089  0.3458 -0.1249 -0.8231
17407TIP3   OH273635   2.222   4.940  14.368 -0.1624  0.0215 -0.5644
17407TIP3    H173636   2.292   4.976  14.421  0.3904 -2.2575  0.3802
17407TIP3    H273637   2.257   4.857  14.336 -1.3733  0.2161 -2.5414
17408TIP3   OH273638   5.667   0.969  13.801 -0.1815 -0.2581 -0.3702
17408TIP3    H173639   5.659   0.913  13.724  1.2681 -2.8703  1.2452
17408TIP3    H273640   5.585   0.955  13.849 -0.9848  1.1925 -1.2401
17409TIP3   OH273641   0.512   6.348   5.596 -0.1920 -0.3416  0.4991
17409TIP3    H173642   0.594   6.366   5.640 -0.3876  1.2459  0.2759
17409TIP3    H273643   0.535   6.344   5.503 -0.3728  0.1294  0.4349
17410TIP3   OH273644   1.329   5.535  14.087 -0.0811 -0.3274 -0.0291
17410TIP3    H173645   1.374   5.581  14.158 -1.0825  2.1335 -0.8816
17410TIP3    H273646   1.317   5.446  14.120 -0.5304  0.7071  2.9093
17411TIP3   OH273647   4.560   4.529   5.418  0.0863 -0.1791  0.0523
17411TIP3    H173648   4.474   4.506   5.383  0.0132 -0.2764  0.2934
17411TIP3    H273649   4.601   4.444   5.439  0.1440 -0.1229  0.1688
17412TIP3   OH273650   1.363   4.558  13.630  0.3065  0.1867  0.4255
17412TIP3    H173651   1.353   4.564  13.725 -0.6959 -1.5087  0.4581
17412TIP3    H273652   1.287   4.508  13.601  0.9342  0.1258 -1.2065
17413TIP3   OH273653   0.984   4.264   5.243 -0.4027  0.0648  0.1075
17413TIP3    H173654   1.031   4.206   5.303 -1.1002  0.1408  0.7468
17413TIP3    H273655   0.951   4.206   5.174  0.4192 -0.0220 -0.2242
17414TIP3   OH273656   1.840   1.248   4.282 -0.1348  0.0450  0.0404
17414TIP3    H173657   1.869   1.218   4.196  0.6366 -0.1731  0.3687
17414TIP3    H273658   1.879   1.185   4.343 -1.7660 -0.6024  0.4694
17415TIP3   OH273659   1.453   2.772   1.676  0.6640  0.5862 -0.1012
17415TIP3    H173660   1.503   2.692   1.663 -1.2229 -0.6620  0.0300
17415TIP3    H273661   1.506   2.824   1.736  1.4117 -1.0630  0.7226
17416TIP3   OH273662   3.588   3.554  15.337 -0.3677  0.9241  0.2931
17416TIP3    H173663   3.683   3.553  15.325 -0.4441 -0.9102 -0.5534
17416TIP3    H273664   3.553   3.523  15.253 -1.6807  0.9261  0.8124
17417TIP3   OH273665   0.912   2.034  12.852 -0.1595 -0.1774 -0.0831
17417TIP3    H173666   0.904   1.955  12.798  2.4012 -1.3201  1.0676
17417TIP3    H273667   0.882   2.105  12.794 -1.0683 -1.7835 -1.6830
17418TIP3   OH273668   5.239   3.047   6.451 -0.3170  0.2067  0.2532
17418TIP3    H173669   5.312   3.048   6.388 -1.4740  1.4749 -1.1257
17418TIP3    H273670   5.175   2.988   6.412  0.4918 -2.1199  2.1908
17419TIP3   OH273671   3.824   4.825   3.737  0.0190 -0.4762  0.1645
17419TIP3    H173672   3.873   4.896   3.695 -0.1058 -1.1634 -1.1919
17419TIP3    H273673   3.826   4.847   3.830 -0.2153  1.4355 -0.2320
17420TIP3   OH273674   0.548   6.385   1.105  0.2455  0.4403  0.2001
17420TIP3    H173675   0.472   6.340   1.069  0.1384 -0.2323  1.2287
17420TIP3    H273676   0.603   6.404   1.029 -0.3669 -0.1866 -0.4068
17421TIP3   OH273677   2.022   1.786   2.917 -0.3299 -0.1977  0.3180
17421TIP3    H173678   1.986   1.781   3.005  0.6736 -0.6586  0.7158
17421TIP3    H273679   1.962   1.733   2.863 -0.5181 -0.5543  0.8740
17422TIP3   OH273680   0.426   3.091  14.382 -0.0223 -0.1147 -0.0508
17422TIP3    H173681   0.474   3.017  14.346 -0.9414 -0.6783 -0.1512
17422TIP3    H273682   0.405   3.065  14.472 -1.3531 -0.4895 -0.4481
17423TIP3   OH273683   3.030   4.512   3.399 -0.3157  0.2152 -0.2163
17423TIP3    H173684   3.101   4.454   3.374 -0.9794 -1.0968  0.8425
17423TIP3    H273685   2.991   4.471   3.476 -2.2455  0.8755 -0.7845
17424TIP3   OH273686   5.434   1.487  14.928  0.1676  0.0577 -0.2944
17424TIP3    H173687   5.472   1.573  14.944  1.4419 -0.8322  1.8350
17424TIP3    H273688   5.340   1.503  14.919  0.5927  1.8977 -2.3444
17425TIP3   OH273689   0.442   6.425   6.764 -0.3098 -0.3912 -0.0131
17425TIP3    H173690   0.524   6.419   6.812  0.6154  0.8364 -1.3637
17425TIP3    H273691   0.388   6.485   6.816  0.6583  0.8742 -0.4230
17426TIP3   OH273692   1.524   6.075   2.417 -0.0377 -0.1938  0.0017
17426TIP3    H173693   1.588   6.059   2.486  0.9402 -1.3964 -1.1405
17426TIP3    H273694   1.445   6.101   2.464  0.8759  0.0018  1.5164
17427TIP3   OH273695   4.483   4.605   0.530  0.0949 -0.0596  0.2730
17427TIP3    H173696   4.413   4.543   0.550  1.4605 -1.4765  0.8511
17427TIP3    H273697   4.506   4.587   0.438 -0.3162  0.4353  0.0697
17428TIP3   OH273698   1.596   3.633   0.359  0.2830 -0.2386 -0.2432
17428TIP3    H173699   1.609   3.677   0.443  0.0908 -1.8845  0.7002
17428TIP3    H273700   1.683   3.631   0.320  0.1082  1.9449 -0.8643
17429TIP3   OH273701   2.374   2.367   5.922 -0.2048 -0.1248 -0.0866
17429TIP3    H173702   2.281   2.346   5.923 -0.1472 -0.4979 -1.1155
17429TIP3    H273703   2.388   2.407   5.836  0.8718 -1.4451 -0.5482
17430TIP3   OH273704   0.632   4.660   2.747 -0.0174 -0.0451  0.1453
17430TIP3    H173705   0.672   4.639   2.662 -1.5291 -1.9563 -0.1577
17430TIP3    H273706   0.564   4.724   2.727 -0.2774 -0.3859 -0.0587
17431TIP3   OH273707   1.328   2.148   2.877  0.1826 -0.3804 -0.2579
17431TIP3    H173708   1.377   2.186   2.950  0.8413 -1.9276  0.1535
17431TIP3    H273709   1.393   2.138   2.807  0.2731 -1.5810 -0.0288
17432TIP3   OH273710   6.749   3.184   1.644 -0.4734  0.2721 -0.2909
17432TIP3    H173711   6.809   3.258   1.656 -0.0574 -0.0540 -0.3239
17432TIP3    H273712   6.662   3.221   1.656 -0.2676  0.7701 -0.3224
17433TIP3   OH273713   0.964   3.037   5.604 -0.1934  0.0888  0.1895
17433TIP3    H173714   0.875   3.068   5.591 -0.3838 -0.3244  0.5049
17433TIP3    H273715   0.982   3.053   5.697 -0.8607 -2.1493  0.7664
17434TIP3   OH273716   1.119   0.334   3.651 -0.0324 -0.0592  0.4020
17434TIP3    H173717   1.188   0.335   3.585 -0.0878 -2.2243  0.2673
17434TIP3    H273718   1.149   0.272   3.718 -1.2184  0.0113  1.0393
17435TIP3   OH273719   0.226   5.081   5.383  0.2810  0.2324  0.1461
17435TIP3    H173720   0.231   5.148   5.315  1.5006  1.2592  1.2019
17435TIP3    H273721   0.198   5.127   5.461  1.7158 -0.3358  1.0377
17436TIP3   OH273722   3.577   0.698  12.890  0.1379 -0.5319 -0.1866
17436TIP3    H173723   3.664   0.737  12.886 -0.4621  0.8638 -0.3551
17436TIP3    H273724   3.526   0.761  12.941 -0.5326 -1.8082  0.7500
17437TIP3   OH273725   3.533   5.647   4.236 -0.1616  0.3960 -0.4303
17437TIP3    H173726   3.463   5.610   4.183  0.2019 -1.2665  0.2151
17437TIP3    H273727   3.507   5.630   4.326 -0.2968  2.3331 -0.0514
17438TIP3   OH273728   4.257   2.687  12.063 -0.4572  0.0452  0.0816
17438TIP3    H173729   4.292   2.776  12.070  0.0991 -0.0571 -1.0579
17438TIP3    H273730   4.329   2.637  12.023 -1.2923 -0.5719 -0.6883
17439TIP3   OH273731   0.464   5.839   1.655  0.0893  0.4372 -0.0592
17439TIP3    H173732   0.412   5.760   1.673 -0.0561  0.8832  1.6932
17439TIP3    H273733   0.534   5.837   1.720  1.0654  0.9196 -1.0690
17440TIP3   OH273734   0.126   3.471  12.200  0.0324  0.6444 -0.6860
17440TIP3    H173735   0.052   3.410  12.212  0.6706 -0.0732 -0.3164
17440TIP3    H273736   0.110   3.540  12.264 -1.5277  1.7232 -2.1504
17441TIP3   OH273737   3.896   3.163  15.989  0.2981 -0.0649  0.1396
17441TIP3    H173738   3.932   3.220  15.921  0.3588 -0.6183 -0.2946
17441TIP3    H273739   3.959   3.167  16.060 -0.2933  1.3919  0.6358
17442TIP3   OH273740   3.861   3.652  14.961  0.2687  0.0984 -0.5005
17442TIP3    H173741   3.822   3.723  15.012  1.0765 -0.1260  0.4680
17442TIP3    H273742   3.865   3.685  14.872  0.6061  1.2548 -0.0706
17443TIP3   OH273743   1.917   3.837  13.332 -0.5103  0.6976 -0.2956
17443TIP3    H173744   1.983   3.829  13.400  0.7659  1.7558 -1.3401
17443TIP3    H273745   1.922   3.755  13.283 -1.5465 -0.1325  0.9298
17444TIP3   OH273746   1.929   1.434  11.632 -0.6156  0.5627  0.6702
17444TIP3    H173747   1.978   1.368  11.584 -0.9697  0.4981  0.3903
17444TIP3    H273748   1.973   1.441  11.716 -0.0635  0.5848  0.3835
17445TIP3   OH273749   1.796   3.907  14.780 -0.3222  0.6725 -0.2103
17445TIP3    H173750   1.707   3.941  14.793 -0.5236  0.7662 -1.6274
17445TIP3    H273751   1.846   3.941  14.854 -1.3133  1.1594  0.2578
17446TIP3   OH273752   4.133   5.723   3.557 -0.5949 -0.5071 -0.6054
17446TIP3    H173753   4.179   5.655   3.607 -0.1004 -0.2769 -0.7406
17446TIP3    H273754   4.092   5.779   3.624 -2.2908 -1.7810 -0.5048
17447TIP3   OH273755   3.133   1.902   4.109 -0.0612 -0.5830 -0.0374
17447TIP3    H173756   3.224   1.923   4.089 -0.3537 -0.0433 -0.8320
17447TIP3    H273757   3.138   1.818   4.156  0.8585 -0.4210  0.1741
17448TIP3   OH273758   0.975   3.199   3.463  1.4930 -0.0932 -0.0284
17448TIP3    H173759   0.998   3.292   3.473 -0.1277  0.7581 -3.1393
17448TIP3    H273760   0.934   3.193   3.377 -1.9244 -3.0129  1.5625
17449TIP3   OH273761   0.783   3.121  12.322 -0.2471 -0.4961  0.2281
17449TIP3    H173762   0.763   3.192  12.383 -0.7926  1.0992 -1.6968
17449TIP3    H273763   0.718   3.054  12.341 -0.3103 -0.0995  1.4811
17450TIP3   OH273764   3.812   5.297   4.226 -0.1807 -0.4078 -0.4718
17450TIP3    H173765   3.829   5.342   4.308  1.3374 -0.5735 -0.6531
17450TIP3    H273766   3.717   5.293   4.219 -0.3314  0.5189  0.7636
17451TIP3   OH273767   4.737   2.837   3.358  0.4311 -0.0293  0.0524
17451TIP3    H173768   4.802   2.778   3.395  0.1492  0.1571  0.8711
17451TIP3    H273769   4.681   2.861   3.432 -1.1999 -0.9722 -0.8153
17452TIP3   OH273770   3.940   3.242   2.283 -0.3822  0.2417 -0.2495
17452TIP3    H173771   3.982   3.219   2.365  0.4465 -0.6044 -0.8884
17452TIP3    H273772   3.887   3.319   2.303 -0.8953 -0.4704  1.2804
17453TIP3   OH273773   5.669   6.625   1.690 -0.6110  0.1282 -0.4705
17453TIP3    H173774   5.688   6.667   1.607  0.6922 -1.3663 -0.9681
17453TIP3    H273775   5.576   6.602   1.684 -0.3511 -0.6760 -1.8741
17454TIP3   OH273776   4.869   4.750  10.875 -0.9832 -0.1254 -0.0829
17454TIP3    H173777   4.869   4.669  10.824 -1.8006 -0.1605 -0.0267
17454TIP3    H273778   4.962   4.775  10.879 -1.0133  0.7159 -2.9015
17455TIP3   OH273779   5.218   5.144   2.730  0.0849  0.3159 -0.2555
17455TIP3    H173780   5.132   5.108   2.753 -0.9325  3.3125  1.2346
17455TIP3    H273781   5.271   5.131   2.808  0.1959  0.6488 -0.2750
17456TIP3   OH273782   3.745   6.012  11.263 -0.3938 -0.0555  0.1100
17456TIP3    H173783   3.669   6.059  11.229  0.2285 -0.2124 -1.6408
17456TIP3    H273784   3.713   5.924  11.282 -1.0181  0.3650  1.0812
17457TIP3   OH273785   3.418   4.556   2.154 -0.6875 -0.2163 -0.6107
17457TIP3    H173786   3.509   4.572   2.130 -0.3110 -1.2809  0.0937
17457TIP3    H273787   3.412   4.579   2.246 -1.5657  1.4886 -1.0338
17458TIP3   OH273788   1.026   2.446  13.346 -0.2122  0.2041  0.3246
17458TIP3    H173789   1.012   2.536  13.317 -0.6838 -0.0989 -0.4150
17458TIP3    H273790   0.966   2.434  13.419 -1.0484  0.1077 -0.3701
17459TIP3   OH273791   1.865   4.563   4.757  0.3840  0.5357 -0.3271
17459TIP3    H173792   1.800   4.610   4.808 -0.4935 -1.8393  0.8971
17459TIP3    H273793   1.817   4.489   4.719  2.3416 -1.5559  0.9666
17460TIP3   OH273794   2.615   6.352  15.845 -0.0792 -0.0343  0.5365
17460TIP3    H173795   2.523   6.375  15.830 -0.1397  0.2787  1.3344
17460TIP3    H273796   2.662   6.434  15.830 -0.0029 -0.0324  0.7882
17461TIP3   OH273797   0.193   6.728  17.081 -0.0261 -0.2254 -0.0474
17461TIP3    H173798   0.184   6.822  17.099 -0.0775  0.0502 -1.4420
17461TIP3    H273799   0.125   6.709  17.017  0.4026 -1.0840 -0.2677
17462TIP3   OH273800   1.095   6.802   2.247 -0.0952  0.2976 -0.1661
17462TIP3    H173801   1.034   6.742   2.291 -1.5356  2.1419  0.4971
17462TIP3    H273802   1.182   6.769   2.270 -0.8336 -0.6084  1.4985
17463TIP3   OH273803   1.512   2.603  17.076  0.3517  0.7406 -0.4036
17463TIP3    H173804   1.503   2.697  17.092  1.8037  0.7216  0.6680
17463TIP3    H273805   1.532   2.596  16.983  1.7896  1.6327 -0.1881
17464TIP3   OH273806   5.264   2.399   6.037  0.0609  0.1257 -0.6317
17464TIP3    H173807   5.323   2.453   6.089 -0.7086  0.6320 -0.2587
17464TIP3    H273808   5.241   2.452   5.961 -3.3399  1.8231  1.3480
17465TIP3   OH273809   2.177   4.065   1.836  0.4493 -0.0460  0.3863
17465TIP3    H173810   2.143   3.986   1.878  0.9293  0.6060  2.0753
17465TIP3    H273811   2.259   4.084   1.882  0.4511  1.3137 -0.1312
17466TIP3   OH273812   5.600   3.445  11.908  0.1469  0.1102 -0.0562
17466TIP3    H173813   5.644   3.418  11.827 -0.1848  2.2430 -1.0288
17466TIP3    H273814   5.671   3.477  11.964  0.0842  2.2396 -1.0804
17467TIP3   OH273815   6.577   2.690  13.855 -0.5422  0.1833  0.4558
17467TIP3    H173816   6.566   2.622  13.922 -0.8763  0.3587  0.5794
17467TIP3    H273817   6.494   2.738  13.856 -0.9648 -0.4684 -0.8060
17468TIP3   OH273818   2.958   2.543  10.987  0.0408 -0.1467 -0.0327
17468TIP3    H173819   2.964   2.577  10.898  0.8474 -2.5007 -0.9474
17468TIP3    H273820   2.998   2.456  10.983  0.1712 -0.3057  2.6508
17469TIP3   OH273821   1.100   5.793  14.251 -0.5567  0.4291  0.2858
17469TIP3    H173822   1.028   5.732  14.235 -0.2200  0.4708 -1.7146
17469TIP3    H273823   1.117   5.833  14.165  0.0300  2.4647  1.2770
17470TIP3   OH273824   5.295   5.455  14.904  0.5901 -0.6604 -0.3221
17470TIP3    H173825   5.267   5.429  14.816  1.4330  0.4524 -0.9537
17470TIP3    H273826   5.310   5.372  14.950 -0.7622 -1.2601 -0.9145
17471TIP3   OH273827   0.511   2.556  12.641  0.1618  1.1525  0.7088
17471TIP3    H173828   0.468   2.482  12.686  2.4865  0.0353  1.2728
17471TIP3    H273829   0.444   2.590  12.581 -1.1462 -1.1427  0.7332
17472TIP3   OH273830   2.350   2.948  16.746 -0.0050  0.2569  0.0270
17472TIP3    H173831   2.309   3.004  16.680 -2.0785 -0.5992  0.5085
17472TIP3    H273832   2.305   2.864  16.737  0.1503 -0.0909  2.0337
17473TIP3   OH273833   0.970   4.384   4.417 -0.0737 -0.1335  0.3611
17473TIP3    H173834   0.883   4.423   4.430  0.2947  0.8453  0.0041
17473TIP3    H273835   0.953   4.293   4.393 -0.9505 -0.3618  1.7517
17474TIP3   OH273836   6.311   3.259   5.532 -0.6345  0.4084  0.2383
17474TIP3    H173837   6.281   3.232   5.446 -1.8010  1.9138  0.1349
17474TIP3    H273838   6.232   3.283   5.579 -0.0861 -1.0797  2.0143
17475TIP3   OH273839   4.715   5.234  12.089 -0.4826 -0.9276  0.5334
17475TIP3    H173840   4.727   5.297  12.160 -1.2971  1.4385 -1.3004
17475TIP3    H273841   4.803   5.200  12.073 -0.0004 -0.1866  1.4939
17476TIP3   OH273842   5.469   4.658  11.605  0.8131  0.1761  0.2520
17476TIP3    H173843   5.507   4.735  11.647 -0.8691  1.2431 -0.1381
17476TIP3    H273844   5.376   4.660  11.627  0.6488 -1.5515 -0.0755
17477TIP3   OH273845   1.469   5.809   5.606  0.1661 -0.0997  0.0862
17477TIP3    H173846   1.394   5.802   5.665 -0.4168 -0.6496 -0.7030
17477TIP3    H273847   1.528   5.740   5.634  0.7506  0.8010  1.1901
17478TIP3   OH273848   1.450   1.735   0.961  0.1795 -0.2982  0.8351
17478TIP3    H173849   1.486   1.669   0.902  1.1595  0.6572  0.3251
17478TIP3    H273850   1.375   1.771   0.914  0.4874 -0.0814  0.5068
17479TIP3   OH273851   1.055   6.071   1.302 -0.2311  0.9480  0.1123
17479TIP3    H173852   1.119   6.000   1.296 -0.5373  0.7863 -2.0884
17479TIP3    H273853   1.069   6.123   1.223 -3.0087  0.7039 -0.6480
17480TIP3   OH273854   3.570   5.966  15.863 -0.6209  0.5295  0.7994
17480TIP3    H173855   3.567   5.873  15.884 -1.2053  0.2568 -0.3746
17480TIP3    H273856   3.654   5.978  15.818 -0.0548  0.8025  1.9070
17481TIP3   OH273857   1.921   2.745   1.085  0.2790  0.0018 -0.3492
17481TIP3    H173858   2.012   2.716   1.085  1.1710  2.5088  0.6985
17481TIP3    H273859   1.917   2.812   1.017 -0.8704 -0.2680 -0.5613
17482TIP3   OH273860   1.883   2.542  14.687 -0.3546 -0.1910  0.0656
17482TIP3    H173861   1.894   2.447  14.680  0.0718 -0.1718  0.4380
17482TIP3    H273862   1.962   2.579  14.648 -0.8401  0.0296 -0.7268
17483TIP3   OH273863   5.120   2.624  15.182 -0.2693  0.3116 -0.4563
17483TIP3    H173864   5.180   2.556  15.153  0.6791  0.8719  0.1398
17483TIP3    H273865   5.066   2.643  15.105 -0.9345 -1.4923 -0.4701
17484TIP3   OH273866   2.471   2.024  12.597  0.1242  0.1830 -0.3016
17484TIP3    H173867   2.498   1.948  12.650  1.7865  0.3364 -0.8641
17484TIP3    H273868   2.432   1.986  12.519 -0.9193 -0.0529  0.3083
17485TIP3   OH273869   3.168   1.682   3.480  0.5776  0.7253  0.2537
17485TIP3    H173870   3.231   1.700   3.410  0.9513  1.3275  0.7304
17485TIP3    H273871   3.098   1.746   3.466  1.1964  1.6280  1.0756
17486TIP3   OH273872   6.001   0.114   6.167  0.3631  0.6083 -0.2887
17486TIP3    H173873   6.005   0.070   6.252 -0.7826 -3.1415 -1.9376
17486TIP3    H273874   5.932   0.180   6.176  0.4353  0.4545  1.7295
17487TIP3   OH273875   6.171   0.950  14.716  1.0463  0.4875  0.1754
17487TIP3    H173876   6.163   0.945  14.811  1.2413 -2.4424  0.1388
17487TIP3    H273877   6.081   0.951  14.684  0.9744  0.5090  0.3758
17488TIP3   OH273878   0.885   3.800  15.994 -0.3395  0.2871 -0.2266
17488TIP3    H173879   0.889   3.712  15.957  1.3414  0.0082  0.5232
17488TIP3    H273880   0.897   3.787  16.088 -1.5226  1.2222  0.0831
17489TIP3   OH273881   0.348   1.198   4.495  0.1662 -0.3368 -0.0522
17489TIP3    H173882   0.379   1.126   4.550  1.2349  1.2074  1.4476
17489TIP3    H273883   0.408   1.199   4.421 -0.9256 -2.0598 -1.0241
17490TIP3   OH273884   0.927   0.374  12.257 -0.0543  0.4056 -0.2930
17490TIP3    H173885   0.904   0.396  12.167  0.6070  0.6014 -0.4182
17490TIP3    H273886   0.895   0.447  12.310 -0.3535  0.3377 -0.3829
17491TIP3   OH273887   4.640   5.822   0.060 -0.3937 -0.4252  0.3921
17491TIP3    H173888   4.576   5.775   0.007 -0.6656 -1.3925  1.5375
17491TIP3    H273889   4.634   5.912   0.030 -1.1420 -0.7939 -0.6246
17492TIP3   OH273890   1.601   1.967  17.154  0.0135 -0.2211 -0.1780
17492TIP3    H173891   1.653   2.011  17.086  1.6836 -0.7665  0.6934
17492TIP3    H273892   1.612   1.874  17.136  1.8583 -0.4450  1.7484
17493TIP3   OH273893   3.886   4.342   0.035 -0.4002 -0.8128  0.1941
17493TIP3    H173894   3.838   4.407  -0.017 -0.5637 -1.8028 -0.9421
17493TIP3    H273895   3.818   4.281   0.064 -0.5843  0.5024  2.9455
17494TIP3   OH273896   2.811   4.045  13.413  0.5674 -0.2670  0.1031
17494TIP3    H173897   2.718   4.065  13.401  0.8396  0.5113 -0.9323
17494TIP3    H273898   2.853   4.083  13.336  1.4529 -2.8262 -0.7889
17495TIP3   OH273899   3.091   1.018   1.675  0.4110  0.6536 -0.3064
17495TIP3    H173900   3.177   0.976   1.676  0.0180 -0.2116  1.1973
17495TIP3    H273901   3.030   0.947   1.653 -0.0490  0.9228  0.0689
17496TIP3   OH273902   2.572   5.341  14.310 -0.3503 -0.6575  0.0566
17496TIP3    H173903   2.593   5.410  14.373  0.4033 -1.7341  1.0291
17496TIP3    H273904   2.540   5.388  14.233  0.0042  0.7633  0.7361
17497TIP3   OH273905   4.405   0.793  14.843 -0.2374  0.0200 -0.1640
17497TIP3    H173906   4.472   0.860  14.830  0.5951 -0.5597  1.0057
17497TIP3    H273907   4.450   0.722  14.889 -0.3624 -2.5530 -3.5870
17498TIP3   OH273908   1.819   4.681  13.303  0.3112 -0.3048  0.0526
17498TIP3    H173909   1.890   4.744  13.319  1.4662 -1.8002  1.1121
17498TIP3    H273910   1.853   4.625  13.234  0.0576 -0.8610  0.3749
17499TIP3   OH273911   6.422   6.375  15.804 -0.3614  0.1102 -0.7368
17499TIP3    H173912   6.512   6.365  15.834 -0.5815 -0.9982 -0.3804
17499TIP3    H273913   6.429   6.415  15.718  0.3706  1.6862  0.0217
17500TIP3   OH273914   2.853   1.903   2.766  0.3601  0.1339  0.0455
17500TIP3    H173915   2.852   1.838   2.837  2.2411  0.2568  0.2382
17500TIP3    H273916   2.762   1.906   2.735 -0.6103  0.2257  2.5831
17501TIP3   OH273917   2.192   1.992   1.811 -0.3678 -0.7609  0.7178
17501TIP3    H173918   2.178   1.921   1.873  0.3895  0.6066  2.5372
17501TIP3    H273919   2.261   2.045   1.851 -1.2734  1.2852 -0.3149
17502TIP3   OH273920   1.491   3.036  13.278 -0.3413 -0.5159 -0.0062
17502TIP3    H173921   1.569   3.061  13.327  0.4592 -0.8151 -1.0934
17502TIP3    H273922   1.426   3.102  13.301  0.0408 -0.5987  1.3631
17503TIP3   OH273923   1.476   3.251   1.224  0.1584  0.1706 -0.2732
17503TIP3    H173924   1.443   3.326   1.272 -0.6219  0.5384 -1.3577
17503TIP3    H273925   1.398   3.203   1.196  0.6365 -0.8962  0.1559
17504TIP3   OH273926   2.403   6.580   4.880  0.4191 -0.2421 -0.2074
17504TIP3    H173927   2.479   6.634   4.899  0.3846 -0.5396  0.8543
17504TIP3    H273928   2.434   6.490   4.891  0.0350 -0.3793 -0.2164
17505TIP3   OH273929   1.519   2.860   0.098  0.0437 -0.4225 -0.3642
17505TIP3    H173930   1.456   2.894   0.162  2.7712  2.7291  0.9036
17505TIP3    H273931   1.561   2.786   0.142  0.0603  0.0613  0.4593
17506TIP3   OH273932   1.911   4.459   4.242 -0.0344  0.5409 -0.3245
17506TIP3    H173933   1.820   4.486   4.226 -0.4178  0.2751  1.3036
17506TIP3    H273934   1.919   4.375   4.198 -0.1243  1.2108 -1.6911
17507TIP3   OH273935   0.722   2.638   1.964 -0.4157  0.5794  0.4527
17507TIP3    H173936   0.710   2.733   1.965 -1.1627  0.4868  0.4342
17507TIP3    H273937   0.720   2.615   1.871 -0.6779  0.4900  0.4801
17508TIP3   OH273938   6.197   1.461   1.297  0.6446 -0.1092 -0.6028
17508TIP3    H173939   6.208   1.369   1.320 -0.9904 -0.8496 -2.5191
17508TIP3    H273940   6.110   1.483   1.329  0.0586  0.0445 -2.2355
17509TIP3   OH273941   0.832   3.685  13.745 -0.3924 -0.1255  0.3390
17509TIP3    H173942   0.784   3.711  13.823  1.8489  2.6967  0.9494
17509TIP3    H273943   0.922   3.674  13.775  0.2167 -0.7048 -1.5331
17510TIP3   OH273944   1.558   1.319   2.921 -0.4898 -0.4463 -0.0564
17510TIP3    H173945   1.593   1.277   2.842  0.6241 -0.4256  0.4123
17510TIP3    H273946   1.522   1.246   2.972  2.9608 -1.2236  1.5593
17511TIP3   OH273947   3.407   5.179   2.179 -0.3588 -0.1336  0.1794
17511TIP3    H173948   3.376   5.093   2.150  1.1374 -0.7314  0.2908
17511TIP3    H273949   3.497   5.183   2.148  0.1016  0.7273  1.5790
17512TIP3   OH273950   4.359   1.322   0.937 -0.0575 -0.5290  0.4058
17512TIP3    H173951   4.445   1.335   0.977  0.0694  0.0917 -0.0452
17512TIP3    H273952   4.311   1.267   0.999  0.4327 -0.3082  0.9868
17513TIP3   OH273953   0.972   3.336  14.993 -0.1357 -0.2342 -0.1415
17513TIP3    H173954   1.022   3.348  14.912 -3.4162 -0.6912 -2.4459
17513TIP3    H273955   0.971   3.241  15.007 -0.6818 -0.2571 -0.3333
17514TIP3   OH273956   5.619   1.446  11.444 -0.3681  0.0423  0.4252
17514TIP3    H173957   5.543   1.499  11.420  0.5634  0.8145 -0.9130
17514TIP3    H273958   5.678   1.452  11.369  0.9967 -0.5989  1.3998
17515TIP3   OH273959   5.235   2.669   3.338  0.1407  0.0028  0.6311
17515TIP3    H173960   5.174   2.596   3.354 -0.0965 -0.0663 -0.4969
17515TIP3    H273961   5.302   2.659   3.406 -0.1054 -1.0370  0.7476
17516TIP3   OH273962   5.621   3.778  14.909 -0.5158 -0.3840 -0.7354
17516TIP3    H173963   5.559   3.850  14.898 -0.9396 -0.4051  1.1862
17516TIP3    H273964   5.628   3.766  15.004  0.8073 -1.7930 -0.9654
17517TIP3   OH273965   1.193   5.991   1.950 -0.4463  0.2939  0.6471
17517TIP3    H173966   1.134   5.943   1.893 -0.0796  1.9285 -1.1931
17517TIP3    H273967   1.165   6.082   1.943  1.5028  0.9323  0.7155
17518TIP3   OH273968   3.258   5.372  17.000 -0.2798 -0.4273 -0.2938
17518TIP3    H173969   3.340   5.362  17.047 -0.5131 -1.1094 -0.0132
17518TIP3    H273970   3.280   5.353  16.909  0.2979  1.5068 -0.5825
17519TIP3   OH273971   1.772   2.424   0.726  0.0058 -0.0854 -0.3688
17519TIP3    H173972   1.740   2.495   0.782  1.2252 -1.1966  1.8735
17519TIP3    H273973   1.766   2.346   0.780 -0.5886 -1.6329 -2.5101
17520TIP3   OH273974   2.388   6.111  12.181  0.1328  0.3280 -0.3384
17520TIP3    H173975   2.353   6.130  12.094 -1.3343 -0.1740  0.1115
17520TIP3    H273976   2.327   6.047  12.218  2.9696 -2.7218 -0.4978
17521TIP3   OH273977   4.212   1.405  14.354  0.4143  0.0673 -0.2303
17521TIP3    H173978   4.125   1.392  14.317 -0.1851 -0.2819  1.2200
17521TIP3    H273979   4.229   1.324  14.403  1.7197 -0.0238 -0.7992
17522TIP3   OH273980   2.841   2.226  11.131 -0.0759 -0.7425  0.6720
17522TIP3    H173981   2.840   2.138  11.169 -1.6858 -1.5083 -0.9971
17522TIP3    H273982   2.921   2.229  11.078  1.1160 -0.3794  2.4174
17523TIP3   OH273983   3.227   3.869   5.082  1.0711  0.4054  0.0037
17523TIP3    H173984   3.289   3.921   5.032 -0.1572  1.2694 -0.6838
17523TIP3    H273985   3.271   3.785   5.095  2.5970  1.1804  0.0619
17524TIP3   OH273986   0.725   2.884   2.243 -0.5135  0.5280  0.4442
17524TIP3    H173987   0.766   2.951   2.298  0.1576 -0.4772  1.2034
17524TIP3    H273988   0.721   2.923   2.156  1.7048  0.8293  0.4231
17525TIP3   OH273989   4.788   0.853   2.882 -0.0469  0.2637 -0.4542
17525TIP3    H173990   4.813   0.893   2.799 -0.8049 -0.0590 -0.8520
17525TIP3    H273991   4.791   0.759   2.865 -1.8007  0.2034 -0.6425
17526TIP3   OH273992   1.767   0.129  15.381  0.3324  0.2742 -0.1665
17526TIP3    H173993   1.800   0.042  15.405  2.4028  1.1595  0.3769
17526TIP3    H273994   1.744   0.169  15.465  0.2074  0.5783 -0.3441
17527TIP3   OH273995   2.150   4.769  15.934 -0.1707 -0.2187  0.3857
17527TIP3    H173996   2.101   4.750  16.014 -0.7417 -1.5186 -0.2291
17527TIP3    H273997   2.180   4.683  15.903  0.3487  0.2922 -0.5899
17528TIP3   OH273998   1.393   2.938  12.683  0.0059  0.4755  0.4547
17528TIP3    H173999   1.391   3.015  12.627  1.3347  0.1975 -0.0045
17528TIP3    H274000   1.347   2.965  12.763 -2.2017  0.7762 -0.8349
17529TIP3   OH274001   0.254   4.396  11.362 -0.4317 -0.0321  0.1982
17529TIP3    H174002   0.348   4.390  11.381 -0.5347 -0.4259  0.6134
17529TIP3    H274003   0.212   4.374  11.445 -0.8960  1.3612  0.3613
17530TIP3   OH274004   3.963   4.248  16.069 -0.3082 -0.0811  0.0615
17530TIP3    H174005   3.944   4.297  16.148  1.7347  0.0574  0.5189
17530TIP3    H274006   3.901   4.175  16.070 -0.9468  0.4594  1.2877
17531TIP3   OH274007   5.256   1.358   1.349  0.0092  0.2624 -0.6994
17531TIP3    H174008   5.236   1.392   1.262  2.6037 -0.3342 -1.5876
17531TIP3    H274009   5.278   1.435   1.401 -4.1187  0.9777  0.3604
17532TIP3   OH274010   6.367   4.497  11.271  0.1089  0.5990  0.3192
17532TIP3    H174011   6.443   4.516  11.217 -0.3054  1.7674  0.1190
17532TIP3    H274012   6.374   4.404  11.291  0.8450  0.3926 -0.8417
17533TIP3   OH274013   0.977   0.217   6.279  0.1112 -0.3572 -0.2963
17533TIP3    H174014   1.027   0.165   6.217  1.5703  0.7859 -0.1488
17533TIP3    H274015   1.041   0.279   6.314 -1.1648  0.3854  0.7961
17534TIP3   OH274016   0.753   5.006   0.380 -0.1886  0.3298  0.0272
17534TIP3    H174017   0.668   5.044   0.357 -0.6773  1.2305  2.8492
17534TIP3    H274018   0.732   4.934   0.439  0.9886 -0.0575  0.0082
17535TIP3   OH274019   0.437   4.090  13.104 -0.4256  0.3613  0.7505
17535TIP3    H174020   0.499   4.078  13.175  0.1310 -1.3044  0.0272
17535TIP3    H274021   0.444   4.011  13.051 -2.1978  0.7125 -0.1111
17536TIP3   OH274022   0.012   1.218   1.355 -0.4063 -0.3651  0.3167
17536TIP3    H174023  -0.064   1.197   1.410  0.6625  0.4259  2.1974
17536TIP3    H274024   0.085   1.174   1.398  0.6929  1.3776  0.3435
17537TIP3   OH274025   1.030   6.766  15.467  0.2607  0.0006 -0.1672
17537TIP3    H174026   1.002   6.678  15.491  1.0084  0.1676  1.4675
17537TIP3    H274027   0.970   6.792  15.397  0.9666 -2.3612 -1.7767
17538TIP3   OH274028   6.558   5.706   0.150  0.2521  0.0277 -0.0381
17538TIP3    H174029   6.620   5.776   0.130 -0.9485  0.8838 -0.9204
17538TIP3    H274030   6.548   5.659   0.067 -1.8198  1.2024 -0.5421
17539TIP3   OH274031   6.558   0.243  12.755  0.5876  0.3076  0.0242
17539TIP3    H174032   6.556   0.337  12.770 -0.3311  0.0245  1.9879
17539TIP3    H274033   6.468   0.220  12.732  0.5252 -0.2452  0.7742
17540TIP3   OH274034   3.118   0.910   5.604 -0.1873 -0.2217 -0.0033
17540TIP3    H174035   3.142   0.891   5.694 -1.2753 -0.2958  0.2841
17540TIP3    H274036   3.080   0.998   5.607 -2.3775 -1.1176  0.0477
17541TIP3   OH274037   1.070   0.670  13.894 -0.2282  0.3508 -0.4455
17541TIP3    H174038   1.133   0.637  13.829  1.0881  0.4094  0.7489
17541TIP3    H274039   1.058   0.596  13.954  1.7265  1.5091  1.5080
17542TIP3   OH274040   1.649   3.489  11.053  0.3203 -0.8944  0.4640
17542TIP3    H174041   1.625   3.397  11.062 -2.0154 -0.3080  1.0483
17542TIP3    H274042   1.587   3.535  11.110  0.9604  1.0871 -0.3631
17543TIP3   OH274043   4.430   2.175  10.780  0.3086 -0.2938  0.0518
17543TIP3    H174044   4.472   2.102  10.736  0.4033 -0.1618 -0.0802
17543TIP3    H274045   4.502   2.221  10.823  0.6382  1.1804 -1.9497
17544TIP3   OH274046   6.164   6.530  10.830  0.0066  0.9393  0.8032
17544TIP3    H174047   6.073   6.539  10.858 -0.0366  0.1005  0.9539
17544TIP3    H274048   6.159   6.507  10.737  0.0207  0.0298  1.0133
17545TIP3   OH274049   6.453   5.647  16.073  0.2899  0.4771 -0.1430
17545TIP3    H174050   6.423   5.698  16.148 -0.3784 -2.1916  1.5778
17545TIP3    H274051   6.388   5.662  16.005 -0.0067  1.6649  0.3853
17546TIP3   OH274052   4.453   1.550   5.229 -0.8172  0.4523  0.1641
17546TIP3    H174053   4.430   1.604   5.305  2.3066  0.1684  1.4483
17546TIP3    H274054   4.523   1.598   5.186  0.4649 -1.4599  0.0115
17547TIP3   OH274055   0.566   3.840   5.315  0.3691  0.0194  0.2519
17547TIP3    H174056   0.654   3.802   5.315  0.1007 -1.0382 -3.6201
17547TIP3    H274057   0.511   3.773   5.276 -1.4674  1.9624 -0.7026
17548TIP3   OH274058   4.218   1.244   2.044 -0.0461  0.3810  0.4523
17548TIP3    H174059   4.228   1.272   1.953 -1.5089  0.8457  0.3995
17548TIP3    H274060   4.188   1.153   2.037 -0.5170  0.5340  0.4501
17549TIP3   OH274061   4.415   3.574  13.653  0.4374 -0.3749 -0.3283
17549TIP3    H174062   4.511   3.576  13.645  0.5456 -1.5885  0.4777
17549TIP3    H274063   4.386   3.530  13.573  0.4393  1.0725 -1.1663
17550TIP3   OH274064   1.585   1.400   1.757  0.1237  0.4255 -0.0297
17550TIP3    H174065   1.671   1.442   1.763 -0.6037  2.0866 -0.6019
17550TIP3    H274066   1.592   1.322   1.813  1.5300  1.3209  1.1124
17551TIP3   OH274067   4.710   6.162   4.530 -0.2767  0.0020 -0.0009
17551TIP3    H174068   4.806   6.160   4.535 -0.2771 -0.4598 -0.1171
17551TIP3    H274069   4.689   6.105   4.456 -0.5850  1.2104 -0.8730
17552TIP3   OH274070   4.792   6.607   0.757  0.2108  0.0859  0.0253
17552TIP3    H174071   4.815   6.679   0.698 -0.1393  0.5404  0.4375
17552TIP3    H274072   4.790   6.529   0.700 -1.2167  0.6957 -0.7954
17553TIP3   OH274073   3.573   2.417   5.449  0.5193  0.2447  0.2466
17553TIP3    H174074   3.636   2.470   5.402  1.1570  0.6466  1.5109
17553TIP3    H274075   3.504   2.398   5.385  1.3220  0.8144 -0.8013
17554TIP3   OH274076   0.416   4.792   2.614 -0.3582  0.3987 -1.0548
17554TIP3    H174077   0.465   4.868   2.584  0.5369 -0.3469 -1.5428
17554TIP3    H274078   0.365   4.764   2.537  0.1289 -0.1159 -1.1958
17555TIP3   OH274079   5.835   4.813   4.316 -0.0004 -0.2988  0.2267
17555TIP3    H174080   5.840   4.895   4.266 -0.1889 -0.3323  0.1505
17555TIP3    H274081   5.805   4.841   4.403 -1.1372 -0.3985 -0.1099
17556TIP3   OH274082   5.418   4.587   0.886 -0.0814  0.0875 -0.1743
17556TIP3    H174083   5.368   4.512   0.919  0.8811 -0.9259 -0.9412
17556TIP3    H274084   5.352   4.651   0.862 -0.9192 -0.4287  0.6897
17557TIP3   OH274085   5.472   0.994  16.396  0.3862 -0.7113 -0.1434
17557TIP3    H174086   5.513   0.964  16.477  1.9247 -0.8192 -0.9071
17557TIP3    H274087   5.541   1.044  16.352 -0.4064 -0.6702 -1.3875
17558TIP3   OH274088   1.163   3.434  13.648  0.1670  0.5458  0.5742
17558TIP3    H174089   1.242   3.441  13.594  0.1012 -1.8070  0.0743
17558TIP3    H274090   1.092   3.461  13.591  0.4422  1.4000  0.6136
17559TIP3   OH274091   2.403   2.634  11.002 -0.3815 -0.0705  0.3983
17559TIP3    H174092   2.476   2.574  11.019 -0.1556  0.5380  1.7557
17559TIP3    H274093   2.429   2.716  11.044 -0.8102  0.9108 -1.1732
17560TIP3   OH274094   6.003   1.701   2.755 -0.4219 -0.1207 -0.3153
17560TIP3    H174095   6.023   1.760   2.683  1.1272  0.8816  0.8622
17560TIP3    H274096   6.073   1.635   2.752 -1.8008 -1.5999 -1.2531
17561TIP3   OH274097   2.489   2.794  14.274  0.0493  1.3147  0.1559
17561TIP3    H174098   2.410   2.743  14.291  2.1680 -2.4191 -0.2086
17561TIP3    H274099   2.557   2.752  14.325  2.6608  1.6723 -2.7046
17562TIP3   OH274100   6.715   2.964  12.927 -0.5227  0.3581 -0.0283
17562TIP3    H174101   6.650   2.971  12.997 -1.4333  0.4414 -0.8683
17562TIP3    H274102   6.785   2.910  12.964 -0.2202  1.7408  1.5094
17563TIP3   OH274103   5.589   1.041  12.558  0.5041 -0.0191  0.2605
17563TIP3    H174104   5.535   0.962  12.562  1.0122 -0.4320 -0.6698
17563TIP3    H274105   5.657   1.028  12.624  1.8188 -1.3325 -1.2669
17564TIP3   OH274106   5.868   6.290  13.672 -0.6747 -0.1962 -0.0348
17564TIP3    H174107   5.811   6.313  13.746  0.5321  0.2516  0.7891
17564TIP3    H274108   5.899   6.375  13.640 -0.5345 -0.4372 -0.5406
17565TIP3   OH274109   1.334   1.959  15.652 -0.2744  0.5479 -0.2753
17565TIP3    H174110   1.422   1.921  15.654 -0.5289 -0.0257  1.3512
17565TIP3    H274111   1.349   2.054  15.644  0.5479  0.5445  0.9301
17566TIP3   OH274112   6.055   0.963   4.940  0.1754 -0.5624  0.1245
17566TIP3    H174113   6.024   0.905   4.870  1.1671 -1.2797  0.2504
17566TIP3    H274114   6.037   0.915   5.021  0.9408 -0.6859  0.2329
17567TIP3   OH274115   0.280   1.108  15.362 -0.0564 -0.5353  0.2164
17567TIP3    H174116   0.285   1.086  15.455  1.0899 -1.4274 -0.0368
17567TIP3    H274117   0.359   1.069  15.324 -0.0561  0.5675 -0.9827
17568TIP3   OH274118   2.950   1.863  12.991 -0.0327  0.4482 -0.2581
17568TIP3    H174119   2.951   1.769  13.010 -3.2815  0.7342  2.0909
17568TIP3    H274120   2.895   1.871  12.913  2.2787  0.3194 -1.9980
17569TIP3   OH274121   1.782   2.816  14.377 -0.0210  0.8084 -0.3769
17569TIP3    H174122   1.709   2.866  14.415  1.4709  1.7865  1.4170
17569TIP3    H274123   1.842   2.884  14.345 -0.0387  0.0147 -2.1819
17570TIP3   OH274124   6.318   1.745  11.409  0.4191 -0.2809  0.3866
17570TIP3    H174125   6.228   1.765  11.437  0.5285 -1.1190  1.3959
17570TIP3    H274126   6.313   1.747  11.314 -1.1772 -2.2459  0.3523
17571TIP3   OH274127   0.374   4.366  14.240 -0.3933  0.3239 -0.0878
17571TIP3    H174128   0.334   4.450  14.219 -1.5849 -0.8985 -3.2512
17571TIP3    H274129   0.301   4.313  14.274  0.0812  0.1656  0.7041
17572TIP3   OH274130   0.481   0.695  12.243  0.2362 -0.7112  0.3826
17572TIP3    H174131   0.477   0.790  12.249 -1.5248 -0.6596 -0.8556
17572TIP3    H274132   0.574   0.675  12.232  0.4233  1.1268 -2.2853
17573TIP3   OH274133   2.050   3.486  11.127  0.2860  0.6988 -0.0070
17573TIP3    H174134   2.100   3.545  11.184 -1.2594 -0.0281  2.2465
17573TIP3    H274135   1.971   3.466  11.177 -0.4453 -1.2470 -1.7969
17574TIP3   OH274136   5.790   2.827   3.011  0.3431  0.1913 -0.0637
17574TIP3    H174137   5.875   2.809   2.970  0.9490 -0.9026  1.5456
17574TIP3    H274138   5.748   2.741   3.016  0.0573  0.3836  1.0333
17575TIP3   OH274139   4.747   5.273  12.778 -0.3468  0.1476 -0.2460
17575TIP3    H174140   4.742   5.369  12.782 -0.1840  0.1620 -0.3554
17575TIP3    H274141   4.841   5.254  12.772 -0.3533 -0.0402  0.2393
17576TIP3   OH274142   4.732   4.871  14.293 -0.2503  0.4022  0.0017
17576TIP3    H174143   4.659   4.855  14.234  0.1630  0.1084 -0.4458
17576TIP3    H274144   4.724   4.963  14.318 -1.5362  0.0276  1.0265
17577TIP3   OH274145   0.368   6.655  15.518  0.1146 -0.4020  0.1398
17577TIP3    H174146   0.291   6.664  15.574 -0.6500 -0.9505 -0.7750
17577TIP3    H274147   0.345   6.584  15.458  2.0291 -1.7700  0.9278
17578TIP3   OH274148   0.900   4.436   1.280 -0.2137  0.2903 -0.2086
17578TIP3    H174149   0.846   4.448   1.202 -0.4460  0.3895 -0.0337
17578TIP3    H274150   0.851   4.375   1.334 -0.6798  1.2068  0.4378
17579TIP3   OH274151   3.649   2.413  12.470  0.2478  0.4244 -0.4630
17579TIP3    H174152   3.721   2.468  12.439 -0.3155  0.2145 -2.2514
17579TIP3    H274153   3.570   2.460  12.444 -0.2815  0.2750  0.7935
17580TIP3   OH274154   2.366   0.261  14.444 -0.4326  0.3984  0.1990
17580TIP3    H174155   2.400   0.271  14.356  0.4676  0.5994  0.5625
17580TIP3    H274156   2.407   0.180  14.476 -0.9855  0.1658  0.3303
17581TIP3   OH274157   0.314   4.294  14.667 -0.4070  0.4624  0.2005
17581TIP3    H174158   0.280   4.384  14.668 -2.6809 -0.2351 -2.3610
17581TIP3    H274159   0.406   4.304  14.641 -1.0324  2.0237 -1.6694
17582TIP3   OH274160   2.819   4.350  15.251  0.3340  0.9191 -0.3816
17582TIP3    H174161   2.743   4.362  15.307  0.4741  0.8926 -0.1869
17582TIP3    H274162   2.893   4.384  15.302  0.5135  0.5805 -0.4093
17583TIP3   OH274163   0.271   3.423  11.960 -0.3057 -0.6546 -0.4460
17583TIP3    H174164   0.281   3.507  11.915 -0.6758  0.0717  0.7598
17583TIP3    H274165   0.209   3.442  12.031 -0.4168 -1.9594 -0.1758
17584TIP3   OH274166   4.377   5.667  14.466 -0.1100  0.6040 -0.2817
17584TIP3    H174167   4.473   5.671  14.464 -0.1443  1.4337 -1.6138
17584TIP3    H274168   4.352   5.735  14.528  0.1351  2.3503 -1.9839
17585TIP3   OH274169   6.245   2.986  16.362 -0.0531 -0.5502  1.1185
17585TIP3    H174170   6.227   3.002  16.269 -0.9639 -3.2145  0.7596
17585TIP3    H274171   6.320   3.042  16.381 -0.2089  0.5204 -1.0578
17586TIP3   OH274172   3.622   5.959   3.429  0.1507 -0.7109  0.0289
17586TIP3    H174173   3.537   5.951   3.386  0.3916 -0.9561 -0.4063
17586TIP3    H274174   3.665   5.875   3.414  0.1904 -0.8447  0.8599
17587TIP3   OH274175   2.875   2.726   6.066 -0.7742  0.0872  0.4953
17587TIP3    H174176   2.905   2.695   6.152 -0.5130  2.3120  1.2788
17587TIP3    H274177   2.954   2.756   6.022 -1.0740  0.1904  0.0227
17588TIP3   OH274178   6.528   5.895  15.503 -0.0110  0.2858  0.4469
17588TIP3    H174179   6.544   5.837  15.430 -1.6470  0.4678 -0.0931
17588TIP3    H274180   6.545   5.983  15.469  2.7494  0.1843  1.3424
17589TIP3   OH274181   2.548   4.843  17.173  0.2784  0.2345 -0.5407
17589TIP3    H174182   2.535   4.773  17.110 -0.5817 -0.6441  0.5650
17589TIP3    H274183   2.460   4.881  17.185  0.4453  0.4629  0.0282
17590TIP3   OH274184   0.848   0.954   5.032  0.0365  0.2133 -0.3360
17590TIP3    H174185   0.886   0.984   4.949  0.1954  1.6791  0.2221
17590TIP3    H274186   0.800   1.030   5.065  0.1662 -0.2566  1.0171
17591TIP3   OH274187   1.148   5.927  13.996 -0.4252  0.2062 -0.0752
17591TIP3    H174188   1.222   5.881  13.957  0.2137  2.8530 -2.3349
17591TIP3    H274189   1.083   5.932  13.926 -0.4428  2.6046  0.0093
17592TIP3   OH274190   4.627   6.666   2.042 -0.0607 -0.5841 -0.0173
17592TIP3    H174191   4.592   6.577   2.054  0.1477 -0.4165  2.3255
17592TIP3    H274192   4.720   6.652   2.023 -0.5385 -0.8929 -2.5395
17593TIP3   OH274193   5.542   4.989  15.025  0.2823  0.2459 -0.1659
17593TIP3    H174194   5.461   4.939  15.033  1.1137 -0.9705  1.1591
17593TIP3    H274195   5.573   4.970  14.936 -1.2939  1.4446 -1.0162
17594TIP3   OH274196   6.430   5.215  16.038 -0.1075  0.6402  0.4439
17594TIP3    H174197   6.430   5.255  15.951  0.4010 -0.7795 -0.2333
17594TIP3    H274198   6.337   5.210  16.061 -0.2532  0.9414 -0.0571
17595TIP3   OH274199   3.621   1.038   0.374  0.4990 -0.1088  0.6522
17595TIP3    H174200   3.540   1.086   0.357  0.0270 -1.1433 -0.1010
17595TIP3    H274201   3.682   1.068   0.307  0.8463  0.8863  1.3977
17596TIP3   OH274202   4.327   2.342   0.302  0.0312  0.2327  0.1201
17596TIP3    H174203   4.385   2.267   0.308 -0.4383 -0.1331  0.1480
17596TIP3    H274204   4.259   2.316   0.240  0.7877  1.2646 -1.1774
17597TIP3   OH274205   4.874   6.589   2.873 -0.1983 -0.2264 -0.2931
17597TIP3    H174206   4.803   6.526   2.866 -1.3091  0.8436  0.7682
17597TIP3    H274207   4.952   6.541   2.845 -0.7420 -2.5268  1.8056
17598TIP3   OH274208   3.096   5.304  15.895 -0.1686  0.3537  0.2618
17598TIP3    H174209   3.006   5.335  15.889 -0.9045 -1.6992 -0.2878
17598TIP3    H274210   3.119   5.314  15.987 -2.1438 -1.9540  1.1281
17599TIP3   OH274211   3.398   1.932   5.568  0.5573  0.0488  0.6811
17599TIP3    H174212   3.456   1.908   5.495  0.8902  0.4900  0.8020
17599TIP3    H274213   3.456   1.968   5.634  0.1136  0.7693  0.6846
17600TIP3   OH274214   1.819   3.147   0.743  0.2818 -0.2942  0.1883
17600TIP3    H174215   1.913   3.154   0.726  0.1168  0.4529 -0.5218
17600TIP3    H274216   1.778   3.182   0.664 -0.5992 -0.8775  0.3760
17601TIP3   OH274217   3.946   1.157  15.162  0.0271 -0.3542 -0.4513
17601TIP3    H174218   4.037   1.185  15.151  0.8379 -2.6674 -0.2767
17601TIP3    H274219   3.915   1.139  15.073  0.7626 -2.3076 -0.3723
17602TIP3   OH274220   6.050   2.384  12.449  0.4367 -0.7469 -0.7655
17602TIP3    H174221   5.970   2.428  12.424 -0.4860 -0.2781  2.4926
17602TIP3    H274222   6.115   2.454  12.456  0.5679 -0.8107 -1.2964
17603TIP3   OH274223   3.368   6.372   4.648  0.5359 -0.7093  0.2590
17603TIP3    H174224   3.347   6.409   4.733 -0.6961 -0.6375 -0.0653
17603TIP3    H274225   3.418   6.441   4.604 -0.6763  0.1075  0.1265
17604TIP3   OH274226   1.040   3.927  15.481 -0.0237  0.0239 -0.4135
17604TIP3    H174227   1.049   3.921  15.577  0.5315  0.0760 -0.4593
17604TIP3    H274228   1.006   4.015  15.466 -0.1409  0.0059 -0.2587
17605TIP3   OH274229   2.446   2.517   5.669  0.0249  0.1853 -0.1798
17605TIP3    H174230   2.537   2.523   5.698  0.3472 -2.3896 -0.4373
17605TIP3    H274231   2.448   2.457   5.594 -1.6526  1.5880 -1.4414
17606TIP3   OH274232   3.519   5.493  16.782  0.2525  0.0687 -0.5963
17606TIP3    H174233   3.505   5.585  16.805  0.2104  0.2093 -1.1576
17606TIP3    H274234   3.613   5.480  16.789  0.4265  0.5416 -1.8743
17607TIP3   OH274235   5.941   5.938  13.143  0.0809 -0.0193  0.2142
17607TIP3    H174236   5.988   5.877  13.201  0.5849  0.1219 -0.0343
17607TIP3    H274237   5.859   5.894  13.124 -0.3867  0.2113  1.5544
17608TIP3   OH274238   2.408   2.384   1.013  0.2275 -0.2915 -0.0944
17608TIP3    H174239   2.412   2.326   0.938 -0.8234 -0.2913 -0.1619
17608TIP3    H274240   2.498   2.416   1.024  0.2275  0.4106 -1.8969
17609TIP3   OH274241   3.290   0.180   4.320  0.0232  0.1523  0.3541
17609TIP3    H174242   3.292   0.215   4.231  0.3157  0.0213  0.3071
17609TIP3    H274243   3.292   0.257   4.376  0.3203  0.2234  0.2497
17610TIP3   OH274244   0.258   4.050   2.083  0.5462 -0.2228  0.2200
17610TIP3    H174245   0.245   3.965   2.126  0.4169 -0.8953 -1.0954
17610TIP3    H274246   0.181   4.101   2.109  0.6697 -0.4672  1.0993
17611TIP3   OH274247   5.493   4.918  11.254  0.3913  0.6949  0.2107
17611TIP3    H174248   5.528   4.984  11.194  0.9283 -0.3696 -0.6767
17611TIP3    H274249   5.504   4.957  11.341  2.0322  1.1796 -0.1788
17612TIP3   OH274250   3.255   5.184   5.484 -0.4337 -0.1286 -0.0666
17612TIP3    H174251   3.270   5.267   5.437 -0.0959  0.9504  1.8551
17612TIP3    H274252   3.234   5.122   5.415 -1.6498  1.7572 -1.5119
17613TIP3   OH274253   6.501   1.924   2.682  0.2831 -0.5849 -0.2351
17613TIP3    H174254   6.499   1.958   2.772  0.9905 -0.8405 -0.1113
17613TIP3    H274255   6.509   1.829   2.693 -0.7935 -0.7277 -0.5788
17614TIP3   OH274256   2.775   0.664  14.044  0.8371  0.1007  0.1474
17614TIP3    H174257   2.864   0.678  14.075  1.2738 -0.7203 -0.6945
17614TIP3    H274258   2.742   0.591  14.098  1.8878 -1.8962 -1.7684
17615TIP3   OH274259   2.197   3.735  12.608 -0.0517 -0.7789  0.3102
17615TIP3    H174260   2.152   3.693  12.535 -1.3281  0.8550  0.1082
17615TIP3    H274261   2.130   3.743  12.676  0.6868 -0.7936  1.0611
17616TIP3   OH274262   5.765   2.688   6.229 -0.2465 -0.7146  0.1412
17616TIP3    H174263   5.795   2.603   6.262  2.3733  0.0042 -0.1717
17616TIP3    H274264   5.827   2.751   6.265 -1.8026  1.0493 -0.0778
17617TIP3   OH274265   2.126   0.522   3.780  0.2827  0.1069 -0.1159
17617TIP3    H174266   2.080   0.464   3.720  0.4329  0.3466 -0.4636
17617TIP3    H274267   2.111   0.484   3.867  0.1806 -0.3121 -0.3176
17618TIP3   OH274268   4.707   4.002   3.962  0.1943  0.0006  0.1766
17618TIP3    H174269   4.673   4.064   3.897 -0.0705 -1.5113 -1.1919
17618TIP3    H274270   4.631   3.977   4.014  0.6547  2.3258  2.1369
17619TIP3   OH274271   6.231   2.723   2.234  0.1288  0.0365 -0.0880
17619TIP3    H174272   6.243   2.731   2.139  1.4447  0.7676  0.1091
17619TIP3    H274273   6.176   2.646   2.245 -1.0373  0.6163 -1.4955
17620TIP3   OH274274   5.450   1.481  11.102  0.7950 -0.2683  0.4060
17620TIP3    H174275   5.483   1.500  11.015 -1.5053  0.5598 -0.3352
17620TIP3    H274276   5.444   1.385  11.105  1.3612 -0.3285 -0.1183
17621TIP3   OH274277   0.030   1.221  15.611  0.0443 -0.2705  0.0171
17621TIP3    H174278   0.099   1.288  15.612 -0.4026  0.2015  1.4018
17621TIP3    H274279  -0.048   1.267  15.581 -0.2458 -0.1915  0.8949
17622TIP3   OH274280   4.151   4.520  15.591  0.2428  0.0210  0.1796
17622TIP3    H174281   4.069   4.568  15.584 -0.1153 -0.7664 -1.8028
17622TIP3    H274282   4.137   4.459  15.663 -0.5514  0.5563  0.4893
17623TIP3   OH274283   2.006   5.583   1.884 -0.4910  0.1723  0.9392
17623TIP3    H174284   1.947   5.655   1.905 -0.6741  0.6982 -1.2224
17623TIP3    H274285   1.983   5.558   1.795  3.2123  1.0721 -0.4033
17624TIP3   OH274286   4.499   5.438   2.388 -0.3583 -0.4586  0.0757
17624TIP3    H174287   4.485   5.350   2.423 -1.2775 -0.0458  0.7817
17624TIP3    H274288   4.587   5.461   2.417  0.8985 -2.0742 -2.1886
17625TIP3   OH274289   2.047   2.850  12.100  0.0037 -0.2949 -0.2492
17625TIP3    H174290   2.050   2.842  12.195  1.1363 -0.3709 -0.2850
17625TIP3    H274291   2.018   2.940  12.085 -1.6822 -0.7343  0.1466
17626TIP3   OH274292   5.347   4.978  16.346 -0.1434  0.8068 -0.0788
17626TIP3    H174293   5.410   4.953  16.279  0.8346  0.2107  1.0293
17626TIP3    H274294   5.302   5.054  16.310  0.3507  0.4944 -1.4005
17627TIP3   OH274295   3.692   0.392   6.587  0.2103  0.2156 -0.3739
17627TIP3    H174296   3.608   0.371   6.628  0.9863  0.2039  1.2830
17627TIP3    H274297   3.739   0.308   6.586  0.0989  0.1458 -1.6187
17628TIP3   OH274298   2.657   2.101   4.386  0.1183  0.4327  0.0831
17628TIP3    H174299   2.593   2.150   4.335  1.4325  2.1017 -0.0168
17628TIP3    H274300   2.605   2.039   4.437 -1.5356  1.4431 -0.3246
17629TIP3   OH274301   5.611   0.547  14.411 -0.1515 -0.4919  0.5766
17629TIP3    H174302   5.603   0.481  14.480 -0.8693 -0.5696  0.4269
17629TIP3    H274303   5.534   0.533  14.356  0.2789 -0.2522 -0.0857
17630TIP3   OH274304   1.862   1.830   3.987  0.3143  0.6798  0.3531
17630TIP3    H174305   1.838   1.855   4.076  1.7322  0.7243  0.7388
17630TIP3    H274306   1.957   1.828   3.987  0.3294 -1.7123 -0.5051
17631TIP3   OH274307   1.337   6.248   1.436  0.2844 -0.0563 -0.2184
17631TIP3    H174308   1.411   6.243   1.375 -0.3362 -1.4911 -0.8948
17631TIP3    H274309   1.368   6.202   1.515  0.4014  0.0678 -0.1918
17632TIP3   OH274310   3.153   0.969   2.955  0.2932  0.3305 -0.5081
17632TIP3    H174311   3.115   0.935   2.874 -0.6040  0.5025 -0.1710
17632TIP3    H274312   3.098   1.045   2.976 -0.6701 -0.8044  1.2561
17633TIP3   OH274313   6.590   3.145   5.177 -0.4144  0.4040 -0.3663
17633TIP3    H174314   6.570   3.148   5.271  0.6788  0.8181 -0.1363
17633TIP3    H274315   6.524   3.085   5.141 -1.1047  0.5606  0.5891
17634TIP3   OH274316   2.894   1.372   0.072 -0.2728 -0.3643 -0.5624
17634TIP3    H174317   2.973   1.425   0.079 -1.6670  1.7118  0.4408
17634TIP3    H274318   2.862   1.388  -0.016  0.4825 -1.3646 -1.0394
17635TIP3   OH274319   6.412   5.978  12.391  0.4373 -0.2173 -0.0697
17635TIP3    H174320   6.507   5.980  12.399  0.4466  2.7682  0.0828
17635TIP3    H274321   6.394   6.012  12.303 -0.5031  0.6442  0.4352
17636TIP3   OH274322   1.255   5.107  16.928  0.0738  0.1010  0.0466
17636TIP3    H174323   1.276   5.047  16.857 -1.0563  0.1471 -0.3454
17636TIP3    H274324   1.200   5.056  16.987 -1.1013  0.7764 -0.4156
17637TIP3   OH274325   0.893   0.935  15.993 -0.3221 -0.3754 -0.1551
17637TIP3    H174326   0.936   0.944  16.079 -1.4108  0.5223  0.3266
17637TIP3    H274327   0.958   0.966  15.931  0.5072 -1.0904  0.3305
17638TIP3   OH274328   3.912   4.300   2.604 -0.3393  0.1149 -0.2822
17638TIP3    H174329   3.875   4.304   2.516 -0.5466  1.8821 -0.1654
17638TIP3    H274330   3.839   4.272   2.659  0.0299 -1.8842 -0.7575
17639TIP3   OH274331   3.200   2.957   5.046  0.1807  0.1587  0.1469
17639TIP3    H174332   3.134   3.026   5.050  0.6139  0.5235  1.3068
17639TIP3    H274333   3.265   2.991   4.984  0.3618  0.7780  0.6594
17640TIP3   OH274334   4.773   2.679   0.864  0.2315  0.5772  0.1376
17640TIP3    H174335   4.736   2.715   0.946  0.5557  1.5528 -0.1253
17640TIP3    H274336   4.734   2.592   0.856  1.8974 -0.4977  2.5015
17641TIP3   OH274337   4.130   2.471  17.065 -0.2441  0.2837 -0.3561
17641TIP3    H174338   4.127   2.376  17.052 -1.2798  0.2491  0.0196
17641TIP3    H274339   4.109   2.509  16.980  2.4325  0.2517 -1.1191
17642TIP3   OH274340   3.045   5.370   2.311 -0.2658 -0.3056  0.5547
17642TIP3    H174341   2.992   5.347   2.388 -1.2105 -0.3039 -0.0776
17642TIP3    H274342   3.120   5.418   2.347 -0.8893  0.0207  1.4499
17643TIP3   OH274343   3.855   2.782   2.308 -1.0453 -0.4926  0.3721
17643TIP3    H174344   3.876   2.786   2.215 -0.6971 -2.1307  0.3472
17643TIP3    H274345   3.900   2.857   2.347  0.5347 -0.9694 -0.4714
17644TIP3   OH274346   5.782   1.107   4.535  0.8168  0.0166  0.0288
17644TIP3    H174347   5.780   1.057   4.453  0.3749  0.6711 -0.3676
17644TIP3    H274348   5.873   1.101   4.564  1.2071  0.5708 -1.0082
17645TIP3   OH274349   6.554   0.436   2.293 -0.3442 -0.1098  0.0497
17645TIP3    H174350   6.579   0.369   2.357 -0.4610 -0.0912  0.1138
17645TIP3    H274351   6.465   0.414   2.267  0.1078 -0.7968 -0.9801
17646TIP3   OH274352   1.241   4.338  13.228 -0.6166 -0.1700 -0.3545
17646TIP3    H174353   1.281   4.425  13.224 -2.5029  0.8418  1.0235
17646TIP3    H274354   1.311   4.281  13.262  0.7919  0.6631 -1.7117
17647TIP3   OH274355   5.113   5.412   2.769  0.9145  0.2757 -0.3014
17647TIP3    H174356   5.177   5.417   2.841  1.7141 -0.6732 -0.9176
17647TIP3    H274357   5.124   5.324   2.733 -1.1792 -0.1415 -0.0540
17648TIP3   OH274358   1.613   0.029   2.806 -0.5319 -0.8074  0.3656
17648TIP3    H174359   1.568   0.107   2.837 -1.6697  0.1017 -3.0557
17648TIP3    H274360   1.705   0.054   2.803 -0.8813  0.4937 -0.7239
17649TIP3   OH274361   4.596   4.167   1.926  0.2199  0.1718  0.7558
17649TIP3    H174362   4.635   4.241   1.880  0.3010  1.0543  2.1726
17649TIP3    H274363   4.635   4.090   1.885  0.3423  0.9110 -0.5734
17650TIP3   OH274364   1.747   0.277  14.017 -0.3999 -0.8561  0.5676
17650TIP3    H174365   1.748   0.235  13.931 -0.7198 -0.3768  0.3316
17650TIP3    H274366   1.804   0.353  14.008 -0.9723 -0.4247  0.5892
17651TIP3   OH274367   2.385   0.762  12.970  0.1201  0.4394 -0.1134
17651TIP3    H174368   2.304   0.711  12.969  0.7123 -0.5391 -1.4588
17651TIP3    H274369   2.386   0.807  12.886  1.2754 -0.1022 -0.4058
17652TIP3   OH274370   2.472   4.116   0.251  0.5445 -0.1484 -0.0137
17652TIP3    H174371   2.479   4.021   0.251  0.3444 -0.1644 -0.1821
17652TIP3    H274372   2.510   4.143   0.335  0.2559 -0.4020  0.1998
17653TIP3   OH274373   0.802   5.643  16.700 -0.2973  0.3302 -0.1752
17653TIP3    H174374   0.755   5.708  16.648 -1.6795  0.7843  1.5415
17653TIP3    H274375   0.894   5.664  16.686 -0.5735  0.0930 -2.7983
17654TIP3   OH274376   5.096   5.811   3.197  0.4446  0.0672 -0.1481
17654TIP3    H174377   5.180   5.766   3.206  0.8942  0.8062 -0.4979
17654TIP3    H274378   5.039   5.768   3.261  0.5182 -1.7123 -1.2030
17655TIP3   OH274379   2.208   5.621   4.594 -0.4683 -0.2154  0.5264
17655TIP3    H174380   2.163   5.697   4.556  2.4861  1.8435  0.8460
17655TIP3    H274381   2.164   5.545   4.555 -2.9312  1.6196 -0.5465
17656TIP3   OH274382   2.072   3.233   2.430 -0.4169  0.2136 -0.3441
17656TIP3    H174383   2.020   3.201   2.356 -1.1149  0.5754 -0.0191
17656TIP3    H274384   2.014   3.294   2.475 -0.0561 -0.1251  0.5950
17657TIP3   OH274385   4.067   3.308   2.777  0.1772 -0.0630 -0.2655
17657TIP3    H174386   4.119   3.303   2.697 -1.2312 -1.2637 -1.1513
17657TIP3    H274387   4.122   3.268   2.844  0.5403 -1.0380 -1.1161
17658TIP3   OH274388   3.543   0.172   3.205  0.2836  0.2563 -0.1879
17658TIP3    H174389   3.540   0.210   3.293 -1.4272  2.1378 -0.9918
17658TIP3    H274390   3.459   0.195   3.165  0.7539 -1.0975 -2.1220
17659TIP3   OH274391   4.579   3.193   3.357 -0.2186  0.0229 -0.2817
17659TIP3    H174392   4.667   3.191   3.320 -0.0529 -0.4532  0.1310
17659TIP3    H274393   4.553   3.102   3.364 -0.8580  0.1738 -0.6611
17660TIP3   OH274394   1.824   2.600  15.154  0.3098  0.4386 -0.3576
17660TIP3    H174395   1.914   2.611  15.187  0.2091 -1.2527  0.6029
17660TIP3    H274396   1.809   2.677  15.099  0.8248  2.9862  2.8062
17661TIP3   OH274397   1.347   6.050   4.421  0.3128  0.0825  0.2590
17661TIP3    H174398   1.386   6.061   4.334  1.7671 -0.6257  0.7879
17661TIP3    H274399   1.345   6.139   4.458  1.6545  0.1164  0.2915
17662TIP3   OH274400   5.906   0.544   2.891 -0.1459 -0.3607  0.4926
17662TIP3    H174401   5.901   0.577   2.981 -0.2517 -0.0801  0.3859
17662TIP3    H274402   5.817   0.512   2.872 -0.0222 -0.7963  0.6258
17663TIP3   OH274403   4.392   0.072  12.230 -0.2212 -0.3254 -0.4824
17663TIP3    H174404   4.388   0.157  12.186  0.4822 -0.9985 -1.9547
17663TIP3    H274405   4.466   0.079  12.290 -1.5134  0.7840  1.0550
17664TIP3   OH274406   5.006   1.441   3.467  0.1564 -0.3150  0.0009
17664TIP3    H174407   5.045   1.528   3.472 -1.4299  0.6278 -2.1067
17664TIP3    H274408   5.057   1.396   3.400  0.8571 -0.9769  0.9582
17665TIP3   OH274409   0.575   5.265   1.092  0.2523 -0.4981  0.1474
17665TIP3    H174410   0.662   5.304   1.091  0.0408 -0.0095  0.0857
17665TIP3    H274411   0.589   5.174   1.117  0.6754 -0.1558  1.2135
17666TIP3   OH274412   3.062   1.041   2.133 -0.1511  0.3028  0.4899
17666TIP3    H174413   3.022   0.969   2.182 -0.1023 -0.4378 -0.5170
17666TIP3    H274414   3.147   1.054   2.175 -0.0016 -0.4894  0.4518
17667TIP3   OH274415   5.825   0.702   1.347 -0.4036 -0.0201  0.6431
17667TIP3    H174416   5.838   0.794   1.323  1.1616 -0.0681  1.1880
17667TIP3    H274417   5.818   0.656   1.264  2.0510  0.2036  0.2303
17668TIP3   OH274418   3.496   1.093   5.521 -0.1148 -0.6015 -0.1544
17668TIP3    H174419   3.509   1.019   5.582 -0.8460 -1.1551 -0.6519
17668TIP3    H274420   3.459   1.162   5.575 -1.0576 -1.1985 -0.0087
17669TIP3   OH274421   3.252   3.382   1.140 -0.2207  0.2942 -0.1114
17669TIP3    H174422   3.316   3.330   1.189  0.3929 -0.1823 -1.3905
17669TIP3    H274423   3.178   3.323   1.127  0.0780  0.0428 -0.7160
17670TIP3   OH274424   5.043   1.086  16.910 -0.4269 -0.2260  0.0448
17670TIP3    H174425   4.960   1.130  16.891  0.2375  1.1882  0.2737
17670TIP3    H274426   5.099   1.105  16.834  0.5134  1.0246  1.0114
17671TIP3   OH274427   5.787   1.426   2.954 -0.2725 -0.1710  0.0963
17671TIP3    H174428   5.733   1.504   2.949 -0.0151  0.0258  0.3464
17671TIP3    H274429   5.788   1.403   3.048 -2.0590 -1.6897 -0.1940
17672TIP3   OH274430   4.274   2.342  10.985 -0.3874 -0.5840  0.2863
17672TIP3    H174431   4.229   2.313  10.906 -1.7258 -0.1224  0.8478
17672TIP3    H274432   4.292   2.435  10.969  1.0930 -0.9283 -0.2379
17673TIP3   OH274433   4.298   3.050   4.380 -0.7283 -0.2274  0.2390
17673TIP3    H174434   4.366   3.117   4.367  0.8774 -1.5491  1.4439
17673TIP3    H274435   4.238   3.090   4.443 -1.7512  1.3803 -1.6445
17674TIP3   OH274436   0.142   5.503   2.226 -0.3975 -0.0010  0.4426
17674TIP3    H174437   0.059   5.515   2.180 -0.0042  0.4437 -0.1736
17674TIP3    H274438   0.128   5.428   2.283 -0.8645 -0.6512 -0.5070
17675TIP3   OH274439   6.177   3.118   1.329 -0.2129  0.0653  0.3440
17675TIP3    H174440   6.251   3.092   1.273 -0.0028 -0.0340  0.6658
17675TIP3    H274441   6.195   3.075   1.413 -0.7009 -0.0593  0.3848
17676TIP3   OH274442   0.812   6.706  14.513 -0.2392  0.0237  0.4064
17676TIP3    H174443   0.719   6.701  14.534 -0.8620 -0.2653 -2.0933
17676TIP3    H274444   0.846   6.618  14.533 -0.6297 -0.0500  0.7555
17677TIP3   OH274445   3.241   1.701  11.134  0.6737  0.0199 -0.7557
17677TIP3    H174446   3.172   1.636  11.137  2.7709 -2.3235  0.4757
17677TIP3    H274447   3.215   1.760  11.063 -0.2525 -3.5356 -3.7283
17678TIP3   OH274448   5.934   3.615  11.770  0.8023 -0.4144  0.0354
17678TIP3    H174449   5.858   3.667  11.796  0.3093 -0.5564 -1.0818
17678TIP3    H274450   5.960   3.652  11.685  1.8695 -0.4919  0.3137
17679TIP3   OH274451   4.403   2.823   0.626 -0.4695 -0.7812  0.2896
17679TIP3    H174452   4.368   2.865   0.547  0.8265  1.0648  0.6108
17679TIP3    H274453   4.383   2.885   0.697 -2.8756 -3.0477  1.7408
17680TIP3   OH274454   6.121   4.706   5.045 -0.3302 -0.2000 -0.1583
17680TIP3    H174455   6.078   4.680   5.127 -0.4549  0.2590 -0.0709
17680TIP3    H274456   6.149   4.624   5.005  0.9557 -0.3743  1.0041
17681TIP3   OH274457   2.148   0.798  16.425 -0.2217 -0.1676  0.7412
17681TIP3    H174458   2.211   0.775  16.357 -0.2793  1.3150  0.1554
17681TIP3    H274459   2.198   0.849  16.488 -0.4613 -0.4125  1.1293
17682TIP3   OH274460   4.637   5.021   3.734  0.0345  0.2062 -0.3243
17682TIP3    H174461   4.623   4.933   3.768  0.5340 -0.0272 -0.7202
17682TIP3    H274462   4.677   5.068   3.808 -0.8535  0.2992  0.1124
17683TIP3   OH274463   1.988   4.399  13.427  0.0837 -0.0247  0.0428
17683TIP3    H174464   1.954   4.310  13.416  0.8828 -0.3198 -0.1384
17683TIP3    H274465   1.922   4.443  13.480 -0.1365 -0.8524  0.4867
17684TIP3   OH274466   2.064   3.916  14.542 -0.2288 -0.0454 -0.3556
17684TIP3    H174467   1.995   3.958  14.593 -1.3099 -0.6010 -1.3167
17684TIP3    H274468   2.129   3.985  14.529 -0.8231  0.6344  0.1701
17685TIP3   OH274469   1.073   3.861  13.561  0.2154  0.1664 -0.9911
17685TIP3    H174470   1.065   3.885  13.469  2.4700  1.3806 -0.9484
17685TIP3    H274471   1.066   3.944  13.608  0.9179 -0.1790 -0.2451
17686TIP3   OH274472   4.980   2.130   0.766 -0.3275 -0.4160 -0.0259
17686TIP3    H174473   5.017   2.045   0.742 -0.6971 -0.3262 -0.9747
17686TIP3    H274474   4.913   2.110   0.832 -0.4747 -0.8734 -0.3096
17687TIP3   OH274475   2.863   4.597   1.925  0.0224  0.3377  0.0343
17687TIP3    H174476   2.811   4.574   1.848 -0.3659  1.4369 -0.0449
17687TIP3    H274477   2.925   4.525   1.934  0.7071  0.6274 -1.8834
17688TIP3   OH274478   4.116   3.153   0.173 -0.2571  0.1209 -0.0506
17688TIP3    H174479   4.064   3.142   0.253 -0.5383  2.1330  0.0976
17688TIP3    H274480   4.058   3.122   0.103 -0.2280 -1.1186  0.4420
17689TIP3   OH274481   6.358   4.146   5.902 -0.3891  0.0050 -0.0026
17689TIP3    H174482   6.333   4.233   5.932 -1.5597 -0.0055 -0.8759
17689TIP3    H274483   6.275   4.103   5.881  0.2836 -0.2548 -2.4551
17690TIP3   OH274484   1.300   6.693  14.487 -0.2381  0.4081  0.0204
17690TIP3    H174485   1.217   6.737  14.502 -1.6488 -2.2486  0.5935
17690TIP3    H274486   1.363   6.764  14.475 -2.4230  2.5180  0.3123
17691TIP3   OH274487   0.250   2.750  11.096  1.1239  0.0661 -0.3407
17691TIP3    H174488   0.193   2.762  11.019  0.2401  0.1895  0.3206
17691TIP3    H274489   0.307   2.827  11.095  1.0514  0.1171 -0.8280
17692TIP3   OH274490   3.505   2.421  17.014 -0.6433 -0.0144 -0.3181
17692TIP3    H174491   3.548   2.336  17.012 -0.3884  0.1231 -2.0884
17692TIP3    H274492   3.516   2.452  17.104 -1.3484 -2.1393  0.5587
17693TIP3   OH274493   4.722   2.538   3.155 -0.5555  0.2306 -0.2763
17693TIP3    H174494   4.719   2.632   3.137 -1.4247 -0.2066 -2.9389
17693TIP3    H274495   4.801   2.507   3.109 -2.3954 -0.8340 -3.0460
17694TIP3   OH274496   0.428   0.058  16.807  0.4083 -0.7819 -0.2909
17694TIP3    H174497   0.337   0.044  16.780  0.0549  1.8970 -0.7468
17694TIP3    H274498   0.453  -0.025  16.848 -2.7169 -1.1547  1.1892
17695TIP3   OH274499   4.950   5.674  15.226 -0.3132  0.1636  0.1170
17695TIP3    H174500   4.930   5.595  15.276 -0.1464  1.1687  1.8379
17695TIP3    H274501   5.003   5.727  15.285 -0.5078  1.6265 -0.9650
17696TIP3   OH274502   3.928   6.472  16.397  0.2466  0.1381 -0.3328
17696TIP3    H174503   3.909   6.493  16.488 -0.7613 -0.7978 -0.3023
17696TIP3    H274504   4.009   6.422  16.400  0.5284  0.6044 -0.0195
17697TIP3   OH274505   0.833   1.153  15.354  1.0173 -0.2095 -0.0481
17697TIP3    H174506   0.761   1.200  15.313 -1.7574 -0.2952  4.1524
17697TIP3    H274507   0.899   1.220  15.371  0.0250  0.8015 -0.0683
17698TIP3   OH274508   5.765   4.160   4.894 -0.0632  0.0607 -0.1239
17698TIP3    H174509   5.816   4.156   4.975 -1.4761  1.3026  0.8827
17698TIP3    H274510   5.720   4.244   4.897 -1.9133 -0.8143 -1.0989
17699TIP3   OH274511   4.382   4.818   1.259  0.0676  0.2321 -0.4193
17699TIP3    H174512   4.287   4.811   1.253  0.1030 -0.5522 -0.1331
17699TIP3    H274513   4.408   4.747   1.317  0.6794  1.4597  0.8802
17700TIP3   OH274514   0.369   4.851   1.233 -0.3725  0.0044 -0.0045
17700TIP3    H174515   0.435   4.917   1.214 -1.5076  0.6531 -1.8779
17700TIP3    H274516   0.402   4.771   1.192  0.4409 -0.3461  1.2714
17701TIP3   OH274517   6.411   5.961  13.901  0.6032 -0.1309  0.1087
17701TIP3    H174518   6.473   5.900  13.861 -1.9712 -2.8347 -0.1494
17701TIP3    H274519   6.401   5.930  13.991  1.7878  2.1389  1.0856
17702TIP3   OH274520   0.087   1.229  11.826  0.0882 -0.1715 -0.5857
17702TIP3    H174521   0.029   1.284  11.878 -2.6860 -0.6655 -2.9326
17702TIP3    H274522   0.099   1.150  11.878 -0.6774  0.2811  0.3010
17703TIP3   OH274523   0.959   4.462   4.964 -0.4191  0.3756 -0.3835
17703TIP3    H174524   1.042   4.416   4.974 -0.4573 -0.0358 -1.7718
17703TIP3    H274525   0.982   4.555   4.962  0.0131  0.2610 -0.7739
17704TIP3   OH274526   6.179   4.069   0.426  0.3837  0.1351 -0.0755
17704TIP3    H174527   6.143   4.088   0.339  0.5906  0.0364 -0.1840
17704TIP3    H274528   6.268   4.104   0.423  0.4650 -0.0632  0.0254
17705TIP3   OH274529   6.104   3.454   4.391 -0.2027  0.3726  0.6837
17705TIP3    H174530   6.062   3.460   4.477 -1.5949  1.0337 -0.0089
17705TIP3    H274531   6.134   3.544   4.373 -3.0435  1.1066 -0.9829
17706TIP3   OH274532   6.600   5.625   4.422  0.5313  0.1199  0.1503
17706TIP3    H174533   6.672   5.562   4.417  0.7294 -0.0606  3.2691
17706TIP3    H274534   6.635   5.698   4.473 -0.6313  1.4051 -0.7936
17707TIP3   OH274535   5.815   1.889  15.485  0.5972  0.2799 -0.2974
17707TIP3    H174536   5.753   1.961  15.472  0.4993 -0.0353 -1.7136
17707TIP3    H274537   5.846   1.900  15.575 -1.6748  0.3270  0.5475
17708TIP3   OH274538   4.837   5.780  14.720  0.1433  0.3112  0.5262
17708TIP3    H174539   4.906   5.843  14.738 -0.6180  1.2276  0.3495
17708TIP3    H274540   4.870   5.728  14.647  0.2599  1.3968 -0.2209
17709TIP3   OH274541   0.507   2.550   4.351  0.8366  0.2921 -0.7834
17709TIP3    H174542   0.537   2.621   4.408  0.5929 -0.5089  0.3541
17709TIP3    H274543   0.436   2.589   4.300  1.5259  1.2152 -1.0800
17710TIP3   OH274544   0.846   5.105  12.420  0.3400 -0.5218  0.0430
17710TIP3    H174545   0.861   5.184  12.472 -0.5878  0.1738 -0.7123
17710TIP3    H274546   0.889   5.122  12.337 -0.3926 -0.5518 -0.3496
17711TIP3   OH274547   6.350   6.773   1.171 -0.1720  0.4197  0.4206
17711TIP3    H174548   6.391   6.716   1.236 -0.5312  0.9081  1.0896
17711TIP3    H274549   6.401   6.758   1.091 -0.7320 -1.3810  0.3646
17712TIP3   OH274550   0.949   3.180   3.743 -0.7977  0.2545  0.5037
17712TIP3    H174551   0.894   3.254   3.770 -2.2214 -0.7610  0.4935
17712TIP3    H274552   0.946   3.182   3.647  0.5454  1.1398  0.4397
17713TIP3   OH274553   4.984   1.457   2.066 -0.0360 -0.4628 -0.1291
17713TIP3    H174554   4.897   1.438   2.101 -0.4671 -0.3130 -1.0825
17713TIP3    H274555   5.011   1.536   2.112 -0.7427 -0.0623 -0.3867
17714TIP3   OH274556   1.643   2.235  10.660  0.5148  0.6518 -0.0429
17714TIP3    H174557   1.574   2.243  10.594 -0.0953  0.9303  0.6143
17714TIP3    H274558   1.610   2.170  10.722  1.5663 -0.4324 -0.5856
17715TIP3   OH274559   4.857   4.010   2.976 -0.2665 -0.1442  0.2956
17715TIP3    H174560   4.933   4.001   2.918 -0.7945  1.1849 -0.6569
17715TIP3    H274561   4.887   4.071   3.044 -1.1131  2.2846 -1.3715
17716TIP3   OH274562   2.407   3.666  13.952 -0.1483  0.0602 -0.3346
17716TIP3    H174563   2.375   3.671  14.042 -0.7674 -0.8431 -0.4938
17716TIP3    H274564   2.444   3.578  13.944 -0.7097 -0.1212 -1.1467
17717TIP3   OH274565   5.535   2.465   6.152  0.5460  0.0557  0.2010
17717TIP3    H174566   5.520   2.543   6.205  1.7031  0.0809  0.5390
17717TIP3    H274567   5.631   2.456   6.151  0.6980  0.9647 -3.2656
17718TIP3   OH274568   6.347   5.925  14.472  0.3227 -0.0940  0.2941
17718TIP3    H174569   6.322   5.988  14.405  1.4317 -1.9472 -2.0416
17718TIP3    H274570   6.294   5.847  14.453  1.9924 -1.2996  0.2903
17719TIP3   OH274571   6.731   2.974   1.868 -0.2766 -0.0496  0.1547
17719TIP3    H174572   6.780   3.014   1.796 -0.9666  1.1192  0.3013
17719TIP3    H274573   6.741   2.880   1.855  0.2866  0.1535 -0.9927
17720TIP3   OH274574   1.947   0.249  15.057  0.0541  0.1107  0.4357
17720TIP3    H174575   2.032   0.217  15.026  0.0357 -0.5505  1.0215
17720TIP3    H274576   1.905   0.286  14.980  0.8669  0.4228  0.1361
17721TIP3   OH274577   4.432   1.034   3.752 -0.3936 -0.8648 -0.3952
17721TIP3    H174578   4.509   1.078   3.715 -0.1781  1.3035  2.2872
17721TIP3    H274579   4.370   1.032   3.680  1.0130  0.3639 -1.7371
17722TIP3   OH274580   0.685   3.040  16.789  0.2693 -1.3690  0.3104
17722TIP3    H174581   0.626   3.114  16.773  0.9589 -1.1792 -1.6171
17722TIP3    H274582   0.714   3.051  16.879  3.5256  3.1087 -0.9473
17723TIP3   OH274583   4.081   2.580   3.500 -0.6013  0.8079  0.4652
17723TIP3    H174584   4.053   2.566   3.590 -1.1061  3.0854  0.7070
17723TIP3    H274585   4.009   2.628   3.459 -0.2095  0.1624 -1.0570
17724TIP3   OH274586   4.051   0.407   5.190 -0.6352 -0.4981  0.2203
17724TIP3    H174587   3.960   0.379   5.192 -0.8707  0.0450 -1.4563
17724TIP3    H274588   4.079   0.393   5.099  1.7318 -2.9701  1.1982
17725TIP3   OH274589   1.017   4.195  14.211 -0.4216 -0.3354  0.0013
17725TIP3    H174590   0.931   4.200  14.170 -1.3763 -1.4086  1.7430
17725TIP3    H274591   1.029   4.281  14.252 -2.0367 -1.0543  2.1989
17726TIP3   OH274592   5.286   2.675   1.391  0.0157  0.1991  0.1844
17726TIP3    H174593   5.246   2.612   1.332  0.3300  0.4902 -0.3524
17726TIP3    H274594   5.254   2.760   1.361  0.8999  0.4252 -0.1633
17727TIP3   OH274595   2.534   6.147  16.028 -0.4997 -0.3169 -0.6448
17727TIP3    H174596   2.575   6.188  15.952  0.7762 -2.2592 -1.0609
17727TIP3    H274597   2.520   6.219  16.089  3.4078  0.5923 -0.5550
17728TIP3   OH274598   5.278   1.888  16.185 -0.0308  0.5993  0.1883
17728TIP3    H174599   5.294   1.845  16.101  0.2072  1.0208  0.0163
17728TIP3    H274600   5.284   1.982  16.166 -1.4665  0.7553  0.3709
17729TIP3   OH274601   6.433   0.298   4.113 -0.0568 -0.0572  0.0110
17729TIP3    H174602   6.431   0.203   4.102 -0.2074 -0.1881  1.1332
17729TIP3    H274603   6.403   0.313   4.202 -1.0845  1.1126 -0.4999
17730TIP3   OH274604   4.856   1.920  10.531 -0.6290 -0.6778  0.0255
17730TIP3    H174605   4.931   1.959  10.574 -1.5703  1.4341 -0.1532
17730TIP3    H274606   4.830   1.848  10.590  0.5551 -0.4492  0.8683
17731TIP3   OH274607   6.695   0.155   5.792  0.3451  0.4927  0.2042
17731TIP3    H174608   6.685   0.219   5.862  0.6822  3.0687 -1.9683
17731TIP3    H274609   6.611   0.109   5.790 -0.3593  1.6877  1.0769
17732TIP3   OH274610   5.382   6.575   2.249 -0.2983  0.2542 -0.2093
17732TIP3    H174611   5.477   6.575   2.250 -0.2955  0.8687 -0.1404
17732TIP3    H274612   5.358   6.483   2.244  0.2677 -0.1008  2.4012
17733TIP3   OH274613   0.643   3.941   2.885  0.6712  0.4681  0.0756
17733TIP3    H174614   0.626   4.025   2.842 -0.7984  0.3915  0.4490
17733TIP3    H274615   0.566   3.927   2.940  1.2796 -0.7380  0.6525
17734TIP3   OH274616   4.213   3.269  13.375 -0.3164 -0.3822 -0.0437
17734TIP3    H174617   4.158   3.271  13.296 -0.1082  0.9018 -0.1840
17734TIP3    H274618   4.303   3.270  13.341 -0.2190 -0.7116  0.2041
17735TIP3   OH274619   0.226   3.209  11.794 -0.7172 -0.1256  0.4327
17735TIP3    H174620   0.283   3.135  11.814 -1.2108 -0.7761 -0.4633
17735TIP3    H274621   0.255   3.279  11.852  0.3629 -0.7372  0.6481
17736TIP3   OH274622   1.852   5.397  16.417 -0.0311 -0.1098  0.2103
17736TIP3    H174623   1.782   5.344  16.378  0.7008 -0.9290 -0.0238
17736TIP3    H274624   1.867   5.467  16.353 -0.6701  0.1062  0.2887
17737TIP3   OH274625   6.340   4.223   4.050  0.4461 -0.0677 -0.7443
17737TIP3    H174626   6.352   4.182   3.965  2.7576 -0.0030 -0.5126
17737TIP3    H274627   6.358   4.316   4.035  1.8253 -0.1871 -0.0752
17738TIP3   OH274628   4.289   2.711  12.757  0.7894 -0.5237 -0.8286
17738TIP3    H174629   4.246   2.643  12.809  2.9875 -0.9826  0.5045
17738TIP3    H274630   4.233   2.721  12.680 -1.9947 -0.6255  1.0501
17739TIP3   OH274631   6.419   5.063  11.521 -0.0751 -0.1051 -0.3591
17739TIP3    H174632   6.396   5.069  11.428  0.1581 -1.8919 -0.5526
17739TIP3    H274633   6.514   5.074  11.524  0.0911 -1.3610 -0.4988
17740TIP3   OH274634   1.341   1.048   4.419  0.4769  0.1661 -0.0680
17740TIP3    H174635   1.325   0.986   4.348 -1.7638  0.6891 -0.0767
17740TIP3    H274636   1.338   0.994   4.498  1.3792 -0.1607 -0.2443
17741TIP3   OH274637   2.601   0.233   5.362 -0.0821  0.1080 -0.2073
17741TIP3    H174638   2.551   0.311   5.384  1.6972  1.2710 -0.1189
17741TIP3    H274639   2.535   0.163   5.356 -1.6071  1.4266  0.5126
17742TIP3   OH274640   5.603   6.278   3.152  0.3156  0.2088  0.4153
17742TIP3    H174641   5.518   6.321   3.143  0.1956 -0.1371 -0.2025
17742TIP3    H274642   5.667   6.348   3.140  0.1220  0.2384 -0.5169
17743TIP3   OH274643   3.217   5.939   1.040  0.3173  0.2169  0.0719
17743TIP3    H174644   3.173   5.989   1.110 -0.9999 -0.5081 -0.1984
17743TIP3    H274645   3.170   5.964   0.960  0.1270 -0.8581 -0.1709
17744TIP3   OH274646   0.099   4.156   4.414  0.1153 -0.3256 -0.2579
17744TIP3    H174647   0.086   4.138   4.321  0.0671  2.3275 -0.8386
17744TIP3    H274648   0.192   4.139   4.430  0.2438 -0.2675 -0.9282
17745TIP3   OH274649   1.704   2.671   0.201  0.3709  0.0480  0.0760
17745TIP3    H174650   1.777   2.695   0.143  0.4610 -0.7116 -0.1327
17745TIP3    H274651   1.746   2.626   0.274  0.0811 -0.7084 -0.2200
17746TIP3   OH274652   1.450   0.855  11.171 -0.5297  0.0694  0.7205
17746TIP3    H174653   1.474   0.808  11.091 -1.2414 -0.1477  0.6256
17746TIP3    H274654   1.400   0.930  11.140 -0.0283  0.4886  0.9150
17747TIP3   OH274655   5.522   4.522   3.876 -0.2416 -0.4681 -0.0080
17747TIP3    H174656   5.525   4.479   3.790 -1.0103  0.2163 -0.3967
17747TIP3    H274657   5.609   4.510   3.912 -0.0550 -1.2030 -0.6719
17748TIP3   OH274658   0.335   4.749   3.969 -0.6528  0.1315  0.0518
17748TIP3    H174659   0.331   4.667   3.920  1.4537  0.1224 -0.1911
17748TIP3    H274660   0.266   4.803   3.931 -1.2057 -1.0477 -0.6743
17749TIP3   OH274661   3.515   3.680  11.851  0.0162 -0.2834  0.0725
17749TIP3    H174662   3.500   3.596  11.809  1.3183  0.1702 -1.3927
17749TIP3    H274663   3.551   3.735  11.781 -1.2602  1.6476  0.8493
17750TIP3   OH274664   3.450   4.417  12.898 -0.7213  0.3421 -0.0217
17750TIP3    H174665   3.378   4.387  12.954 -0.1224 -0.0530  0.5595
17750TIP3    H274666   3.492   4.486  12.949 -0.7167  0.6012 -0.3786
17751TIP3   OH274667   2.330   0.575  14.924  0.4751 -0.2760 -0.1632
17751TIP3    H174668   2.244   0.570  14.967  0.3030 -0.0742 -0.4836
17751TIP3    H274669   2.336   0.493  14.874  0.4314 -0.2499 -0.2115
17752TIP3   OH274670   6.795   5.972   0.606  0.1928  0.2311 -0.1919
17752TIP3    H174671   6.843   5.889   0.604  0.2658  0.2905 -1.4421
17752TIP3    H274672   6.845   6.030   0.550 -0.5220  0.7596 -0.2994
17753TIP3   OH274673   4.659   1.104  13.291  0.3687 -0.3473 -0.1602
17753TIP3    H174674   4.687   1.101  13.200 -0.2159  0.5439 -0.3792
17753TIP3    H274675   4.623   1.192  13.303 -3.3412 -1.6632 -0.2242
17754TIP3   OH274676   1.865   1.483   1.455  0.1855 -0.0073  0.5354
17754TIP3    H174677   1.837   1.571   1.431 -0.7616 -0.5491 -0.4159
17754TIP3    H274678   1.954   1.494   1.488  0.9219  1.0301 -1.6315
17755TIP3   OH274679   2.364   3.272  16.401 -0.2074 -0.2432 -0.2358
17755TIP3    H174680   2.352   3.359  16.439  0.7924  0.9650 -2.4818
17755TIP3    H274681   2.303   3.216  16.449 -0.7095  1.6245  1.4465
17756TIP3   OH274682   2.747   1.380   5.313 -0.0181  0.1467  0.4869
17756TIP3    H174683   2.669   1.360   5.261  0.2397  0.0529  0.1399
17756TIP3    H274684   2.717   1.371   5.404  0.0463 -1.6431  0.3551
17757TIP3   OH274685   6.589   4.879  13.367 -0.2567  0.3235 -0.0513
17757TIP3    H174686   6.584   4.934  13.446  0.8536  1.2114 -0.5633
17757TIP3    H274687   6.502   4.842  13.358 -0.7203  1.0939  0.9747
17758TIP3   OH274688   6.727   2.824  11.288 -0.1056  0.0220 -0.8588
17758TIP3    H174689   6.799   2.887  11.288 -0.2896  0.2410  0.1273
17758TIP3    H274690   6.768   2.740  11.269  0.5199  0.0298  0.3804
17759TIP3   OH274691   1.090   4.749   5.357  0.0118  0.2361  0.0962
17759TIP3    H174692   1.185   4.749   5.365  0.0441 -1.2371  0.0351
17759TIP3    H274693   1.058   4.738   5.447 -0.0016 -1.8811 -0.1219
17760TIP3   OH274694   1.520   0.740  11.774 -0.2680  0.4232 -0.4716
17760TIP3    H174695   1.581   0.803  11.813  0.6745 -0.8059  0.1192
17760TIP3    H274696   1.436   0.760  11.815  0.0810  1.0723 -0.0431
17761TIP3   OH274697   2.899   4.826   4.212 -0.1937  0.4869  0.2230
17761TIP3    H174698   2.806   4.808   4.202  0.1742 -1.2993 -0.2405
17761TIP3    H274699   2.943   4.745   4.186  1.4154  0.5083  2.5330
17762TIP3   OH274700   4.970   5.451  11.933  0.0252  0.0433  0.0894
17762TIP3    H174701   4.923   5.469  11.852  0.5431 -3.2440 -1.1307
17762TIP3    H274702   5.060   5.478  11.915 -0.2471  1.1982  0.3748
17763TIP3   OH274703   0.208   6.579   3.857 -0.1290  0.1568 -0.1670
17763TIP3    H174704   0.202   6.644   3.928  0.6386  0.1602 -0.0916
17763TIP3    H274705   0.249   6.627   3.785  0.2931 -0.2016 -0.1660
17764TIP3   OH274706   2.707   1.432   4.000 -0.1960  0.1677 -0.4574
17764TIP3    H174707   2.738   1.384   4.077  1.2169  0.2201 -0.9626
17764TIP3    H274708   2.714   1.524   4.025 -1.9161  0.1703  0.1389
17765TIP3   OH274709   4.643   1.424   3.645  0.2338  0.1934  1.3165
17765TIP3    H174710   4.709   1.491   3.627 -0.0183  0.7368  2.3479
17765TIP3    H274711   4.578   1.434   3.575  0.7852  0.2460  0.8088
17766TIP3   OH274712   6.668   0.230  14.888  0.5993 -0.3266  0.2368
17766TIP3    H174713   6.650   0.148  14.842  0.7939 -0.6215  0.6771
17766TIP3    H274714   6.617   0.224  14.969 -1.7574  1.2541 -0.9901
17767TIP3   OH274715   1.545   3.076  12.314  0.2186 -0.3683  0.2078
17767TIP3    H174716   1.477   3.027  12.268 -0.7016  0.5832  0.5099
17767TIP3    H274717   1.620   3.017  12.315 -0.0058 -0.7589 -1.7339
17768TIP3   OH274718   3.158   5.259   5.086  0.0631 -0.3741  0.0737
17768TIP3    H174719   3.100   5.186   5.110 -0.1241 -1.1263 -2.4563
17768TIP3    H274720   3.113   5.336   5.120 -2.1425 -1.0081 -1.1835
17769TIP3   OH274721   5.800   0.701   0.661 -0.0962  0.4336 -0.0705
17769TIP3    H174722   5.802   0.785   0.707 -2.1832  1.1640 -1.1697
17769TIP3    H274723   5.784   0.636   0.730  0.9883  0.9807  0.7195
17770TIP3   OH274724   3.857   0.378  17.153 -0.0625  0.1160  0.3343
17770TIP3    H174725   3.918   0.441  17.116  2.0490 -1.6696  0.5693
17770TIP3    H274726   3.845   0.313  17.083 -3.8221  1.6026 -0.7143
17771TIP3   OH274727   1.261   5.259  14.433 -0.3899  0.1199  0.5303
17771TIP3    H174728   1.208   5.181  14.449 -1.3096  0.8053  0.9378
17771TIP3    H274729   1.197   5.328  14.413  0.2597  1.2189  2.0480
17772TIP3   OH274730   6.711   2.361   2.979 -0.0840  0.2196 -0.2765
17772TIP3    H174731   6.635   2.361   2.921 -1.4288  0.2879  1.4228
17772TIP3    H274732   6.722   2.453   3.005 -0.7713 -0.0664  1.1328
17773TIP3   OH274733   5.348   5.922  15.174 -0.2730 -0.1539 -0.8572
17773TIP3    H174734   5.444   5.913  15.169 -0.2490 -0.5577  0.0640
17773TIP3    H274735   5.314   5.843  15.132 -0.1363 -1.5295  1.4307
17774TIP3   OH274736   4.004   2.817   5.526 -0.0143  0.5278 -0.3549
17774TIP3    H174737   4.048   2.898   5.498  0.2003  0.5863  0.1445
17774TIP3    H274738   4.062   2.780   5.593  0.4687 -0.6447 -1.3926
17775TIP3   OH274739   1.740   2.944   3.640  0.4012 -0.4179 -0.1777
17775TIP3    H174740   1.664   2.888   3.656 -0.7639  1.2928  0.6102
17775TIP3    H274741   1.815   2.894   3.673 -0.3997 -2.0364 -0.7430
17776TIP3   OH274742   2.208   3.609  16.751 -0.2304  0.3514  0.3336
17776TIP3    H174743   2.177   3.519  16.753  0.7919 -0.0404 -0.4198
17776TIP3    H274744   2.143   3.659  16.801 -1.2610 -0.6579  0.0297
17777TIP3   OH274745   5.465   3.734   2.379 -0.5617 -0.0967  0.1974
17777TIP3    H174746   5.425   3.772   2.301 -0.9942  0.9676  0.9178
17777TIP3    H274747   5.410   3.766   2.451 -0.3443 -1.2921  0.9157
17778TIP3   OH274748   4.581   5.674  15.505  0.2975  0.1202 -0.0841
17778TIP3    H174749   4.602   5.705  15.593 -0.9940  1.1368 -0.1075
17778TIP3    H274750   4.601   5.749  15.448  0.7924 -0.4124 -0.6195
17779TIP3   OH274751   6.366   2.646   0.328 -0.1539 -0.5858 -0.1595
17779TIP3    H174752   6.440   2.655   0.388 -0.0298 -0.5268 -0.3205
17779TIP3    H274753   6.360   2.552   0.312  1.0831 -0.4680 -1.6255
17780TIP3   OH274754   0.470   1.394  14.811 -0.5013  0.2874 -0.1450
17780TIP3    H174755   0.473   1.300  14.833  1.3483  0.1043 -0.9913
17780TIP3    H274756   0.384   1.406  14.771 -1.2406 -0.7867  1.0477
17781TIP3   OH274757   0.313   1.817  16.249 -0.1145 -0.1065  0.1023
17781TIP3    H174758   0.273   1.785  16.329  0.4637 -1.1341  0.0071
17781TIP3    H274759   0.393   1.862  16.277  0.4193 -1.0162  0.0764
17782TIP3   OH274760   1.811   2.621   6.027 -0.7671  0.2770 -0.1722
17782TIP3    H174761   1.906   2.630   6.019 -0.7074  0.1849  0.4423
17782TIP3    H274762   1.785   2.686   6.091 -1.0051 -0.2935  0.3239
17783TIP3   OH274763   0.582   1.480   1.273 -0.5580 -0.4562  0.1884
17783TIP3    H174764   0.533   1.430   1.338 -2.1938 -0.2992 -0.8740
17783TIP3    H274765   0.543   1.567   1.274 -1.2252 -0.7004 -1.6063
17784TIP3   OH274766   2.418   2.949  14.859  0.0378 -0.0424 -0.2527
17784TIP3    H174767   2.438   2.888  14.789  2.2140  0.6498 -0.3247
17784TIP3    H274768   2.345   2.909  14.906  1.1222 -2.5244 -0.5062
17785TIP3   OH274769   1.639   0.281  12.181 -0.5381 -0.5126  0.3736
17785TIP3    H174770   1.660   0.374  12.184 -1.0895 -0.3555 -0.4118
17785TIP3    H274771   1.548   0.276  12.211 -0.8707 -0.6616 -0.6215
17786TIP3   OH274772   3.368   1.760  12.539 -0.4261  0.2590 -0.2153
17786TIP3    H174773   3.399   1.704  12.610 -0.0074  0.7824  0.0197
17786TIP3    H274774   3.410   1.725  12.461  1.4465  1.4396  0.2041
17787TIP3   OH274775   1.561   3.136  14.879 -0.2210 -0.3977 -0.5417
17787TIP3    H174776   1.493   3.169  14.938  0.4756 -1.3733  0.8820
17787TIP3    H274777   1.639   3.186  14.903 -0.0736 -0.3737 -1.0752
17788TIP3   OH274778   5.078   0.741   5.415 -0.5020  0.3205 -0.3559
17788TIP3    H174779   5.095   0.648   5.432 -1.9896  0.4109  2.0886
17788TIP3    H274780   5.112   0.755   5.326  3.6940 -1.5039  0.6979
17789TIP3   OH274781   6.378   2.699  12.095 -0.4897  0.1501 -0.0140
17789TIP3    H174782   6.291   2.727  12.122 -0.8040 -1.2605  0.4990
17789TIP3    H274783   6.381   2.606  12.116  2.3223  0.7609  3.2219
17790TIP3   OH274784   6.547   5.634   2.588 -0.1644 -0.0181 -0.0274
17790TIP3    H174785   6.496   5.646   2.668 -0.4307  2.3017 -0.4736
17790TIP3    H274786   6.616   5.700   2.593 -0.9580  1.0888 -2.2689
17791TIP3   OH274787   3.324   5.413   5.343  0.5236  0.2311 -0.1471
17791TIP3    H174788   3.387   5.485   5.335 -0.0600  0.9010  1.0067
17791TIP3    H274789   3.243   5.448   5.306 -0.2597  0.8666  2.0208
17792TIP3   OH274790   1.524   2.652   0.517 -0.1124  0.2119 -0.0599
17792TIP3    H174791   1.480   2.585   0.465 -0.2042 -0.6046  1.0338
17792TIP3    H274792   1.617   2.637   0.501 -0.1320 -0.1931  0.1857
17793TIP3   OH274793   5.180   1.035   1.497  0.3345 -0.0317  0.0657
17793TIP3    H174794   5.219   1.082   1.571  0.5117 -2.5164  1.6520
17793TIP3    H274795   5.095   1.005   1.530  0.4749 -1.2942 -0.6732
17794TIP3   OH274796   5.076   6.589   4.070  0.4081 -0.2782  0.0107
17794TIP3    H174797   5.137   6.535   4.120 -0.5802 -0.3683  1.1672
17794TIP3    H274798   5.131   6.653   4.025  1.4180 -0.9768  0.2328
17795TIP3   OH274799   6.379   4.051   1.018 -0.1402 -0.3647  0.1164
17795TIP3    H174800   6.443   4.110   0.979  2.5146 -1.3560  2.5871
17795TIP3    H274801   6.411   3.963   0.998 -1.2703 -0.9196  0.6203
17796TIP3   OH274802   4.288   5.873   1.916 -0.3132 -0.0758 -0.2863
17796TIP3    H174803   4.353   5.926   1.962  0.0229 -1.8371  1.3475
17796TIP3    H274804   4.205   5.920   1.929  0.1842  0.7680 -0.0841
17797TIP3   OH274805   3.064   1.653   0.540 -0.3745 -0.2322 -0.4842
17797TIP3    H174806   3.064   1.744   0.509  0.6458  0.7305  2.0477
17797TIP3    H274807   2.976   1.640   0.575  0.2634  0.8604  1.7452
17798TIP3   OH274808   3.841   3.083  15.277 -0.3115  0.1484  0.0190
17798TIP3    H174809   3.864   3.173  15.300 -2.0691  0.0739  2.3191
17798TIP3    H274810   3.833   3.038  15.361 -2.2594 -1.4382 -0.9567
17799TIP3   OH274811   0.749   1.710   5.827  0.0921  0.1765 -0.1639
17799TIP3    H174812   0.797   1.745   5.902  2.5449 -0.4660 -1.3302
17799TIP3    H274813   0.670   1.763   5.822  1.2000  2.0793  1.2304
17800TIP3   OH274814   4.203   1.112   5.056 -0.0851  0.0364  0.1215
17800TIP3    H174815   4.238   1.195   5.089 -0.1391  0.5802 -1.1441
17800TIP3    H274816   4.120   1.136   5.015 -0.0066 -0.6223 -0.4286
17801TIP3   OH274817   1.147   6.282   2.745  0.2228  0.1839 -0.0059
17801TIP3    H174818   1.216   6.346   2.761  0.4626 -0.3330  1.1642
17801TIP3    H274819   1.113   6.304   2.658  0.8514  1.3684  0.0292
17802TIP3   OH274820   6.399   2.455   5.088  0.0326  0.2133  0.6955
17802TIP3    H174821   6.441   2.370   5.103 -1.6840 -0.9704 -0.7313
17802TIP3    H274822   6.367   2.482   5.174 -1.5724 -1.8460  0.8293
17803TIP3   OH274823   2.910   1.741   0.180 -0.5801 -0.6512 -0.3236
17803TIP3    H174824   2.822   1.771   0.155 -0.5022 -0.4140 -0.3074
17803TIP3    H274825   2.906   1.733   0.275 -0.2284  0.4896 -0.2026
17804TIP3   OH274826   2.960   3.821   5.177  0.4060 -0.2870  0.0785
17804TIP3    H174827   2.913   3.763   5.117  1.0926  0.4041 -1.1675
17804TIP3    H274828   3.049   3.826   5.141  0.5668  0.9200  0.5945
17805TIP3   OH274829   2.773   5.624   4.957 -0.3358 -0.2613  0.0737
17805TIP3    H174830   2.760   5.632   5.052 -2.9347  0.1875 -0.2563
17805TIP3    H274831   2.700   5.672   4.918  0.3904 -0.8451 -2.1761
17806TIP3   OH274832   5.015   6.258  16.330 -0.1959  0.0120  0.3373
17806TIP3    H174833   4.928   6.221  16.341 -0.6462  0.0887 -2.2259
17806TIP3    H274834   5.017   6.287  16.238  1.4731  2.8205  1.1335
17807TIP3   OH274835   3.151   3.506   3.859 -0.7585  0.0990  0.4358
17807TIP3    H174836   3.153   3.424   3.809  2.7963 -0.7736  1.7118
17807TIP3    H274837   3.102   3.485   3.938 -2.1218  0.0508 -0.3806
17808TIP3   OH274838   2.262   4.966   1.173  0.1108 -0.0881  0.2221
17808TIP3    H174839   2.328   4.918   1.123 -0.4263  0.0653 -0.6549
17808TIP3    H274840   2.179   4.944   1.131 -0.3123  0.3702  0.7960
17809TIP3   OH274841   4.705   2.275   6.269 -0.3163 -0.2031 -0.2201
17809TIP3    H174842   4.749   2.207   6.320 -1.6949 -2.7136 -2.1307
17809TIP3    H274843   4.640   2.312   6.329  0.1555 -0.9056  0.7455
17810TIP3   OH274844   1.432   4.770  15.066  0.0202  0.4737  0.2090
17810TIP3    H174845   1.353   4.716  15.058 -0.2815  0.9395 -0.0151
17810TIP3    H274846   1.454   4.765  15.159 -1.0324  1.3689  0.5385
17811TIP3   OH274847   4.975   3.106   4.431 -0.4096 -0.5567  0.2333
17811TIP3    H174848   5.047   3.056   4.469  0.0261  1.1037  1.7548
17811TIP3    H274849   4.953   3.171   4.498 -4.6647 -2.1561  0.7367
17812TIP3   OH274850   0.032   2.741  13.626  0.3631 -0.4430 -0.5230
17812TIP3    H174851   0.090   2.816  13.622  0.0778 -0.2776 -1.9772
17812TIP3    H274852  -0.011   2.748  13.712  1.8281 -0.1007  0.2085
17813TIP3   OH274853   4.949   2.424  11.243 -0.1354 -1.0274 -0.1533
17813TIP3    H174854   5.040   2.452  11.243 -0.3972 -0.1477  0.2554
17813TIP3    H274855   4.911   2.466  11.166 -1.2402  2.2970  1.9561
17814TIP3   OH274856   4.934   1.493  12.751  0.0857  0.3265  0.1888
17814TIP3    H174857   4.903   1.464  12.836  0.3753 -0.2853  0.0896
17814TIP3    H274858   5.017   1.538  12.769  0.1282  0.2299  0.2317
17815TIP3   OH274859   5.105   4.719   2.455 -0.1764  0.7093  0.3013
17815TIP3    H174860   5.139   4.731   2.366 -0.3415 -0.5264  0.0562
17815TIP3    H274861   5.022   4.768   2.455 -0.5796  0.0523 -0.4958
17816TIP3   OH274862   2.103   3.361  16.731 -0.4623 -0.0657  0.1518
17816TIP3    H174863   2.173   3.303  16.702  0.6399  1.4957 -0.4258
17816TIP3    H274864   2.052   3.378  16.652  0.4699  1.3951 -0.1656
17817TIP3   OH274865   2.901   3.330  11.141 -0.2127 -0.6544 -0.1519
17817TIP3    H174866   2.947   3.339  11.057 -0.7231  1.8886 -0.2456
17817TIP3    H274867   2.846   3.253  11.129 -1.5839  0.5800 -2.8811
17818TIP3   OH274868   3.383   1.185  12.147 -0.3095  0.4770 -0.1574
17818TIP3    H174869   3.328   1.243  12.095  0.1680 -0.2348 -1.5242
17818TIP3    H274870   3.342   1.099  12.139  0.4470  0.1239 -0.3902
17819TIP3   OH274871   3.607   4.301  11.857  0.2133 -0.4190 -0.1766
17819TIP3    H174872   3.588   4.293  11.950  1.4829 -0.7968  0.0723
17819TIP3    H274873   3.655   4.383  11.849 -2.1357  0.9765 -0.9224
17820TIP3   OH274874   0.591   5.058  11.878  0.0210 -0.7164  0.1479
17820TIP3    H174875   0.521   5.014  11.830 -1.8493  0.8373  1.2900
17820TIP3    H274876   0.557   5.066  11.968  0.9195  1.5070  0.3681
17821TIP3   OH274877   0.644   4.131   3.266 -0.4094  0.1558 -0.0258
17821TIP3    H174878   0.729   4.151   3.227  0.1734 -0.2664  0.9979
17821TIP3    H274879   0.640   4.035   3.268 -1.2574  0.1535 -0.7727
17822TIP3   OH274880   1.552   1.828   2.850  0.2147 -0.4235  0.4501
17822TIP3    H174881   1.568   1.893   2.919 -0.3397 -1.2374  1.3754
17822TIP3    H274882   1.603   1.751   2.877  0.9663 -0.3551 -0.6952
17823TIP3   OH274883   5.018   1.874  12.890 -0.2073  0.3670  0.4382
17823TIP3    H174884   5.067   1.836  12.963 -0.8324 -0.0607  0.6351
17823TIP3    H274885   4.992   1.961  12.921 -0.7770  0.0484  0.8623
17824TIP3   OH274886   6.623   0.638   6.531 -0.3408 -0.1755  0.3198
17824TIP3    H174887   6.619   0.727   6.565  3.2001  0.1263  0.3330
17824TIP3    H274888   6.566   0.639   6.454 -0.5704  2.0452  0.4502
17825TIP3   OH274889   2.231   2.005  11.134  0.0298 -0.2724  1.0649
17825TIP3    H174890   2.168   1.953  11.085 -0.2904 -0.1331  1.3289
17825TIP3    H274891   2.181   2.079  11.168  0.5209  0.3013  0.5610
17826TIP3   OH274892   4.720   6.786   3.798  0.2277 -0.0945 -0.1027
17826TIP3    H174893   4.709   6.853   3.730  1.8182  0.7227  0.3904
17826TIP3    H274894   4.702   6.703   3.753  1.4650  0.3950 -1.6042
17827TIP3   OH274895   5.749   3.345   3.693  0.3938  0.3810  0.1026
17827TIP3    H174896   5.794   3.335   3.609 -0.6849 -1.1398 -0.3404
17827TIP3    H274897   5.793   3.283   3.751  0.6743  0.9221  0.4806
17828TIP3   OH274898   5.145   3.878   5.321 -0.2534 -0.1354  0.1108
17828TIP3    H174899   5.185   3.829   5.249  0.8655 -0.2581  0.7914
17828TIP3    H274900   5.114   3.810   5.382 -2.3048 -0.0699 -0.7891
17829TIP3   OH274901   3.077   4.397   6.110 -0.4185 -0.4725  0.3968
17829TIP3    H174902   3.101   4.460   6.178  0.7631 -0.8333  0.3460
17829TIP3    H274903   3.142   4.327   6.119  0.9883  0.3500 -2.3073
17830TIP3   OH274904   2.723   3.138  11.602  0.1878 -0.4509  0.3390
17830TIP3    H174905   2.724   3.230  11.628  1.0032  0.2551 -1.9252
17830TIP3    H274906   2.741   3.090  11.683 -0.1842  1.3650  1.5595
17831TIP3   OH274907   2.213   4.996   3.720  0.3444 -0.5393 -0.0247
17831TIP3    H174908   2.244   5.011   3.631 -0.9992 -1.2086 -0.6287
17831TIP3    H274909   2.119   5.011   3.716  0.2868 -0.3879  1.3380
17832TIP3   OH274910   3.621   3.484   0.195  0.3115 -0.0996 -0.4129
17832TIP3    H174911   3.578   3.438   0.123 -0.1116 -1.2191  0.5283
17832TIP3    H274912   3.604   3.430   0.272  1.1170  0.8489  0.4633
17833TIP3   OH274913   2.182   6.499   5.811  0.6758 -0.1471  0.0718
17833TIP3    H174914   2.229   6.417   5.820  1.7523  0.2461 -1.5035
17833TIP3    H274915   2.222   6.558   5.874 -0.0949 -0.8037  1.1998
17834TIP3   OH274916   1.503   4.783   1.114  0.5071  0.3351  0.1949
17834TIP3    H174917   1.588   4.742   1.130 -0.4827 -1.6764  0.6174
17834TIP3    H274918   1.466   4.732   1.042  0.6060  2.7255 -1.6901
17835TIP3   OH274919   5.579   6.704   3.316  0.0293  0.4139  0.6460
17835TIP3    H174920   5.563   6.614   3.342  0.2185 -0.6745 -2.4977
17835TIP3    H274921   5.671   6.719   3.336  0.6882 -1.0434 -1.0334
17836TIP3   OH274922   4.135   5.033  11.471  0.0813  0.1950  0.3753
17836TIP3    H174923   4.117   5.023  11.377 -0.0524 -2.5716  0.6157
17836TIP3    H274924   4.230   5.040  11.477  0.0869  0.4388  0.0470
17837TIP3   OH274925   1.155   2.849  17.035  0.3629 -1.1018 -0.2526
17837TIP3    H174926   1.067   2.838  16.999  0.7369 -2.5335 -0.7836
17837TIP3    H274927   1.155   2.937  17.072 -0.7694 -0.4582 -1.7049
17838TIP3   OH274928   0.014   0.656   1.063  0.3725  0.4992 -0.2124
17838TIP3    H174929  -0.064   0.698   1.099  1.7145  3.4895 -0.3976
17838TIP3    H274930   0.087   0.700   1.107  1.9734 -0.7901 -1.4436
17839TIP3   OH274931   0.422   2.083  14.628 -0.0813 -0.0906 -0.3899
17839TIP3    H174932   0.342   2.085  14.575 -0.5846  0.6567  0.3686
17839TIP3    H274933   0.462   2.169  14.615  0.6325 -0.4701 -0.7876
17840TIP3   OH274934   2.192   6.471   4.379  0.1951 -0.1530  0.0827
17840TIP3    H174935   2.148   6.418   4.312  0.7854  0.1662 -0.5650
17840TIP3    H274936   2.250   6.409   4.424  0.3985 -0.2017 -0.2422
17841TIP3   OH274937   3.847   3.597   0.803 -0.3839 -0.2220  0.1051
17841TIP3    H174938   3.906   3.667   0.830 -0.5036 -0.4916  1.1193
17841TIP3    H274939   3.904   3.521   0.791 -0.5891 -0.6963  1.8852
17842TIP3   OH274940   1.296   1.956   4.046 -0.1705 -0.1870  0.2627
17842TIP3    H174941   1.334   2.040   4.020  0.7290 -0.3693  0.9110
17842TIP3    H274942   1.246   1.927   3.970  1.2643 -0.0761 -0.7546
17843TIP3   OH274943   4.399   4.804   2.239 -0.2744  0.1825  0.2954
17843TIP3    H174944   4.470   4.809   2.174  1.2863  0.3107  1.9290
17843TIP3    H274945   4.334   4.868   2.209 -0.1548 -0.5804 -1.7316
17844TIP3   OH274946   0.882   4.123   0.583 -0.9760  0.1356 -0.3762
17844TIP3    H174947   0.820   4.195   0.570 -0.7178  0.2152 -1.2083
17844TIP3    H274948   0.828   4.044   0.581 -1.1036  0.2303 -0.7017
17845TIP3   OH274949   1.043   4.713  13.429 -0.4377  0.0917 -0.1077
17845TIP3    H174950   1.133   4.743  13.439  0.0749 -0.1861 -3.0340
17845TIP3    H274951   0.999   4.783  13.381 -0.8079 -1.1855 -1.7449
17846TIP3   OH274952   3.648   0.517   1.108  0.3074 -0.1427 -0.5536
17846TIP3    H174953   3.671   0.459   1.035  2.4900 -0.2670  0.1428
17846TIP3    H274954   3.702   0.595   1.095  0.0426  0.2242  0.4149
17847TIP3   OH274955   5.500   3.190  16.786 -0.4676 -0.3772 -0.5494
17847TIP3    H174956   5.512   3.163  16.877  0.2058  0.8022 -0.2635
17847TIP3    H274957   5.503   3.109  16.736  0.0056 -0.9648  0.4052
17848TIP3   OH274958   2.671   5.952   5.535 -0.1456 -0.3586  0.2839
17848TIP3    H174959   2.607   5.973   5.467  0.8995  0.6552 -0.4207
17848TIP3    H274960   2.624   5.893   5.594 -1.7706  0.4588 -0.1316
17849TIP3   OH274961   4.361   2.366   5.410  0.2781 -0.2073  0.1736
17849TIP3    H174962   4.381   2.408   5.326  0.3071 -1.0760 -0.2660
17849TIP3    H274963   4.266   2.378   5.420  0.5920  1.8349  1.1126
17850TIP3   OH274964   2.914   5.191   5.370 -0.6009 -0.2433 -0.2233
17850TIP3    H174965   2.889   5.250   5.299 -0.0902 -0.5473 -0.6600
17850TIP3    H274966   3.007   5.176   5.358 -0.6430 -0.8206  0.1214
17851TIP3   OH274967   4.807   1.624  13.520 -0.5006 -0.5071  0.3842
17851TIP3    H174968   4.813   1.532  13.496  1.1909 -0.6757  1.2873
17851TIP3    H274969   4.872   1.668  13.466 -0.2636 -0.0871  0.9930
17852TIP3   OH274970   2.335   1.151  12.366  0.3894 -0.0151 -0.0174
17852TIP3    H174971   2.343   1.072  12.420  0.4279 -0.0290 -0.0436
17852TIP3    H274972   2.269   1.129  12.301  0.4990 -0.0734 -0.1093
17853TIP3   OH274973   4.689   2.141   5.343  0.2650 -0.1438 -0.3619
17853TIP3    H174974   4.753   2.182   5.285 -0.2762  0.4034 -0.5867
17853TIP3    H274975   4.655   2.213   5.397  0.6219 -0.6130  0.5136
17854TIP3   OH274976   2.112   1.517   4.024 -0.7492  0.8566  0.0836
17854TIP3    H174977   2.176   1.451   4.050 -1.3043  0.0048 -0.6535
17854TIP3    H274978   2.045   1.513   4.092 -1.5106 -0.3952 -0.6982
17855TIP3   OH274979   1.379   2.681  14.427 -0.1877  0.0524  0.8539
17855TIP3    H174980   1.388   2.655  14.519  0.5266 -2.9034  0.0492
17855TIP3    H274981   1.457   2.647  14.384 -0.7486  0.9060 -0.9686
17856TIP3   OH274982   2.154   3.083  15.231 -0.4253  0.0545 -0.0287
17856TIP3    H174983   2.189   3.011  15.178 -1.1664 -0.0499 -0.3868
17856TIP3    H274984   2.180   3.061  15.321  1.2507  0.4720 -0.3740
17857TIP3   OH274985   4.927   6.200   6.096  0.4183 -0.7619 -0.8827
17857TIP3    H174986   4.980   6.164   6.026  1.3869  0.5393 -0.8595
17857TIP3    H274987   4.987   6.207   6.170  0.4658  1.4384 -1.0699
17858TIP3   OH274988   6.694   5.367   1.032  0.1069 -0.0170  0.2069
17858TIP3    H174989   6.707   5.396   0.942 -2.3230  0.8248  0.0580
17858TIP3    H274990   6.600   5.377   1.048  0.3437 -0.8177  2.6164
17859TIP3   OH274991   1.454   5.618  11.247  0.2474 -0.1689  0.2357
17859TIP3    H174992   1.436   5.525  11.261  0.9029 -0.7201 -2.1246
17859TIP3    H274993   1.410   5.639  11.164  0.0751  1.6472  0.7461
17860TIP3   OH274994   1.364   6.171   1.706 -0.1550  0.2054  0.0939
17860TIP3    H174995   1.451   6.159   1.746 -0.7039 -1.5305  0.8897
17860TIP3    H274996   1.304   6.176   1.781 -1.0312 -1.4804 -0.4369
17861TIP3   OH274997   1.268   2.310   5.410  0.2697 -0.1527  0.3598
17861TIP3    H174998   1.258   2.305   5.505  0.0443  0.7244  0.3901
17861TIP3    H274999   1.200   2.252   5.375 -0.3525  0.3486  0.7162
17862TIP3   OH275000   0.445   6.250  12.077  0.5571 -0.1652 -0.1584
17862TIP3    H175001   0.419   6.336  12.045 -0.6418  0.6719  2.6672
17862TIP3    H275002   0.539   6.257  12.092  0.9935 -0.3261 -2.4654
17863TIP3   OH275003   4.404   3.485  17.069  0.5715 -0.1588  0.0836
17863TIP3    H175004   4.382   3.578  17.063  0.0943 -0.2608  0.1900
17863TIP3    H275005   4.328   3.445  17.111 -0.1185 -0.9276 -1.7858
17864TIP3   OH275006   5.542   6.738   5.312  0.0308 -0.4543  0.5128
17864TIP3    H175007   5.466   6.794   5.296 -0.1840 -0.6264  0.9102
17864TIP3    H275008   5.616   6.789   5.280 -0.3545 -0.7097 -0.8290
17865TIP3   OH275009   2.957   4.066  11.135  0.5421 -0.1105  0.5723
17865TIP3    H175010   2.972   4.031  11.223 -1.4009  0.6708  1.2853
17865TIP3    H275011   3.043   4.094  11.105  1.4898 -1.7226  1.6178
17866TIP3   OH275012   5.914   1.430   0.012 -0.2864  0.2983 -0.0506
17866TIP3    H175013   5.959   1.419   0.096  0.9762  1.2832 -0.5686
17866TIP3    H275014   5.847   1.497   0.029 -0.5834 -0.0958  0.3580
17867TIP3   OH275015   4.550   5.484   1.295  1.2585 -0.5925 -0.2378
17867TIP3    H175016   4.455   5.488   1.312  1.5228  1.1902  1.1924
17867TIP3    H275017   4.557   5.462   1.202 -0.6702  1.9819 -1.1285
17868TIP3   OH275018   1.877   3.082   2.238 -0.2762  0.4820  0.0128
17868TIP3    H175019   1.900   3.137   2.163 -1.3896  0.8689 -0.0650
17868TIP3    H275020   1.851   2.998   2.200  0.4850  0.2148  0.0673
17869TIP3   OH275021   3.204   5.042   3.033 -0.2177 -0.3844  0.5878
17869TIP3    H175022   3.197   5.047   3.129  1.0588 -1.0589  0.7407
17869TIP3    H275023   3.297   5.027   3.017 -0.7693 -3.0373 -0.6147
17870TIP3   OH275024   2.189   0.449  10.696  1.0825  0.2230  0.0931
17870TIP3    H175025   2.226   0.394  10.627  3.6328  0.2197  1.3429
17870TIP3    H275026   2.146   0.521  10.649  2.5232  0.1005 -1.5335
17871TIP3   OH275027   6.685   3.708  16.828 -0.4560  0.6122 -0.3983
17871TIP3    H175028   6.734   3.763  16.766 -0.0127  0.0076 -0.5890
17871TIP3    H275029   6.670   3.626  16.781 -1.5082  0.7269 -0.2744
17872TIP3   OH275030   3.083   3.897   4.523  0.0382 -0.2386 -0.2778
17872TIP3    H175031   3.044   3.984   4.522  3.0068  1.2055  0.4261
17872TIP3    H275032   3.034   3.850   4.590 -2.0227  0.6138 -1.0898
17873TIP3   OH275033   2.887   0.332  13.533  0.2112 -0.0272 -0.2357
17873TIP3    H175034   2.812   0.309  13.478 -0.2093  1.9576 -0.5634
17873TIP3    H275035   2.943   0.385  13.475  0.8529  0.2255  0.6002
17874TIP3   OH275036   6.698   0.454  12.931 -0.7305 -0.4005 -0.1449
17874TIP3    H175037   6.612   0.495  12.936 -1.2108 -1.4155  0.3548
17874TIP3    H275038   6.719   0.432  13.021  0.8514  1.3640 -0.0452
17875TIP3   OH275039   3.299   0.219   4.050  0.0395  0.8992  0.3313
17875TIP3    H175040   3.350   0.241   3.972 -0.8840 -0.1596 -0.6238
17875TIP3    H275041   3.211   0.252   4.031 -0.1931  0.6358  0.9256
17876TIP3   OH275042   4.397   2.093   4.322  0.2881 -0.1062 -0.1006
17876TIP3    H175043   4.428   2.135   4.242  2.2787 -0.7542  0.2744
17876TIP3    H275044   4.302   2.096   4.316  0.4036  1.1806 -1.7797
17877TIP3   OH275045   4.018   2.927   6.045 -0.1041 -0.0259  0.6248
17877TIP3    H175046   3.998   2.937   6.139  0.0667 -0.1197  0.6709
17877TIP3    H275047   3.942   2.882   6.009 -0.5782  0.8177  0.5485
17878TIP3   OH275048   5.390   0.756  15.522 -0.3825 -0.2049 -0.6295
17878TIP3    H175049   5.339   0.676  15.512 -0.5516 -0.2977  0.7380
17878TIP3    H275050   5.424   0.775  15.435 -1.9268 -0.6978 -1.3595
17879TIP3   OH275051   0.710   1.059   2.299 -0.0541 -0.5894  0.6695
17879TIP3    H175052   0.646   1.001   2.259  1.2140 -1.0004 -0.8644
17879TIP3    H275053   0.693   1.145   2.259 -0.0025 -0.5755  0.6773
17880TIP3   OH275054   2.808   6.547  16.474  0.0446 -0.4128 -0.3776
17880TIP3    H175055   2.814   6.463  16.520 -0.2706 -1.7293 -2.6067
17880TIP3    H275056   2.731   6.538  16.418 -2.0700  2.6819  1.7137
17881TIP3   OH275057   2.085   4.854   5.403 -0.4473 -0.1143  0.4247
17881TIP3    H175058   2.141   4.825   5.474  2.2986  1.7612 -0.8219
17881TIP3    H275059   2.102   4.792   5.332  0.0692  0.4533  0.0466
17882TIP3   OH275060   3.489   1.962   5.827 -0.1545 -0.4446 -0.1544
17882TIP3    H175061   3.565   2.004   5.786 -1.1643  0.0013 -1.6140
17882TIP3    H275062   3.464   2.021   5.898  1.5482 -1.1814  1.1562
17883TIP3   OH275063   4.427   5.063   3.559 -0.0156 -0.3696 -0.2238
17883TIP3    H175064   4.396   5.152   3.575  0.3615 -0.1787 -0.5411
17883TIP3    H275065   4.498   5.050   3.622 -0.3282 -0.5853  0.0858
17884TIP3   OH275066   6.240   4.712  15.740 -0.1075  0.3439  0.5153
17884TIP3    H175067   6.211   4.623  15.723 -2.3179  1.1128 -0.1319
17884TIP3    H275068   6.284   4.739  15.659 -1.2021  0.4520 -0.0764
17885TIP3   OH275069   6.630   3.858  14.551 -0.1248  0.1515  0.0943
17885TIP3    H175070   6.541   3.861  14.588  0.2607 -0.2377  1.0880
17885TIP3    H275071   6.616   3.865  14.457 -1.2920 -0.8176  0.1557
17886TIP3   OH275072   4.722   6.323  12.596 -0.2806 -0.0712 -0.7616
17886TIP3    H175073   4.734   6.338  12.503  1.5191 -0.8466 -0.6889
17886TIP3    H275074   4.656   6.253  12.601  0.6143 -0.9914 -1.5089
17887TIP3   OH275075   2.067   2.773   2.082  0.0402  0.0119 -0.0016
17887TIP3    H175076   2.016   2.732   2.153  0.0764 -0.3542 -0.1823
17887TIP3    H275077   2.001   2.813   2.025  0.0668  1.2035  0.7816
17888TIP3   OH275078   2.495   2.010  14.766  0.4120 -0.1715  0.0934
17888TIP3    H175079   2.464   2.083  14.818  3.8155  2.2492 -0.9394
17888TIP3    H275080   2.572   1.977  14.812  1.3787 -0.3051 -1.5088
17889TIP3   OH275081   6.150   0.114   5.241  0.1521  0.0941  0.0551
17889TIP3    H175082   6.139   0.063   5.160 -2.0649 -0.0927  0.4095
17889TIP3    H275083   6.172   0.049   5.307 -1.6058 -0.3189  0.2858
17890TIP3   OH275084   4.944   5.191   1.856 -0.1342  0.0687 -0.0950
17890TIP3    H175085   4.964   5.282   1.834 -1.4697  0.3732 -0.1220
17890TIP3    H275086   4.914   5.152   1.773  3.2537 -1.3026 -0.8690
17891TIP3   OH275087   1.951   3.498   5.990 -0.2808  0.5115  0.1883
17891TIP3    H175088   2.003   3.436   6.040 -0.2723  0.9454  0.7198
17891TIP3    H275089   1.893   3.539   6.054 -3.1164 -1.7362 -0.6930
17892TIP3   OH275090   6.533   5.907  13.104 -0.0860  0.1817  0.1107
17892TIP3    H175091   6.547   5.877  13.194  0.1310 -1.0649 -0.3155
17892TIP3    H275092   6.512   5.827  13.055 -0.0405  0.8163 -0.9819
17893TIP3   OH275093   2.665   3.950  16.785  0.4296  0.0022 -0.3489
17893TIP3    H175094   2.648   3.935  16.692 -1.9356  0.8308 -0.1039
17893TIP3    H275095   2.630   4.037  16.803 -0.3570 -0.6595  1.5856
17894TIP3   OH275096   6.120   1.746   1.971 -0.6310  0.7634 -0.1974
17894TIP3    H175097   6.176   1.673   1.999 -0.3881  1.0763  0.1398
17894TIP3    H275098   6.182   1.809   1.934 -0.8683  0.6879 -0.7287
17895TIP3   OH275099   3.417   1.015   3.305  0.1487 -0.3403 -0.0308
17895TIP3    H175100   3.500   0.981   3.337  1.0230  1.4790 -0.2465
17895TIP3    H275101   3.422   1.005   3.210  0.6421  0.8151 -0.1422
17896TIP3   OH275102   3.478   5.798   5.833 -0.0712  0.2481 -0.6644
17896TIP3    H175103   3.524   5.879   5.856  0.5303  0.4037 -2.3135
17896TIP3    H275104   3.385   5.820   5.844  0.1040  1.0200 -0.6456
17897TIP3   OH275105   5.166   3.301   2.763  0.1089 -0.3439  0.0558
17897TIP3    H175106   5.072   3.316   2.751  0.3511  0.5282 -0.8630
17897TIP3    H275107   5.207   3.338   2.684  1.2841 -0.0835  0.7622
17898TIP3   OH275108   0.401   0.391   3.164 -0.4915 -0.2988 -0.3896
17898TIP3    H175109   0.449   0.381   3.082  0.2278  0.4470 -0.0777
17898TIP3    H275110   0.423   0.479   3.194  0.2677 -0.9890  1.2267
17899TIP3   OH275111   2.590   1.583  14.169 -0.4926 -0.0340  0.3818
17899TIP3    H175112   2.613   1.674  14.148 -2.2554  0.2464 -0.5535
17899TIP3    H275113   2.499   1.575  14.141 -0.8493 -1.6702  1.8744
17900TIP3   OH275114   3.225   0.584  10.516  0.4481 -1.0848 -0.3109
17900TIP3    H175115   3.268   0.524  10.454 -1.7602 -1.8352 -1.2109
17900TIP3    H275116   3.215   0.532  10.596  1.3099 -0.8525 -0.0397
17901TIP3   OH275117   4.796   0.747  14.494  0.2931 -0.4667 -0.7208
17901TIP3    H175118   4.849   0.820  14.461  0.4301  0.5236  1.5172
17901TIP3    H275119   4.712   0.756  14.450  0.8204  0.0887 -1.6439
17902TIP3   OH275120   4.337   1.990   2.749 -0.0978 -0.8487 -0.1884
17902TIP3    H175121   4.408   1.940   2.708 -0.7414 -1.1543 -0.9363
17902TIP3    H275122   4.383   2.052   2.806  0.7384 -1.7717  0.1840
17903TIP3   OH275123   3.021   1.145  14.824 -0.3340  0.2736  0.1153
17903TIP3    H175124   3.043   1.086  14.896 -0.0142 -0.4058 -0.5200
17903TIP3    H275125   3.099   1.145  14.769  0.0564  2.0732  0.5917
17904TIP3   OH275126   0.840   5.875  15.387  0.6002  0.6906 -0.1037
17904TIP3    H175127   0.883   5.803  15.433  1.6809  2.3451  1.6031
17904TIP3    H275128   0.905   5.905  15.323  0.3511  0.5146 -0.4461
17905TIP3   OH275129   2.444   5.251  11.559 -0.3539  0.2844  0.3602
17905TIP3    H175130   2.514   5.257  11.624  0.8625  0.1776 -0.8937
17905TIP3    H275131   2.453   5.164  11.522  0.0185  0.9173 -1.0799
17906TIP3   OH275132   3.708   1.042   0.640 -0.0159  0.2283  0.1468
17906TIP3    H175133   3.681   1.030   0.549  1.0576  3.0744 -0.6466
17906TIP3    H275134   3.633   1.086   0.681 -0.3205 -0.6462  0.5547
17907TIP3   OH275135   6.003   3.823  13.387  0.5871  0.4783 -0.3929
17907TIP3    H175136   5.970   3.849  13.473 -1.4123  0.6841 -1.1592
17907TIP3    H275137   6.082   3.772  13.406  1.2869  2.1071  1.4330
17908TIP3   OH275138   0.805   2.039  15.490 -0.2482  0.6006  0.5270
17908TIP3    H175139   0.746   2.114  15.493  1.5898  2.1483 -0.1282
17908TIP3    H275140   0.892   2.076  15.503  0.5868 -1.6554  2.0866
17909TIP3   OH275141   1.663   4.385  15.601 -0.2266 -0.1718 -0.1423
17909TIP3    H175142   1.654   4.460  15.660  0.2639 -1.5191  1.7316
17909TIP3    H275143   1.736   4.409  15.544  0.5177  0.4407  1.0121
17910TIP3   OH275144   6.338   6.356  10.963  0.4506 -0.3508  0.4141
17910TIP3    H175145   6.294   6.410  10.898  0.3753 -0.1797  0.6080
17910TIP3    H275146   6.364   6.277  10.915 -1.7397 -1.3188  0.7007
17911TIP3   OH275147   4.513   2.098   6.653  0.2484  0.1992 -0.1111
17911TIP3    H175148   4.562   2.055   6.723  1.4181 -0.5650 -1.3545
17911TIP3    H275149   4.575   2.162   6.616 -0.8438  1.6654  0.4851
17912TIP3   OH275150   1.328   5.011  13.461  0.3683 -0.1394 -0.4121
17912TIP3    H175151   1.422   5.024  13.455  0.4210 -0.5411 -0.5258
17912TIP3    H275152   1.302   5.052  13.543  0.1752  2.5001 -1.6938
17913TIP3   OH275153   2.706   1.421  11.243  0.6885 -0.2133  0.5012
17913TIP3    H175154   2.652   1.378  11.177  1.6740 -0.4440 -0.1597
17913TIP3    H275155   2.784   1.367  11.250  0.5687 -0.2390  1.9187
17914TIP3   OH275156   0.541   5.156  15.724 -0.0744  0.0865  0.1426
17914TIP3    H175157   0.563   5.227  15.784 -1.8424  1.0088 -0.2235
17914TIP3    H275158   0.601   5.168  15.650  2.0356 -0.9839  1.5670
17915TIP3   OH275159   5.907   1.178   4.186  0.4940 -0.2654  0.3960
17915TIP3    H175160   5.991   1.189   4.230  1.7176  0.0240 -1.8333
17915TIP3    H275161   5.882   1.267   4.160  1.3554 -0.6535 -2.0342
17916TIP3   OH275162   3.062   2.014   3.406  0.4593  0.0018 -0.0723
17916TIP3    H175163   3.023   2.002   3.492 -1.5423  2.4886 -0.5206
17916TIP3    H275164   3.156   2.021   3.423  0.4039 -2.1324  1.5139
17917TIP3   OH275165   4.291   0.572   1.220 -0.0657  0.6743  0.1375
17917TIP3    H175166   4.342   0.635   1.272  0.5494  0.0522  0.3056
17917TIP3    H275167   4.336   0.489   1.233 -0.2370  0.4022 -0.9489
17918TIP3   OH275168   2.257   1.915   5.934 -0.7628  0.5027 -0.0018
17918TIP3    H175169   2.297   1.829   5.921 -1.8093 -0.3077  1.7795
17918TIP3    H275170   2.314   1.959   5.997  0.9284  2.0109 -2.4271
17919TIP3   OH275171   0.010   3.585  17.052 -0.3789  0.3090 -0.2159
17919TIP3    H175172  -0.052   3.648  17.014  0.2273 -0.8115 -3.3869
17919TIP3    H275173  -0.008   3.504  17.005  2.5623 -0.4106 -0.2750
17920TIP3   OH275174   1.452   6.546   1.920 -0.8396 -0.3095  0.2468
17920TIP3    H175175   1.375   6.530   1.976 -1.0651 -0.7286 -0.1778
17920TIP3    H275176   1.479   6.635   1.942 -1.2332 -0.2885  0.6618
17921TIP3   OH275177   0.821   0.248   0.101 -0.3404  0.4347 -0.2413
17921TIP3    H175178   0.749   0.311   0.093  0.0210  0.6567 -2.1492
17921TIP3    H275179   0.877   0.266   0.026  0.3572 -1.4365 -0.2122
17922TIP3   OH275180   0.582   2.260  10.679  0.0880  0.0751 -0.4266
17922TIP3    H175181   0.626   2.179  10.703  0.7577  1.0221  1.7894
17922TIP3    H275182   0.488   2.241  10.689  0.2816 -0.0303  1.6936
17923TIP3   OH275183   3.484   3.402  12.369  0.0191 -1.1432 -0.6597
17923TIP3    H175184   3.580   3.402  12.369  0.1279 -1.0909  2.5642
17923TIP3    H275185   3.460   3.323  12.418 -1.2731  1.5387  3.5612
17924TIP3   OH275186   0.264   4.733   2.384 -0.0723 -0.0257 -0.2075
17924TIP3    H175187   0.279   4.727   2.289 -1.5886 -0.7518 -0.4302
17924TIP3    H275188   0.187   4.789   2.392  0.0674  0.0573  0.6107
17925TIP3   OH275189   3.764   2.220   6.407 -0.0542 -0.0047  0.0916
17925TIP3    H175190   3.704   2.177   6.468 -0.2915  1.3740  0.8862
17925TIP3    H275191   3.850   2.214   6.450 -0.0541  0.1063  0.1090
17926TIP3   OH275192   2.561   5.859   1.561  0.0567  0.3679 -1.0879
17926TIP3    H175193   2.523   5.894   1.481  1.3863  2.1467 -1.0119
17926TIP3    H275194   2.627   5.797   1.531  0.8322  1.3297 -1.4045
17927TIP3   OH275195   5.645   1.630  13.525 -0.4375 -0.6781  0.9041
17927TIP3    H175196   5.629   1.725  13.528  0.8260 -0.4232  0.3996
17927TIP3    H275197   5.737   1.621  13.550 -0.4691 -1.7566  0.6727
17928TIP3   OH275198   2.307   5.077   0.893 -0.5411  0.3504 -0.6632
17928TIP3    H175199   2.279   5.155   0.939  2.2849  0.0150  1.9751
17928TIP3    H275200   2.251   5.007   0.926 -0.6738  0.6679 -0.2204
17929TIP3   OH275201   0.128   4.771  13.146  0.3124  0.7112  0.4408
17929TIP3    H175202   0.134   4.734  13.057  1.5475 -1.0670  1.1995
17929TIP3    H275203   0.061   4.718  13.189  1.9997 -0.6755  1.5007
17930TIP3   OH275204   1.282   1.376   5.890  0.7266 -0.2036 -0.0063
17930TIP3    H175205   1.316   1.326   5.964  3.5281  0.1544 -0.9468
17930TIP3    H275206   1.351   1.372   5.824 -0.9665  0.9143 -1.9652
17931TIP3   OH275207   4.185   5.054   4.735  0.3798 -0.5712 -0.1340
17931TIP3    H175208   4.232   5.131   4.768 -2.1153  2.2687 -2.6821
17931TIP3    H275209   4.118   5.037   4.802  0.8755 -0.5167  0.3900
17932TIP3   OH275210   5.809   1.932   2.317 -0.0404  0.3574 -0.3651
17932TIP3    H175211   5.797   1.851   2.267  0.2665  1.0352 -1.5772
17932TIP3    H275212   5.835   1.902   2.404 -1.4899 -0.8850 -0.3187
17933TIP3   OH275213   4.551   0.384  11.238  0.2276 -0.1748 -0.1640
17933TIP3    H175214   4.566   0.388  11.143  0.4748 -0.8213 -0.1602
17933TIP3    H275215   4.636   0.359  11.275 -0.1570 -1.1182  0.1105
17934TIP3   OH275216   6.378   0.744  14.088 -0.2451 -0.0552 -0.4794
17934TIP3    H175217   6.401   0.836  14.082 -1.4237  0.3777  0.9756
17934TIP3    H275218   6.289   0.743  14.123  1.0681 -1.7152  3.4636
17935TIP3   OH275219   5.251   0.719  12.802 -0.3418 -0.2234  0.4591
17935TIP3    H175220   5.337   0.735  12.842  0.2880 -0.7136 -0.6569
17935TIP3    H275221   5.240   0.790  12.739 -1.0130  0.1503  0.9873
17936TIP3   OH275222   0.336   1.744  14.952 -0.0369  0.1348  0.5107
17936TIP3    H175223   0.400   1.728  14.883 -0.1447 -0.4749  0.5541
17936TIP3    H275224   0.274   1.805  14.913  1.3986  1.9784  0.9509
17937TIP3   OH275225   0.621   4.194  17.223  0.0440  0.0316 -0.1901
17937TIP3    H175226   0.651   4.184  17.133 -2.3234  0.6596 -1.1383
17937TIP3    H275227   0.532   4.159  17.222 -0.9260  2.2163  1.2795
17938TIP3   OH275228   2.012   4.729   6.471  0.1177  0.2113  0.1927
17938TIP3    H175229   2.096   4.688   6.494  1.4676  0.5436 -3.5193
17938TIP3    H275230   1.946   4.663   6.493  1.6975 -1.5571 -0.1080
17939TIP3   OH275231   1.014   0.986   2.813  0.0810 -0.0115  0.2001
17939TIP3    H175232   1.108   0.974   2.798  0.4361  1.6613  0.8213
17939TIP3    H275233   0.990   0.915   2.873  1.3891  0.5900  1.5103
17940TIP3   OH275234   4.067   3.107  11.560  0.5418 -0.9026 -0.1425
17940TIP3    H175235   3.988   3.152  11.591  0.1224 -0.0420 -2.3203
17940TIP3    H275236   4.123   3.176  11.525  1.3917 -1.7223 -0.4570
17941TIP3   OH275237   5.330   6.006  11.413 -0.5887 -0.0345 -0.3021
17941TIP3    H175238   5.366   6.063  11.480 -1.0324 -0.1856  0.0779
17941TIP3    H275239   5.396   5.938  11.400 -0.0926  0.5245 -0.7063
17942TIP3   OH275240   5.612   3.023  11.955 -0.0928 -0.1819  0.1799
17942TIP3    H175241   5.586   3.021  11.863  1.1765  0.4233 -0.2136
17942TIP3    H275242   5.706   3.041  11.953  0.0815 -0.8211  1.5855
17943TIP3   OH275243   0.622   1.922  14.655 -0.2535 -0.2387  0.6259
17943TIP3    H175244   0.683   1.957  14.719  0.0453  0.6428 -0.1181
17943TIP3    H275245   0.556   1.990  14.645  0.7147  0.4889 -1.3638
17944TIP3   OH275246   1.239   1.825  16.950 -0.6171  0.3740 -0.0078
17944TIP3    H175247   1.305   1.756  16.955 -0.5634  0.4885  1.0524
17944TIP3    H275248   1.287   1.901  16.916 -0.3850  0.2404  0.0213
17945TIP3   OH275249   6.506   2.987  11.189 -0.4394 -0.0278 -0.0994
17945TIP3    H175250   6.561   3.012  11.115 -0.5014 -0.4114 -0.2807
17945TIP3    H275251   6.567   2.952  11.254 -0.3218  0.8548  0.2738
17946TIP3   OH275252   1.638   4.479  15.307 -0.1022  0.6589 -0.3386
17946TIP3    H175253   1.646   4.536  15.231 -0.2512 -1.1184 -1.7428
17946TIP3    H275254   1.728   4.465  15.336 -0.1195  2.3830  0.6696
17947TIP3   OH275255   0.162   2.193   3.654  0.3747 -0.4951  0.1431
17947TIP3    H175256   0.154   2.278   3.698  0.0609 -1.2603  1.5966
17947TIP3    H275257   0.230   2.147   3.703  0.3804 -1.1806 -0.4979
17948TIP3   OH275258   4.529   6.653   0.942  0.1230  0.6112  0.3213
17948TIP3    H175259   4.493   6.725   0.995  0.3120  0.1567  1.0805
17948TIP3    H275260   4.548   6.693   0.857 -2.9738  0.6949 -0.4344
17949TIP3   OH275261   1.631   1.592   6.457  0.0942  0.1331 -0.2330
17949TIP3    H175262   1.674   1.669   6.494 -0.4418 -0.3683  1.5144
17949TIP3    H275263   1.704   1.537   6.428  0.5290  0.6047 -0.0642
17950TIP3   OH275264   6.753   4.482   5.257 -0.0047 -0.4925  0.3778
17950TIP3    H175265   6.833   4.450   5.216  0.2351 -0.6959  0.9995
17950TIP3    H275266   6.782   4.532   5.333 -0.4782 -0.9605  0.8792
17951TIP3   OH275267   4.090   6.022   4.323  0.3472 -0.2511 -1.0179
17951TIP3    H175268   4.173   6.043   4.366 -0.5352  0.1395  0.5643
17951TIP3    H275269   4.097   6.063   4.237  0.8290  1.9391  0.0024
17952TIP3   OH275270   2.705   6.550   4.270 -0.1690 -0.4913  0.0555
17952TIP3    H175271   2.707   6.622   4.333 -0.0257 -1.0790  0.7345
17952TIP3    H275272   2.797   6.535   4.249 -0.2337 -0.0913 -0.5451
17953TIP3   OH275273   5.973   0.917   1.198 -0.0529  0.0707  0.2320
17953TIP3    H175274   6.065   0.898   1.184 -0.1838 -0.1622 -0.3170
17953TIP3    H275275   5.971   1.010   1.220  0.5487 -0.3981  2.5799
17954TIP3   OH275276   1.114   2.393  14.171 -0.4631  0.3429  0.1799
17954TIP3    H175277   1.176   2.465  14.161 -3.1208  2.7685 -0.0935
17954TIP3    H275278   1.087   2.372  14.082 -0.1524 -0.6028  0.3005
17955TIP3   OH275279   2.421   0.847  12.698  0.1596 -0.1898  1.0147
17955TIP3    H175280   2.449   0.777  12.638  1.3175  0.5402  0.6812
17955TIP3    H275281   2.491   0.912  12.693 -0.3761  0.4908  2.1650
17956TIP3   OH275282   2.653   2.874  14.062 -0.0048  0.0313  0.2466
17956TIP3    H175283   2.663   2.969  14.056 -2.4307  0.3166 -0.3232
17956TIP3    H275284   2.560   2.861  14.075 -0.2583 -2.3926 -2.9033
17957TIP3   OH275285   0.303   3.031  15.100  0.2516  0.5008  0.4010
17957TIP3    H175286   0.216   3.062  15.124 -0.7920 -0.1257 -2.2662
17957TIP3    H275287   0.362   3.099  15.131 -1.4049  2.1162  0.1622
17958TIP3   OH275288   4.411   5.705  17.173 -0.4813 -0.5170  0.1139
17958TIP3    H175289   4.339   5.644  17.183 -0.8623 -0.0881  0.0078
17958TIP3    H275290   4.371   5.792  17.180  0.1391 -0.2802  0.8452
17959TIP3   OH275291   4.761   4.482  10.831  0.0597 -0.3084  0.1526
17959TIP3    H175292   4.832   4.419  10.821 -1.2218 -1.9730  0.9587
17959TIP3    H275293   4.708   4.473  10.752  1.7341  2.4104 -1.4442
17960TIP3   OH275294   1.885   1.163   4.734  0.2086  0.9514 -0.3326
17960TIP3    H175295   1.981   1.168   4.729  0.5290  1.9202  3.6747
17960TIP3    H275296   1.867   1.078   4.774 -0.6472  0.7945 -1.0229
17961TIP3   OH275297   0.205   5.344   5.197 -0.5698 -0.0643  0.2318
17961TIP3    H175298   0.208   5.430   5.155  0.6792  0.3716  1.1403
17961TIP3    H275299   0.115   5.336   5.229 -0.6005  1.0763  0.4683
17962TIP3   OH275300   5.700   1.513   2.001 -0.1536  0.5905 -0.1618
17962TIP3    H175301   5.756   1.493   2.077 -0.1785  0.4745 -0.1748
17962TIP3    H275302   5.749   1.480   1.926  0.4466  1.7912 -0.3281
17963TIP3   OH275303   4.993   3.185  15.546  0.1946  0.7417 -0.2269
17963TIP3    H175304   4.978   3.277  15.568 -0.4242  1.3492 -2.9102
17963TIP3    H275305   4.922   3.162  15.486  0.2333 -1.5842  0.4973
17964TIP3   OH275306   5.720   3.904   5.140  0.4233 -0.4265  0.1791
17964TIP3    H175307   5.722   3.811   5.165  0.9471 -0.6264 -0.6065
17964TIP3    H275308   5.641   3.912   5.086 -0.5862 -0.0394  1.6476
17965TIP3   OH275309   6.348   3.386   4.175  0.2931 -0.2082  0.3046
17965TIP3    H175310   6.396   3.416   4.252 -0.1887 -0.3170  0.6519
17965TIP3    H275311   6.257   3.411   4.192  0.0990 -0.7001  0.0072
17966TIP3   OH275312   2.865   6.030   1.704  0.3817 -0.6649 -0.1095
17966TIP3    H175313   2.806   6.067   1.638 -0.0802 -0.4202  0.4396
17966TIP3    H275314   2.943   6.085   1.699 -1.0426  1.7502  2.0901
17967TIP3   OH275315   3.441   4.786  13.237  0.3086  0.2113  0.0656
17967TIP3    H175316   3.433   4.697  13.273 -1.5943 -0.5190 -1.9705
17967TIP3    H275317   3.484   4.774  13.152 -2.0623  0.8784 -1.3042
17968TIP3   OH275318   3.858   6.311  14.757  0.5707  0.4026  0.0785
17968TIP3    H175319   3.847   6.370  14.682  0.7827 -0.0551 -0.3185
17968TIP3    H275320   3.950   6.284  14.753  0.6846  0.6801  0.7368
17969TIP3   OH275321   3.260   0.124  17.207  0.0385  0.2023  0.2100
17969TIP3    H175322   3.208   0.204  17.197  0.3872  0.3216 -0.7713
17969TIP3    H275323   3.319   0.143  17.280  0.1690  0.8712 -0.0629
17970TIP3   OH275324   3.990   3.469   0.139  0.3603  0.1609  0.4565
17970TIP3    H175325   3.900   3.446   0.115  0.3833  1.4346 -1.0228
17970TIP3    H275326   4.044   3.399   0.101  0.1068  0.3076 -0.1947
17971TIP3   OH275327   4.267   1.911  13.512  0.4169  0.1664 -0.1233
17971TIP3    H175328   4.264   1.838  13.450  1.4336  0.8800 -1.0601
17971TIP3    H275329   4.178   1.918  13.546 -0.0947 -0.4399 -1.2908
17972TIP3   OH275330   6.106   2.724  12.841 -0.1754 -0.2730  0.2531
17972TIP3    H175331   6.041   2.779  12.796  0.0364  0.2862  0.6225
17972TIP3    H275332   6.096   2.638  12.800 -1.4203 -0.3007  0.5649
17973TIP3   OH275333   3.914   1.276   2.261  0.1236 -0.6145 -0.3526
17973TIP3    H175334   3.872   1.319   2.335 -0.1325 -0.0100 -0.8384
17973TIP3    H275335   3.962   1.203   2.300  3.6022  2.0838  1.0955
17974TIP3   OH275336   0.437   3.440   2.194 -0.5283 -0.3644 -0.6485
17974TIP3    H175337   0.417   3.395   2.276  1.4644 -0.7757 -0.3461
17974TIP3    H275338   0.435   3.533   2.216 -0.1181 -0.4691 -0.1634
17975TIP3   OH275339   4.937   0.151   3.851  0.1260 -0.1595  0.0542
17975TIP3    H175340   5.009   0.101   3.890  0.4633 -1.2374 -1.8071
17975TIP3    H275341   4.861   0.093   3.859  0.1422 -0.2840 -0.5896
17976TIP3   OH275342   1.333   2.002  12.121  0.1953  0.0926 -0.1227
17976TIP3    H175343   1.299   1.932  12.065  0.4867  0.3807 -0.6640
17976TIP3    H275344   1.296   1.983  12.208  2.1236 -2.0681  0.3143
17977TIP3   OH275345   6.786   4.423   0.902 -0.0396 -0.5563  0.1629
17977TIP3    H175346   6.849   4.352   0.891  0.4502 -0.0129 -0.6214
17977TIP3    H275347   6.758   4.445   0.814 -0.6324 -0.1621  0.4394
17978TIP3   OH275348   4.420   4.287  16.603 -0.0939  0.1644 -0.1230
17978TIP3    H175349   4.453   4.221  16.542  0.1468  0.5371 -0.4005
17978TIP3    H275350   4.329   4.302  16.576 -0.3598 -0.5288  0.3557
17979TIP3   OH275351   4.706   3.514   0.316 -0.0121  0.1780 -0.2340
17979TIP3    H175352   4.677   3.606   0.322 -1.0302 -0.1395  0.0706
17979TIP3    H275353   4.785   3.517   0.262  0.5699  1.3624  0.6250
17980TIP3   OH275354   0.741   2.431  14.977  0.2908 -0.3585 -0.0768
17980TIP3    H175355   0.679   2.499  15.005 -0.9120 -0.4080 -2.4426
17980TIP3    H275356   0.697   2.349  14.998  0.8470 -0.4295  0.8734
17981TIP3   OH275357   4.318   4.548  13.117  0.4042  0.5090  0.2306
17981TIP3    H175358   4.390   4.497  13.079 -0.3957 -0.4951  0.0075
17981TIP3    H275359   4.306   4.512  13.204  0.3875  0.9014  0.3921
17982TIP3   OH275360   5.645   5.559  11.247 -0.1584 -0.1811  0.4354
17982TIP3    H175361   5.628   5.526  11.336  2.6987  1.7903  1.8752
17982TIP3    H275362   5.693   5.488  11.204 -0.2361 -0.5952  1.0224
17983TIP3   OH275363   1.882   3.422  15.418 -0.4744 -0.7686 -0.2782
17983TIP3    H175364   1.960   3.373  15.393  0.0367 -1.0886  1.7937
17983TIP3    H275365   1.819   3.403  15.349  1.3080 -0.3334 -2.1260
17984TIP3   OH275366   3.966   2.175   0.740 -0.3584  0.0047 -0.0933
17984TIP3    H175367   4.049   2.131   0.762 -0.4541 -0.8229 -1.3383
17984TIP3    H275368   3.971   2.258   0.788  1.3555  0.1393 -0.4277
17985TIP3   OH275369   3.915   2.887  13.127 -0.0938 -0.8028  0.6056
17985TIP3    H175370   3.981   2.821  13.150  0.5790 -0.0024  1.0011
17985TIP3    H275371   3.889   2.925  13.210 -0.1884 -0.2857  0.3406
17986TIP3   OH275372   5.248   5.197  14.750  0.7161  0.4342  0.0821
17986TIP3    H175373   5.212   5.135  14.687  1.7708  0.8597 -1.0004
17986TIP3    H275374   5.268   5.145  14.827 -0.2704 -0.1773 -0.0591
17987TIP3   OH275375   0.938   1.642  14.115  0.0353  0.1283  0.1190
17987TIP3    H175376   0.923   1.684  14.200 -0.0158  2.5115 -0.9762
17987TIP3    H275377   1.005   1.696  14.073 -0.0612 -0.8845 -1.4044
17988TIP3   OH275378   5.948   5.763   2.872 -0.2181 -0.5859  0.2203
17988TIP3    H175379   5.918   5.850   2.848 -0.7814 -0.2811  1.8459
17988TIP3    H275380   5.903   5.704   2.812  0.5415  0.2535 -1.2163
17989TIP3   OH275381   0.437   4.607  10.937 -0.0383 -0.1042 -1.0037
17989TIP3    H175382   0.362   4.660  10.911 -0.6922 -2.1043 -3.7527
17989TIP3    H275383   0.426   4.525  10.887  1.9906 -1.9835  1.3610
17990TIP3   OH275384   3.289   2.727   4.008  0.8554 -0.0384  0.0012
17990TIP3    H175385   3.373   2.752   4.048  2.1833 -1.9401 -1.4161
17990TIP3    H275386   3.274   2.637   4.038  0.2326 -0.3371 -1.1687
17991TIP3   OH275387   3.354   3.397  12.673 -0.1891  0.7396  1.1214
17991TIP3    H175388   3.270   3.366  12.708 -0.9387  1.5476  0.0813
17991TIP3    H275389   3.387   3.323  12.621 -1.1114  1.0281  0.1010
17992TIP3   OH275390   6.618   5.052   3.815 -0.3778 -0.3574 -0.2356
17992TIP3    H175391   6.526   5.051   3.787  0.2233 -2.0526 -2.3505
17992TIP3    H275392   6.628   4.972   3.866 -0.7465  1.3412  2.7915
17993TIP3   OH275393   2.086   5.749  11.834 -0.2661  0.2430  0.2670
17993TIP3    H175394   2.093   5.673  11.776 -1.1748 -0.0407  0.4984
17993TIP3    H275395   2.164   5.801  11.816  0.4438 -0.8136  0.1993
17994TIP3   OH275396   0.641   5.336   3.342 -0.3657 -0.2621 -0.1148
17994TIP3    H175397   0.568   5.396   3.328 -1.1119 -1.0432  0.3434
17994TIP3    H275398   0.611   5.276   3.411  1.9386  1.4866  2.6635
17995TIP3   OH275399   2.282   0.434   2.347 -0.0220  0.0922 -0.1343
17995TIP3    H175400   2.211   0.388   2.302  0.0288 -0.5974  0.4634
17995TIP3    H275401   2.346   0.453   2.278 -0.4196 -0.0000 -0.5329
17996TIP3   OH275402   2.977   3.959  17.039  0.1988  0.3114  0.7489
17996TIP3    H175403   2.900   3.911  17.009 -0.4528  2.3133 -1.0744
17996TIP3    H275404   3.044   3.939  16.974  0.1728  1.1474  0.4492
17997TIP3   OH275405   4.746   3.285  10.800 -0.0411 -0.1087  0.7071
17997TIP3    H175406   4.660   3.244  10.804 -0.7434  1.0144 -1.3058
17997TIP3    H275407   4.805   3.224  10.845 -1.7024 -1.3653  1.2513
17998TIP3   OH275408   1.309   0.527   1.718 -0.0204  0.1884 -0.6767
17998TIP3    H175409   1.230   0.516   1.665 -1.1261 -0.0156  0.9289
17998TIP3    H275410   1.289   0.602   1.774  0.9167  0.1165 -0.2351
17999TIP3   OH275411   3.650   6.778  15.133  0.1608 -0.1325 -0.0850
17999TIP3    H175412   3.659   6.751  15.042 -0.6561  2.7306 -1.1057
17999TIP3    H275413   3.738   6.765  15.170  0.2717 -2.2343 -0.9408
18000TIP3   OH275414   1.846   6.521   4.193 -0.5275  0.1974 -0.0522
18000TIP3    H175415   1.814   6.595   4.140  0.6466 -1.0514 -2.7314
18000TIP3    H275416   1.933   6.503   4.157 -0.6391 -2.2420  0.7624
18001TIP3   OH275417   3.173   0.223  11.114  0.6754 -0.2951  0.5923
18001TIP3    H175418   3.208   0.204  11.027  0.9008 -0.0049  0.6155
18001TIP3    H275419   3.105   0.289  11.098  0.4219 -0.5535  0.5930
18002TIP3   OH275420   5.366   6.702  12.588  0.5607 -0.4320 -0.3846
18002TIP3    H175421   5.347   6.688  12.681 -0.2968  1.2062 -0.2607
18002TIP3    H275422   5.404   6.620  12.558  1.6553 -0.7189  1.6076
18003TIP3   OH275423   1.131   1.189   6.169 -0.5936 -0.3316  0.2139
18003TIP3    H175424   1.104   1.105   6.207 -0.5066 -0.5925 -0.2991
18003TIP3    H275425   1.215   1.208   6.209 -1.1798  0.1286  1.2777
18004TIP3   OH275426   4.844   3.796  15.535  0.7953 -0.5765 -1.0415
18004TIP3    H175427   4.870   3.775  15.625  3.1802  1.2581 -1.1707
18004TIP3    H275428   4.752   3.821  15.542  1.4646  1.7373  1.3996
18005TIP3   OH275429   2.047   6.182   4.620 -0.1946 -0.2470  0.4547
18005TIP3    H175430   2.061   6.087   4.625  0.8682 -0.0514  1.5390
18005TIP3    H275431   2.135   6.219   4.619 -0.6063  0.7885  1.3394
18006TIP3   OH275432   3.776   3.531  11.896 -0.0751  0.0522 -0.4852
18006TIP3    H175433   3.732   3.606  11.936 -0.6436 -1.6084  2.2688
18006TIP3    H275434   3.869   3.548  11.908 -0.1976  0.4328 -0.0477
18007TIP3   OH275435   0.515   3.865   2.031  0.4359 -0.1916 -0.2733
18007TIP3    H175436   0.491   3.782   1.991 -0.1013  0.4537 -1.3521
18007TIP3    H275437   0.445   3.882   2.095  0.9245 -0.8874  0.4717
18008TIP3   OH275438   1.905   2.476  12.573 -0.4799  0.0842 -0.0508
18008TIP3    H175439   1.909   2.441  12.484 -0.9992  0.0967 -0.0802
18008TIP3    H275440   1.989   2.521  12.585  1.1050 -2.7876  0.6742
18009TIP3   OH275441   5.076   4.762   3.229 -0.0311  0.0795  0.1967
18009TIP3    H175442   5.027   4.690   3.187 -0.0886 -1.2431  2.3730
18009TIP3    H275443   5.026   4.780   3.309  2.5753 -0.8462  2.1604
18010TIP3   OH275444   2.154   6.102   5.004  0.5801 -0.1296  0.1540
18010TIP3    H175445   2.166   6.127   5.096  0.2492 -0.0590  0.1782
18010TIP3    H275446   2.097   6.170   4.968  1.9358  0.7165 -0.5012
18011TIP3   OH275447   0.092   0.060   5.535 -0.1583  0.5223  0.7384
18011TIP3    H175448   0.045  -0.011   5.579  0.0568  0.6139  1.1144
18011TIP3    H275449   0.174   0.020   5.507 -0.0969  0.5872  0.8271
18012TIP3   OH275450   1.338   0.883   5.300  0.3224  0.2678  0.0953
18012TIP3    H175451   1.259   0.840   5.335  1.2919 -0.3374  1.6340
18012TIP3    H275452   1.311   0.974   5.285 -1.2400 -0.3733 -1.4260
18013TIP3   OH275453   3.628   2.322   2.196  0.1268  0.3260 -0.2791
18013TIP3    H175454   3.703   2.306   2.255 -0.6355  0.0251  0.6284
18013TIP3    H275455   3.568   2.376   2.248 -0.5825  0.0116 -0.7627
18014TIP3   OH275456   5.239   6.709  14.246  0.1231  0.0258  0.2767
18014TIP3    H175457   5.290   6.790  14.244 -0.6479  0.5024 -1.0958
18014TIP3    H275458   5.160   6.732  14.295 -0.7869  0.5736 -1.3641
18015TIP3   OH275459   5.070   1.866   3.889  0.2027 -0.3854  0.0452
18015TIP3    H175460   5.016   1.796   3.925 -0.1031 -0.3098 -0.2645
18015TIP3    H275461   5.008   1.932   3.860  0.5406  1.1226  2.4978
18016TIP3   OH275462   1.856   6.622   0.563 -0.2992 -0.2753 -0.1801
18016TIP3    H175463   1.927   6.559   0.552 -1.2218 -1.5503  0.7170
18016TIP3    H275464   1.821   6.634   0.475 -0.1086 -1.0460 -0.3730
18017TIP3   OH275465   2.595   3.641  15.457 -0.1659 -0.1941 -0.0942
18017TIP3    H175466   2.571   3.733  15.440  1.7639  0.4280  0.2886
18017TIP3    H275467   2.690   3.639  15.446  0.0715 -1.7215  1.7982
18018TIP3   OH275468   6.213   6.203   4.372  0.1906 -0.1321 -0.1621
18018TIP3    H175469   6.127   6.160   4.372 -0.6857  1.5383 -0.1823
18018TIP3    H275470   6.250   6.185   4.458 -0.5432 -0.1918  0.1442
18019TIP3   OH275471   1.956   1.453   5.112  0.2379  0.3385  0.0130
18019TIP3    H175472   1.986   1.529   5.062  0.7078 -0.4947 -1.0215
18019TIP3    H275473   1.881   1.420   5.061  0.7091 -0.5126 -0.1457
18020TIP3   OH275474   3.537   0.525  11.101 -0.0770 -0.3403 -0.5152
18020TIP3    H175475   3.536   0.470  11.023 -1.2583 -1.3768  0.1954
18020TIP3    H275476   3.503   0.469  11.171 -2.4307  1.5573  0.0150
18021TIP3   OH275477   3.827   4.176   3.928  0.0406 -0.0333 -0.4840
18021TIP3    H175478   3.882   4.226   3.868  1.4844  0.6106  1.3088
18021TIP3    H275479   3.876   4.096   3.946  0.7534  0.8206  1.6067
18022TIP3   OH275480   4.922   1.326  13.562  0.0729  0.1808  0.0918
18022TIP3    H175481   4.864   1.252  13.578 -0.3022  0.0687 -1.5943
18022TIP3    H275482   4.946   1.357  13.650 -0.4497 -1.3751  0.8328
18023TIP3   OH275483   4.908   2.517  15.393 -0.0542 -0.8322  0.0680
18023TIP3    H175484   4.990   2.542  15.435 -0.9723  0.6803  1.0879
18023TIP3    H275485   4.862   2.599  15.380 -0.4649 -1.4147 -2.6396
18024TIP3   OH275486   4.324   5.114   5.246 -0.3444 -0.4692 -0.5463
18024TIP3    H175487   4.338   5.154   5.160  1.8686 -0.1808 -0.1164
18024TIP3    H275488   4.384   5.160   5.304 -3.5251  1.0248  1.7873
18025TIP3   OH275489   4.049   0.670  13.070 -0.5014 -0.3330  0.4297
18025TIP3    H175490   4.110   0.665  13.143  0.7557 -0.6765 -0.6203
18025TIP3    H275491   4.013   0.582  13.063 -0.2927 -0.4105  0.3467
18026TIP3   OH275492   4.441   4.693  11.412  0.9714 -0.1449 -0.1963
18026TIP3    H175493   4.440   4.687  11.317 -0.4602  1.0156 -0.2913
18026TIP3    H275494   4.515   4.751  11.431 -0.1635  1.6091 -0.8114
18027TIP3   OH275495   4.931   1.061   3.481 -0.1357  0.3307  0.1211
18027TIP3    H175496   4.883   1.007   3.543 -0.0001  0.9158  0.7411
18027TIP3    H275497   5.019   1.068   3.518 -0.4720  1.9865  0.7064
18028TIP3   OH275498   5.860   2.785  15.673  0.4198 -0.6983  0.1154
18028TIP3    H175499   5.935   2.811  15.726  1.7130 -0.1585 -1.9039
18028TIP3    H275500   5.875   2.824  15.587 -1.8582 -1.1166 -0.5606
18029TIP3   OH275501   5.470   1.532  13.305  0.8208  0.3373  0.3087
18029TIP3    H175502   5.547   1.554  13.358  2.2695 -2.1418 -0.5953
18029TIP3    H275503   5.418   1.474  13.361  1.2377 -0.5228 -0.1811
18030TIP3   OH275504   6.696   5.304  11.636 -0.0540 -0.2194  0.3047
18030TIP3    H175505   6.645   5.284  11.557  0.5532 -0.3042 -0.0650
18030TIP3    H275506   6.771   5.245  11.632  0.0456 -0.1381  0.8847
18031TIP3   OH275507   0.014   0.261  12.400  0.2479  0.0610  0.1597
18031TIP3    H175508   0.016   0.167  12.383 -0.6060 -0.0325  0.5154
18031TIP3    H275509   0.039   0.301  12.317 -0.4753 -0.4624 -0.3274
18032TIP3   OH275510   1.242   3.711   6.085  0.2727 -0.1739 -0.3128
18032TIP3    H175511   1.202   3.697   5.999  0.8408 -1.8107 -0.3357
18032TIP3    H275512   1.172   3.749   6.138 -0.6823 -1.0102 -0.9443
18033TIP3   OH275513   0.592   3.722  14.776  0.9496 -0.0904 -1.1156
18033TIP3    H175514   0.669   3.670  14.751  2.3363  2.3303 -2.2949
18033TIP3    H275515   0.534   3.716  14.701  0.9342 -0.2481 -1.0908
18034TIP3   OH275516   6.501   6.462  16.256 -0.2722  0.8043 -0.2481
18034TIP3    H175517   6.466   6.407  16.186 -1.0500  0.5047  0.3625
18034TIP3    H275518   6.580   6.501  16.218 -0.0513 -0.2298 -0.9069
18035TIP3   OH275519   3.254   6.149  16.377  0.2952 -0.1315 -0.9541
18035TIP3    H175520   3.199   6.153  16.298  0.5616 -0.3206 -1.1516
18035TIP3    H275521   3.343   6.156  16.344  0.4095 -0.2162 -0.6653
18036TIP3   OH275522   0.125   1.757  16.947  0.1204  0.2886  0.1800
18036TIP3    H175523   0.204   1.809  16.962  0.2601 -0.6155  3.2814
18036TIP3    H275524   0.103   1.773  16.855  2.4909  2.4854 -0.1280
18037TIP3   OH275525   3.715   2.452  15.687  0.1191  0.3612 -0.0776
18037TIP3    H175526   3.668   2.378  15.649 -0.6913  1.2601 -0.8651
18037TIP3    H275527   3.663   2.479  15.762  1.2518 -0.8475  1.1819
18038TIP3   OH275528   4.659   3.255   1.623  0.2730 -0.1289 -0.3823
18038TIP3    H175529   4.665   3.183   1.561 -1.3917 -2.0034  1.4883
18038TIP3    H275530   4.679   3.333   1.571  0.8310 -1.7656 -2.7925
18039TIP3   OH275531   3.390   5.351   4.521 -0.1974 -0.7358 -0.7030
18039TIP3    H175532   3.341   5.270   4.506 -1.5527 -0.4774  1.8077
18039TIP3    H275533   3.417   5.347   4.612  0.2438  1.3694 -0.6784
18040TIP3   OH275534   0.063   3.124   2.529 -0.2351 -0.3543 -0.1503
18040TIP3    H175535   0.101   3.127   2.441  0.2090  1.2180  0.0589
18040TIP3    H275536  -0.029   3.147   2.517  0.2349  1.8284 -0.0514
18041TIP3   OH275537   2.728   6.577   5.983  0.0836 -0.0389 -0.1918
18041TIP3    H175538   2.737   6.667   6.015 -0.5786 -0.1942  0.4669
18041TIP3    H275539   2.637   6.553   6.004 -0.5667  0.0195 -2.6614
18042TIP3   OH275540   3.062   3.413  15.696 -0.3835 -0.0238 -0.0978
18042TIP3    H175541   3.058   3.503  15.726 -0.4666 -0.9749  3.0984
18042TIP3    H275542   2.971   3.383  15.697 -0.2681 -0.3919 -0.2974
18043TIP3   OH275543   5.545   2.258  12.144  0.1290 -0.2815 -0.4038
18043TIP3    H175544   5.463   2.212  12.158  0.1402 -0.3283 -0.4946
18043TIP3    H275545   5.520   2.340  12.101  0.3220 -1.2212 -2.3852
18044TIP3   OH275546   6.734   3.454  15.473  0.5522  0.0528  0.2406
18044TIP3    H175547   6.706   3.538  15.438 -0.9113 -0.2400  0.6475
18044TIP3    H275548   6.671   3.434  15.543  2.8360  0.2194  2.5246
18045TIP3   OH275549   4.503   2.533   5.205 -0.3150  0.5410 -0.1531
18045TIP3    H175550   4.499   2.502   5.115  0.6988  0.1159 -0.0642
18045TIP3    H275551   4.589   2.505   5.237 -0.9436  0.0062  1.1847
18046TIP3   OH275552   5.009   0.162  13.877  0.3224  0.0534 -0.1593
18046TIP3    H175553   4.929   0.154  13.825  0.3249  1.5605 -0.4383
18046TIP3    H275554   4.981   0.147  13.967 -0.3879  1.0461 -0.1991
18047TIP3   OH275555   5.181   0.716  12.250  0.6209 -0.2850  0.3228
18047TIP3    H175556   5.155   0.646  12.190 -0.4607  0.8042 -0.5292
18047TIP3    H275557   5.276   0.704  12.261  0.8615 -0.5287 -1.6319
18048TIP3   OH275558   2.071   0.165   1.135 -0.1961  0.2460  0.3110
18048TIP3    H175559   2.107   0.128   1.215  1.0403  0.7906  0.0277
18048TIP3    H275560   1.982   0.190   1.158  0.1882  0.5309  1.5646
18049TIP3   OH275561   4.130   2.414   2.567  0.3421 -0.5517 -0.2280
18049TIP3    H175562   4.140   2.368   2.650  1.5585 -3.4874 -1.8569
18049TIP3    H275563   4.036   2.411   2.549  0.2311 -1.0551  0.4077
18050TIP3   OH275564   1.811   1.035  11.430  0.2679 -0.7641 -0.3758
18050TIP3    H175565   1.870   0.962  11.447 -1.4845 -2.4358 -1.0425
18050TIP3    H275566   1.814   1.087  11.511  1.3150 -1.7443  0.2469
18051TIP3   OH275567   0.517   6.237  16.726  0.1692  0.0520 -0.3765
18051TIP3    H175568   0.442   6.282  16.688 -1.7868 -1.3235  1.5181
18051TIP3    H275569   0.549   6.180  16.656  0.6289  1.9408 -1.7699
18052TIP3   OH275570   6.587   2.569  14.939 -0.6430  0.1479 -0.4056
18052TIP3    H175571   6.612   2.479  14.960 -1.1229  0.1051  0.0043
18052TIP3    H275572   6.670   2.615  14.930 -0.4004 -0.0439  0.6794
18053TIP3   OH275573   0.444   4.989  10.564  0.8492  0.1681 -0.5776
18053TIP3    H175574   0.534   4.995  10.533  1.0101 -0.8891 -0.3738
18053TIP3    H275575   0.409   4.912  10.520  0.2339  0.2313 -0.2079
18054TIP3   OH275576   6.080   0.512   3.729 -0.7714 -0.1354 -0.0272
18054TIP3    H175577   5.987   0.529   3.747 -0.8470 -1.0502  0.5262
18054TIP3    H275578   6.126   0.547   3.805 -0.9611 -2.5834  1.3170
18055TIP3   OH275579   1.294   6.208  12.293  0.1419 -0.3571 -0.1143
18055TIP3    H175580   1.306   6.301  12.275  0.6869 -0.3737  0.1585
18055TIP3    H275581   1.211   6.187  12.251  1.0286 -0.2392 -2.0644
18056TIP3   OH275582   2.847   3.115   5.170 -0.2564 -0.6969  0.2876
18056TIP3    H175583   2.793   3.183   5.128  0.6467 -0.1409 -0.0039
18056TIP3    H275584   2.817   3.033   5.129 -0.6516 -0.3629 -0.1133
18057TIP3   OH275585   2.575   1.661   3.133  0.0358  0.7896 -0.3081
18057TIP3    H175586   2.660   1.646   3.175  0.3235  0.0780 -1.0999
18057TIP3    H275587   2.598   1.702   3.049 -0.4019  0.6365 -0.5051
18058TIP3   OH275588   0.586   0.405   0.045 -0.4340  0.1599 -0.2973
18058TIP3    H175589   0.543   0.474  -0.006  0.8608  0.6003 -0.8196
18058TIP3    H275590   0.626   0.450   0.119 -0.7813 -0.2432  0.1493
18059TIP3   OH275591   1.453   3.803  10.495  0.2548  1.0261  0.0605
18059TIP3    H175592   1.379   3.864  10.490  1.1960  2.0930 -1.9357
18059TIP3    H275593   1.432   3.734  10.432  0.7089  1.0666 -0.1411
18060TIP3   OH275594   3.137   0.566  11.853 -0.0776  0.0409 -0.8156
18060TIP3    H175595   3.160   0.611  11.771  0.6650 -0.9473 -1.1561
18060TIP3    H275596   3.098   0.483  11.825 -1.3007  0.3680 -0.1816
18061TIP3   OH275597   3.723   0.882  15.758 -0.3481 -0.4719 -0.3072
18061TIP3    H175598   3.755   0.883  15.668 -0.3997  0.6916 -0.3326
18061TIP3    H275599   3.630   0.901  15.751 -0.1939  0.4603  0.0324
18062TIP3   OH275600   5.771   0.947  16.032 -0.2738 -0.9210  0.1223
18062TIP3    H175601   5.744   1.039  16.033  0.1602 -0.7946  0.9711
18062TIP3    H275602   5.849   0.946  15.977 -0.0176 -0.7040  0.4806
18063TIP3   OH275603   3.616   3.965   3.926  0.9559  0.7207 -0.4405
18063TIP3    H175604   3.548   3.992   3.864 -0.4109 -0.4852  0.4917
18063TIP3    H275605   3.692   4.018   3.901  0.4778  0.2734 -3.1670
18064TIP3   OH275606   2.048   6.594  16.109 -0.6120 -0.3034 -0.0269
18064TIP3    H175607   1.962   6.552  16.105  0.1655 -1.9798  0.1043
18064TIP3    H275608   2.068   6.599  16.203 -0.7942  0.5885 -0.0299
18065TIP3   OH275609   4.960   4.308  14.096 -0.6976  0.1599 -0.2771
18065TIP3    H175610   5.032   4.304  14.034 -0.3924  1.6303 -0.0668
18065TIP3    H275611   4.898   4.240  14.068  0.3393 -0.5025 -0.9953
18066TIP3   OH275612   1.826   1.549   2.334  0.5715 -0.3680 -0.0853
18066TIP3    H175613   1.858   1.546   2.244 -1.8589  0.7939 -1.0953
18066TIP3    H275614   1.863   1.630   2.370  2.6888 -1.5340  0.5142
18067TIP3   OH275615   4.073   0.556  16.563  0.1509  0.0048 -0.1509
18067TIP3    H175616   4.075   0.463  16.582  0.2115 -0.1682 -0.9775
18067TIP3    H275617   4.127   0.596  16.632  0.8486 -0.6570 -0.3090
18068TIP3   OH275618   2.197   6.399   3.295 -0.4418  0.4329  0.1937
18068TIP3    H175619   2.286   6.435   3.294 -0.2212 -0.0807 -1.7313
18068TIP3    H275620   2.155   6.444   3.369  0.8837  1.9805  0.0882
18069TIP3   OH275621   2.697   1.785  17.084 -0.1001  0.1362 -0.0134
18069TIP3    H175622   2.607   1.798  17.111  0.1281  0.0073  0.8413
18069TIP3    H275623   2.735   1.873  17.081 -0.2646  0.1943 -0.4215
18070TIP3   OH275624   3.669   1.271  11.034 -1.1033 -0.1869  0.0247
18070TIP3    H175625   3.731   1.201  11.052 -2.8239 -1.6924  0.4676
18070TIP3    H275626   3.636   1.296  11.120 -1.7598 -0.0780 -0.2512
18071TIP3   OH275627   1.250   3.151  16.893  0.0580 -0.0867  0.3741
18071TIP3    H175628   1.271   3.149  16.987 -1.4141  0.3594  0.7379
18071TIP3    H275629   1.225   3.242  16.877  1.4694  0.1288 -0.7436
18072TIP3   OH275630   2.466   3.371  13.926 -0.0959 -0.4237  0.2448
18072TIP3    H175631   2.441   3.280  13.906  1.9455 -1.0229  0.1877
18072TIP3    H275632   2.561   3.368  13.935 -0.0717  1.5647  1.1425
18073TIP3   OH275633   2.249   0.897   2.805 -0.2189 -0.2518 -0.3830
18073TIP3    H175634   2.331   0.892   2.756  0.2195  1.0120  0.1734
18073TIP3    H275635   2.272   0.870   2.894 -0.6065 -0.7566 -0.4322
18074TIP3   OH275636   3.951   0.581  11.114 -0.5338 -0.2584 -0.0148
18074TIP3    H175637   3.994   0.607  11.196  0.1307  1.0855 -0.7472
18074TIP3    H275638   3.881   0.645  11.102  0.3940  0.6011 -1.2649
18075TIP3   OH275639   5.799   6.627   2.360  0.0952  0.1915 -0.2290
18075TIP3    H175640   5.765   6.591   2.279 -3.1783  1.7366  0.3144
18075TIP3    H275641   5.729   6.612   2.424  1.6391  1.0315  1.7639
18076TIP3   OH275642   6.725   1.529   4.968  0.3548  0.1863 -0.8355
18076TIP3    H175643   6.642   1.570   4.991 -0.1090 -0.3702 -1.4916
18076TIP3    H275644   6.788   1.601   4.965  0.3084  0.4002  1.4312
18077TIP3   OH275645   4.668   3.354  14.919  0.1126 -0.1507  0.4108
18077TIP3    H175646   4.583   3.345  14.963  0.5389 -0.8994  1.0896
18077TIP3    H275647   4.679   3.273  14.870  0.2653  0.1132 -0.0018
18078TIP3   OH275648   0.369   1.783  11.413 -0.1822  0.2294  0.6679
18078TIP3    H175649   0.385   1.875  11.434  1.9229  0.6208 -2.0388
18078TIP3    H275650   0.377   1.779  11.317  0.6475 -2.9003  0.7644
18079TIP3   OH275651   5.559   4.103   0.303 -0.4597  0.5813 -0.4047
18079TIP3    H175652   5.547   4.112   0.398  1.1443 -0.5585 -0.0547
18079TIP3    H275653   5.476   4.067   0.272 -0.4636 -0.5477  0.8211
18080TIP3   OH275654   2.284   1.121   0.472 -0.3588 -0.0622 -0.4889
18080TIP3    H175655   2.219   1.051   0.462  0.3873 -0.7494 -0.6016
18080TIP3    H275656   2.342   1.091   0.542 -0.8822  1.1244  0.4974
18081TIP3   OH275657   2.241   1.444   3.432 -0.4373  0.0620 -0.1515
18081TIP3    H175658   2.308   1.380   3.453 -0.1246  0.8438  1.3365
18081TIP3    H275659   2.256   1.516   3.493 -1.8042  0.8329 -0.6756
18082TIP3   OH275660   1.652   6.350  13.633 -0.0731  0.7526  0.0685
18082TIP3    H175661   1.747   6.361  13.639 -0.0641  0.2813  1.0273
18082TIP3    H275662   1.635   6.266  13.676 -0.8002  0.1906 -1.2486
18083TIP3   OH275663   6.590   0.129   1.366 -0.0434  0.4932 -0.9676
18083TIP3    H175664   6.569   0.116   1.274 -1.2555 -2.0735 -0.4298
18083TIP3    H275665   6.643   0.053   1.390 -1.5619 -0.0625  0.8946
18084TIP3   OH275666   6.285   6.654  15.587 -0.5646  0.1014 -0.2627
18084TIP3    H175667   6.291   6.571  15.539 -0.8309 -0.8872  1.3549
18084TIP3    H275668   6.371   6.694  15.577 -0.2199 -0.6918 -0.4915
18085TIP3   OH275669   0.611   0.865  13.442 -0.0188  0.5695  0.3021
18085TIP3    H175670   0.566   0.870  13.357 -0.1395  2.7832  0.4484
18085TIP3    H275671   0.664   0.944  13.446  1.2819 -0.3171  1.6140
18086TIP3   OH275672   5.623   5.055  11.036  0.0692 -0.2251 -0.4998
18086TIP3    H175673   5.606   5.093  10.950  2.2007  1.6544 -0.2173
18086TIP3    H275674   5.656   4.967  11.017  1.1503  0.3888 -1.7168
18087TIP3   OH275675   5.475   2.629  15.699  0.3493  0.8996  0.2366
18087TIP3    H175676   5.536   2.556  15.693  0.0213  0.6330  0.1617
18087TIP3    H275677   5.530   2.707  15.690  0.5725  0.6420 -0.6868
18088TIP3   OH275678   3.680   2.520   5.722  0.3710  0.5550  0.6897
18088TIP3    H175679   3.656   2.553   5.636  0.6670  1.3433  0.9022
18088TIP3    H275680   3.629   2.440   5.732 -0.6034  1.1115  0.2959
18089TIP3   OH275681   2.844   0.063  11.012  0.3470 -0.6820 -0.2685
18089TIP3    H175682   2.801   0.058  10.927 -0.1175 -1.1945 -0.0104
18089TIP3    H275683   2.914  -0.002  11.008 -0.1164 -1.2054 -0.0197
18090TIP3   OH275684   5.990   1.850  13.950 -0.5943  0.0902  0.4955
18090TIP3    H175685   5.932   1.833  13.876 -1.7705  1.1558  1.1513
18090TIP3    H275686   5.948   1.807  14.024 -0.0512  0.0674  0.7977
18091TIP3   OH275687   2.732   2.895   4.341 -0.3659 -0.0123 -0.0499
18091TIP3    H175688   2.715   2.805   4.368 -1.0399  0.7738  2.4107
18091TIP3    H275689   2.720   2.947   4.421  1.6121  2.0814 -0.9871
18092TIP3   OH275690   6.666   4.505   2.050 -0.0347  0.1112 -0.5225
18092TIP3    H175691   6.761   4.499   2.044 -0.1116 -0.4175 -1.3258
18092TIP3    H275692   6.646   4.465   2.135  0.4621  0.2797 -0.3212
18093TIP3   OH275693   2.539   6.557   1.067 -0.0355  0.2145  0.5811
18093TIP3    H175694   2.478   6.484   1.080  1.3895 -0.8175  1.7891
18093TIP3    H275695   2.543   6.600   1.152 -0.3938  1.3684  0.0383
18094TIP3   OH275696   1.892   5.138  12.442 -0.6409 -0.1129  0.5246
18094TIP3    H175697   1.871   5.165  12.352  0.8325  2.6404  0.9085
18094TIP3    H275698   1.806   5.133  12.485 -1.3732 -1.4603 -0.9751
18095TIP3   OH275699   4.307   5.312  13.164  0.5034  0.0024 -0.2303
18095TIP3    H175700   4.221   5.354  13.158  0.2215 -0.7118 -2.0002
18095TIP3    H275701   4.365   5.373  13.119  0.4180 -0.6393 -1.2550
18096TIP3   OH275702   0.212   1.644   5.746  0.3737 -0.0155  0.1315
18096TIP3    H175703   0.214   1.622   5.839  0.2713 -0.1339  0.1067
18096TIP3    H275704   0.148   1.584   5.709  1.9695 -1.4954 -0.4017
18097TIP3   OH275705   0.142   3.976  12.619 -0.2276  0.0803 -0.2127
18097TIP3    H175706   0.100   4.061  12.603 -0.0796  0.2460  0.2785
18097TIP3    H275707   0.229   3.984  12.582 -0.3679 -0.0183 -0.5769
18098TIP3   OH275708   0.112   6.020   4.909 -0.1780 -0.2716  0.7260
18098TIP3    H175709   0.149   5.962   4.976 -1.9313 -0.7570  1.3411
18098TIP3    H275710   0.036   6.060   4.951  0.1516  1.4067 -0.1717
18099TIP3   OH275711   3.345   2.485  10.374 -0.8785 -0.3540 -0.4359
18099TIP3    H175712   3.333   2.543  10.299  1.9575 -1.7109 -2.1271
18099TIP3    H275713   3.280   2.415  10.361  0.3605 -1.2321 -2.4417
18100TIP3   OH275714   5.533   3.841   2.910  0.3491 -0.3580 -0.1099
18100TIP3    H175715   5.502   3.770   2.854  0.4925 -3.3291  3.2698
18100TIP3    H275716   5.473   3.843   2.984  2.0100  1.1141  1.3263
18101TIP3   OH275717   3.517   5.140  12.558 -0.0194  0.1863 -0.5437
18101TIP3    H175718   3.461   5.190  12.617  0.3984  0.0529 -0.0138
18101TIP3    H275719   3.566   5.082  12.617 -1.6429 -2.0160 -1.2316
18102TIP3   OH275720   2.341   1.409   0.334  0.2469 -0.1873 -0.1447
18102TIP3    H175721   2.295   1.325   0.324  1.3887 -0.9421  0.6344
18102TIP3    H275722   2.315   1.460   0.258  1.5821 -2.2625 -2.1464
18103TIP3   OH275723   1.353   2.648  14.701 -0.3956  1.2333 -0.4423
18103TIP3    H175724   1.441   2.645  14.738 -0.6871  0.8654  0.2275
18103TIP3    H275725   1.316   2.730  14.733 -0.6105  0.9644  0.0101
18104TIP3   OH275726   3.392   0.376  10.434  0.8030 -0.4399 -0.1492
18104TIP3    H175727   3.403   0.328  10.517  0.9181  0.7492  0.5423
18104TIP3    H275728   3.461   0.342  10.378  1.9952  0.1528  0.9203
18105TIP3   OH275729   4.374   2.668  14.116 -0.2991  0.7129 -0.1285
18105TIP3    H175730   4.356   2.726  14.043  0.7036  2.6718  1.1052
18105TIP3    H275731   4.292   2.662  14.164 -0.2446  1.6753  0.0993
18106TIP3   OH275732   3.753   6.386  13.781  0.1427  0.2159 -0.5500
18106TIP3    H175733   3.800   6.361  13.701  1.0184 -0.6070  0.2017
18106TIP3    H275734   3.802   6.344  13.852 -1.0022  0.3862  0.3721
18107TIP3   OH275735   1.667   4.615  15.065 -0.3715  0.5522 -0.0757
18107TIP3    H175736   1.583   4.657  15.045 -0.6997 -0.6483 -1.3932
18107TIP3    H275737   1.703   4.593  14.979  2.5848  3.3681  0.2323
18108TIP3   OH275738   4.770   1.916   4.847  0.4914 -0.1120 -0.0805
18108TIP3    H175739   4.826   1.876   4.781  1.5585  0.6841  0.3135
18108TIP3    H275740   4.690   1.940   4.801  0.4798 -1.2221 -0.6660
18109TIP3   OH275741   4.209   1.904   4.095 -1.0052 -0.2126 -0.5515
18109TIP3    H175742   4.274   1.901   4.025  0.8222 -0.4501  1.0895
18109TIP3    H275743   4.133   1.947   4.055  0.6415  1.3718 -2.1613
18110TIP3   OH275744   4.241   3.341   5.729 -1.4354 -0.5237  0.2480
18110TIP3    H175745   4.253   3.250   5.756  0.7844 -0.8493 -1.5274
18110TIP3    H275746   4.326   3.381   5.742 -1.6393  0.5636 -1.4806
18111TIP3   OH275747   0.672   2.837   5.044 -0.8565  0.5115  0.0443
18111TIP3    H175748   0.717   2.892   4.979  1.5290 -0.2071  0.9737
18111TIP3    H275749   0.640   2.762   4.994  0.5809  0.1745 -0.4273
18112TIP3   OH275750   4.496   5.027   3.021  0.3244  0.1351 -0.4389
18112TIP3    H175751   4.504   5.000   3.113 -1.3032 -1.3740 -0.6800
18112TIP3    H275752   4.561   4.975   2.975  0.9984  0.7383 -0.1751
18113TIP3   OH275753   6.186   1.795   3.724 -0.3281  0.3513 -0.4720
18113TIP3    H175754   6.098   1.757   3.722 -0.6505  1.0894 -0.9538
18113TIP3    H275755   6.186   1.849   3.803 -0.8434  1.5381 -1.2521
18114TIP3   OH275756   5.587   0.984   0.559  0.3199 -0.2498 -0.0804
18114TIP3    H175757   5.559   1.074   0.578 -0.2322 -0.2047 -1.0267
18114TIP3    H275758   5.672   0.976   0.603  0.8750  1.0810 -0.8251
18115TIP3   OH275759   3.838   6.392   0.341  0.3611 -0.2481  0.5143
18115TIP3    H175760   3.905   6.461   0.341 -0.3416  0.4827 -0.9829
18115TIP3    H275761   3.808   6.387   0.432  1.8829 -0.0478  1.0571
18116TIP3   OH275762   1.468   0.258   4.705  0.1441  0.4011 -0.2936
18116TIP3    H175763   1.513   0.325   4.757 -0.4241  0.9785 -0.5322
18116TIP3    H275764   1.454   0.299   4.620  0.8037 -0.4381 -0.8109
18117TIP3   OH275765   0.973   5.074   4.781 -0.2925  0.3387  0.2158
18117TIP3    H175766   0.915   5.145   4.809 -0.9830 -0.2215  0.2258
18117TIP3    H275767   1.062   5.107   4.799 -0.5893  1.2616  0.0649
18118TIP3   OH275768   1.266   4.137   6.589 -0.5086 -0.0148  0.2063
18118TIP3    H175769   1.320   4.071   6.633 -1.1105 -0.7410 -0.1223
18118TIP3    H275770   1.187   4.090   6.563  0.1028  0.1679 -2.2572
18119TIP3   OH275771   4.677   5.540  16.146 -0.5655 -0.6890  0.1063
18119TIP3    H175772   4.718   5.481  16.208 -1.4997  1.7370  3.2955
18119TIP3    H275773   4.585   5.514  16.144 -0.7779  0.0070  0.7136
18120TIP3   OH275774   1.001   0.744  14.583 -0.2698 -0.3977  0.1384
18120TIP3    H175775   1.082   0.777  14.620 -1.4811  3.0606  0.1447
18120TIP3    H275776   0.975   0.672  14.640  0.7880  1.0456  2.5785
18121TIP3   OH275777   3.206   4.135   5.880 -0.4261  0.4157 -0.0485
18121TIP3    H175778   3.159   4.215   5.855  1.5215  1.5138 -0.3757
18121TIP3    H275779   3.219   4.089   5.797 -3.1998 -1.3007  0.3294
18122TIP3   OH275780   2.068   0.431  10.948 -0.6121  0.5397 -0.3233
18122TIP3    H175781   2.103   0.344  10.967  0.6588  1.3447  1.2799
18122TIP3    H275782   2.108   0.455  10.865 -0.6761 -0.2455 -0.5891
18123TIP3   OH275783   1.203   4.817  10.694 -0.6680  0.3064  0.3525
18123TIP3    H175784   1.268   4.847  10.630 -1.1774 -1.8673 -1.3244
18123TIP3    H275785   1.122   4.808  10.644 -0.8332 -2.5180  0.9226
18124TIP3   OH275786   5.956   0.758  15.201 -0.2947 -0.6100 -0.8326
18124TIP3    H175787   5.926   0.692  15.138 -0.8225 -0.0799 -1.1413
18124TIP3    H275788   5.931   0.842  15.162  1.5061 -0.1328 -1.0704
18125TIP3   OH275789   5.215   3.924  16.892  0.1348 -0.3141 -0.2055
18125TIP3    H175790   5.254   3.846  16.852  1.7212  1.1302 -1.6337
18125TIP3    H275791   5.280   3.992  16.880 -1.5245  1.4431  0.2749
18126TIP3   OH275792   6.132   3.978   1.179  0.0267 -0.6391  0.3406
18126TIP3    H175793   6.043   4.006   1.155  0.0523  0.2238  1.2041
18126TIP3    H275794   6.183   3.989   1.099  0.5569  4.0453  1.0416
18127TIP3   OH275795   6.176   0.357   6.245  0.0050  0.0825 -0.4832
18127TIP3    H175796   6.096   0.396   6.280  0.5378  0.5957  0.1872
18127TIP3    H275797   6.152   0.328   6.157 -0.9438  0.1329 -0.2530
18128TIP3   OH275798   6.581   4.191   0.638  0.1097 -0.3804  0.2272
18128TIP3    H175799   6.540   4.274   0.663 -0.1770 -0.5790  0.4300
18128TIP3    H275800   6.668   4.215   0.608  0.5347 -0.1307  1.5731
18129TIP3   OH275801   3.555   1.802   4.285 -0.5009  0.5129  0.1457
18129TIP3    H175802   3.641   1.832   4.256 -0.2460  0.8618  1.2268
18129TIP3    H275803   3.573   1.723   4.337 -0.8149  0.7011  0.5436
18130TIP3   OH275804   6.545   0.697   1.062  0.2068  0.3401 -0.1508
18130TIP3    H175805   6.495   0.627   1.104  0.7439  0.6287  0.9990
18130TIP3    H275806   6.554   0.668   0.971 -0.2515 -0.7102  0.1215
18131TIP3   OH275807   4.247   6.785  10.615 -0.2826  0.2029 -0.0123
18131TIP3    H175808   4.287   6.743  10.691 -1.2150 -1.2762 -0.2812
18131TIP3    H275809   4.171   6.730  10.595 -1.8926  2.3387 -0.1043
18132TIP3   OH275810   0.840   6.609  12.768 -0.2588 -0.1611  0.0297
18132TIP3    H175811   0.861   6.540  12.705 -0.3176 -1.0281  0.9385
18132TIP3    H275812   0.815   6.562  12.848 -0.9067  0.9035  0.4766
18133TIP3   OH275813   5.055   3.574   3.811  0.7102 -0.1265  0.4209
18133TIP3    H175814   5.096   3.522   3.879  0.3754 -0.9282  0.0155
18133TIP3    H275815   5.111   3.652   3.804  1.0073 -0.2567  1.2764
18134TIP3   OH275816   2.007   6.232  11.356  0.0365 -0.3415  0.2060
18134TIP3    H175817   1.931   6.174  11.348 -1.2375  1.3540 -0.6418
18134TIP3    H275818   2.041   6.240  11.266  0.4910 -0.1581  0.3912
18135TIP3   OH275819   2.276   5.899  15.409  0.1963  0.2002 -0.3958
18135TIP3    H175820   2.249   5.987  15.383 -2.4601 -0.1877  0.7028
18135TIP3    H275821   2.343   5.913  15.476 -0.8324  1.4684  0.4324
18136TIP3   OH275822   2.442   2.969   4.563 -0.2061  0.0955  0.5015
18136TIP3    H175823   2.375   2.983   4.630 -0.9922  0.5529 -0.3550
18136TIP3    H275824   2.439   3.049   4.509  1.8837  0.6968  1.1502
18137TIP3   OH275825   0.208   3.099  15.962  0.0331 -0.1333  0.3763
18137TIP3    H175826   0.126   3.115  15.915  1.2866 -0.1255 -1.9573
18137TIP3    H275827   0.244   3.186  15.977  0.8188 -0.1952 -0.9707
18138TIP3   OH275828   1.616   4.172   1.973  0.3653  0.2102  0.3936
18138TIP3    H175829   1.583   4.228   2.043 -2.2248  0.3332 -0.8414
18138TIP3    H275830   1.539   4.126   1.940  1.9661 -1.9800 -0.5274
18139TIP3   OH275831   1.013   3.203  11.628  0.7293 -0.6481 -0.7249
18139TIP3    H175832   0.918   3.208  11.616  0.5032 -0.1775  1.0671
18139TIP3    H275833   1.034   3.111  11.615 -0.5743 -1.5636  2.6075
18140TIP3   OH275834   0.085   0.067   3.089 -0.2385  0.3444 -0.0725
18140TIP3    H175835   0.129   0.100   3.010  0.9482  0.4705  0.6127
18140TIP3    H275836   0.156   0.055   3.152 -0.6833 -2.8163 -0.0235
18141TIP3   OH275837   2.974   3.710   2.775  0.0633  0.3120  0.4124
18141TIP3    H175838   2.941   3.674   2.857  0.7335 -0.7538  0.2315
18141TIP3    H275839   3.069   3.720   2.789 -0.0843  1.9291  0.4179
18142TIP3   OH275840   0.273   4.924  17.052 -0.7459  0.1139 -0.2548
18142TIP3    H175841   0.181   4.944  17.071 -0.0541  1.0964  2.4826
18142TIP3    H275842   0.270   4.836  17.015 -2.7203 -0.4774  1.1010
18143TIP3   OH275843   1.390   1.967   3.614  0.1742 -0.0926 -0.3203
18143TIP3    H175844   1.316   1.967   3.553  0.7359  1.0230 -1.0329
18143TIP3    H275845   1.392   2.055   3.650  2.1203  0.4259 -1.5520
18144TIP3   OH275846   4.363   0.433   4.975 -0.1188  0.1884 -0.3069
18144TIP3    H175847   4.426   0.362   4.987  0.3896  0.7028  0.1356
18144TIP3    H275848   4.278   0.393   4.994  0.1467 -0.3351 -0.1991
18145TIP3   OH275849   6.670   5.003  13.835 -0.0283 -0.3750  0.5205
18145TIP3    H175850   6.592   4.982  13.886 -0.5341 -0.4928 -0.2753
18145TIP3    H275851   6.693   5.092  13.861  0.9614 -1.1492  2.4659
18146TIP3   OH275852   5.630   2.244   3.571  0.3622 -0.3631  0.0065
18146TIP3    H175853   5.674   2.192   3.503 -1.8843 -0.8088 -1.2127
18146TIP3    H275854   5.648   2.335   3.547 -0.2910 -0.5203 -1.1501
18147TIP3   OH275855   5.297   3.309  16.393  0.1363 -0.1297  0.0221
18147TIP3    H175856   5.203   3.289  16.395 -0.3065  1.7610  1.8385
18147TIP3    H275857   5.336   3.234  16.349 -2.2492 -0.8273 -1.1223
18148TIP3   OH275858   0.914   3.636   1.932 -0.1359 -0.3785  0.0791
18148TIP3    H175859   0.969   3.648   1.854 -0.1996 -0.4124  0.0281
18148TIP3    H275860   0.826   3.661   1.903 -0.3886 -1.4998 -0.2046
18149TIP3   OH275861   1.851   5.011  14.662 -0.4068  0.2321 -0.0219
18149TIP3    H175862   1.804   4.984  14.582 -1.9796  0.7889  0.6658
18149TIP3    H275863   1.846   4.934  14.719  0.4009 -0.0434 -0.3158
18150TIP3   OH275864   5.575   3.320   4.018  0.0769 -0.0883 -0.0341
18150TIP3    H175865   5.635   3.368   4.075 -0.0890  0.1811 -0.0856
18150TIP3    H275866   5.546   3.384   3.954 -1.6499  0.2804  1.0395
18151TIP3   OH275867   1.826   2.764   4.636 -0.0138 -0.1703 -0.1103
18151TIP3    H175868   1.910   2.741   4.676 -0.3547  0.8337  1.2447
18151TIP3    H275869   1.793   2.682   4.601  1.0144 -0.7842  0.3071
18152TIP3   OH275870   4.272   5.840   0.849  0.0920  0.0709  0.5130
18152TIP3    H175871   4.258   5.855   0.756 -0.2099  1.3833  0.7462
18152TIP3    H275872   4.184   5.843   0.887  0.2451 -0.1144  0.8843
18153TIP3   OH275873   6.119   2.115  14.967 -0.1474 -0.2319 -0.2268
18153TIP3    H175874   6.069   2.034  14.965 -0.5219  0.0034 -1.6048
18153TIP3    H275875   6.146   2.129  14.876  1.9103 -0.0197  0.3769
18154TIP3   OH275876   0.330   4.471   0.111  0.3086  1.0885  0.3139
18154TIP3    H175877   0.360   4.382   0.126 -2.7081 -0.1954 -0.4300
18154TIP3    H275878   0.362   4.494   0.024 -0.6208 -0.1388 -0.3792
18155TIP3   OH275879   6.582   0.830  17.191 -0.3681  0.1549 -0.1866
18155TIP3    H175880   6.572   0.792  17.103 -1.6400  1.7160 -0.7543
18155TIP3    H275881   6.677   0.842  17.200  0.0421 -2.2897 -0.2938
18156TIP3   OH275882   6.070   0.202  12.887 -0.0500  0.3812 -0.0601
18156TIP3    H175883   6.085   0.295  12.871  0.9446  0.2470  0.0457
18156TIP3    H275884   6.158   0.165  12.898 -0.4717 -0.4270  0.6807
18157TIP3   OH275885   0.091   5.586   0.452 -0.6023  0.0032  0.5050
18157TIP3    H175886  -0.002   5.604   0.461 -0.5860 -0.4201  1.6243
18157TIP3    H275887   0.104   5.504   0.499  0.2787 -0.1173  0.0671
18158TIP3   OH275888   6.795   0.236   3.708  0.0181  0.1397 -0.5748
18158TIP3    H175889   6.730   0.221   3.776 -0.7798 -0.5040 -1.4487
18158TIP3    H275890   6.878   0.243   3.755 -0.4228 -0.8968  0.4047
18159TIP3   OH275891   3.889   1.642  14.247 -0.0629 -0.1532 -0.7593
18159TIP3    H175892   3.900   1.566  14.189  0.7421 -1.9154  1.5646
18159TIP3    H275893   3.794   1.652  14.254 -0.1785 -0.8074 -1.2468
18160TIP3   OH275894   3.922   2.359   0.345 -0.3247 -0.1021 -0.0430
18160TIP3    H175895   3.832   2.329   0.360 -0.1186 -0.3766  0.6701
18160TIP3    H275896   3.976   2.281   0.361  0.2358  0.6427  2.0111
18161TIP3   OH275897   1.215   1.729  15.883 -0.0435  0.2715 -0.3414
18161TIP3    H175898   1.169   1.776  15.813 -1.1486  1.8587  1.3625
18161TIP3    H275899   1.156   1.733  15.958  1.2740 -1.0083  0.8329
18162TIP3   OH275900   1.176   0.780  15.125 -0.2110  0.0658  0.4756
18162TIP3    H175901   1.115   0.843  15.086 -0.0285  0.3934  0.7148
18162TIP3    H275902   1.259   0.828  15.132  0.1258 -0.4265 -0.0095
18163TIP3   OH275903   0.746   5.324  16.235 -0.0654 -0.3222  0.8271
18163TIP3    H175904   0.691   5.392  16.273  1.4089  0.5415  1.4867
18163TIP3    H275905   0.705   5.242  16.263 -1.1813  0.2847  1.0390
18164TIP3   OH275906   6.506   3.084  16.649  0.2697  0.4747 -0.1391
18164TIP3    H175907   6.548   3.041  16.574 -0.4163 -0.8741  0.2217
18164TIP3    H275908   6.457   3.014  16.692  3.0491  0.4423  3.3813
18165TIP3   OH275909   3.426   3.207   1.231 -0.1111  0.2106  0.0457
18165TIP3    H175910   3.517   3.224   1.253 -0.0439  0.9862 -0.7893
18165TIP3    H275911   3.412   3.115   1.254  0.5342  0.4033  1.2980
18166TIP3   OH275912   5.594   3.984   4.536 -0.1267  0.1581 -0.2300
18166TIP3    H175913   5.522   3.944   4.487  0.4201  1.0373 -1.8547
18166TIP3    H275914   5.673   3.942   4.499  0.3671  1.6847 -0.9810
18167TIP3   OH275915   5.714   3.088  15.606 -0.1632 -0.1484 -0.0165
18167TIP3    H175916   5.795   3.069  15.558 -1.3810 -1.0877 -1.8283
18167TIP3    H275917   5.733   3.168  15.655  1.0828  1.1452 -2.4349
18168TIP3   OH275918   3.753   4.291  13.348  0.1068  0.4042  0.4346
18168TIP3    H175919   3.728   4.345  13.423 -0.0901  0.8378  0.0600
18168TIP3    H275920   3.836   4.251  13.374 -0.1952  0.1875  1.0656
18169TIP3   OH275921   1.501   0.226   0.276  0.4013  0.1826 -0.0705
18169TIP3    H175922   1.545   0.256   0.196  1.3019 -1.5127 -0.2699
18169TIP3    H275923   1.472   0.138   0.255  0.2202 -0.1089  1.3163
18170TIP3   OH275924   3.699   6.308  11.693 -0.2788  0.2922  0.3457
18170TIP3    H175925   3.780   6.325  11.644 -0.3454  1.8747  0.7468
18170TIP3    H275926   3.691   6.382  11.753 -1.7057 -0.1651  0.7501
18171TIP3   OH275927   1.694   3.479   1.609 -0.0362  0.1068  0.0075
18171TIP3    H175928   1.700   3.551   1.546  0.2410  0.1433  0.0737
18171TIP3    H275929   1.699   3.400   1.554 -0.5863  0.1346 -0.0876
18172TIP3   OH275930   6.752   5.246  13.882 -0.4583  0.3309 -0.5273
18172TIP3    H175931   6.769   5.294  13.962  0.4255 -0.0346 -0.4893
18172TIP3    H275932   6.678   5.292  13.841 -1.2966  0.1733  0.7627
18173TIP3   OH275933   4.814   4.959   5.131 -0.2805 -0.0942  0.4347
18173TIP3    H175934   4.810   5.018   5.207  0.5734 -0.6140  0.8971
18173TIP3    H275935   4.818   5.017   5.056 -1.3670  0.4364  0.7628
18174TIP3   OH275936   0.516   2.192  13.851 -0.4049  0.1497  0.6180
18174TIP3    H175937   0.606   2.222  13.856 -0.2365 -0.0485 -0.6911
18174TIP3    H275938   0.464   2.265  13.885  0.2713 -0.0657  2.1980
18175TIP3   OH275939   5.687   4.966   5.127  0.5701  0.0909  0.3150
18175TIP3    H175940   5.722   4.914   5.055 -0.1130 -1.0813  0.8064
18175TIP3    H275941   5.744   5.043   5.131 -0.9731  1.6958 -3.2845
18176TIP3   OH275942   3.810   1.115  11.814 -0.1148 -0.2768  0.1794
18176TIP3    H175943   3.884   1.138  11.870 -0.0828  1.3813 -0.5024
18176TIP3    H275944   3.844   1.124  11.725 -0.9406 -0.2116 -0.1342
18177TIP3   OH275945   3.655   6.079  13.745 -0.8298  0.4142  0.0425
18177TIP3    H175946   3.617   6.159  13.709  1.1502  1.5892  0.4487
18177TIP3    H275947   3.635   6.084  13.839  0.5340  1.2243  0.3224
18178TIP3   OH275948   3.534   5.704  12.741  0.5800 -0.7202 -0.0032
18178TIP3    H175949   3.526   5.761  12.665 -0.7540 -0.8441  0.0211
18178TIP3    H275950   3.588   5.753  12.802 -0.4698  0.5013 -0.0109
18179TIP3   OH275951   5.849   4.233  10.932  0.2845 -0.0560 -0.2532
18179TIP3    H175952   5.935   4.268  10.953 -0.3274  0.3446  1.7791
18179TIP3    H275953   5.859   4.138  10.940  0.7344 -0.0640 -0.8788
18180TIP3   OH275954   4.919   1.639   2.384  0.0857  0.2159 -0.1637
18180TIP3    H175955   4.895   1.562   2.334 -0.7063  1.2599 -1.4686
18180TIP3    H275956   4.907   1.712   2.323  0.4688  1.4048  1.1207
18181TIP3   OH275957   4.945   1.342  13.257 -0.5281  0.2648 -0.2361
18181TIP3    H175958   4.914   1.324  13.345  1.6795 -3.3195  0.0025
18181TIP3    H275959   4.993   1.425  13.265  0.6260 -0.5432  2.2701
18182TIP3   OH275960   6.193   5.247   3.331 -0.4162  0.1245 -0.2129
18182TIP3    H175961   6.264   5.196   3.292  0.3233 -0.1349  1.3621
18182TIP3    H275962   6.238   5.309   3.390 -1.4819  0.0582  0.6978
18183TIP3   OH275963   5.995   3.210  10.816 -0.2628  0.4682  0.2166
18183TIP3    H175964   5.969   3.209  10.909 -0.0474 -0.7811  0.2859
18183TIP3    H275965   5.930   3.154  10.773  0.8650 -0.7011 -0.0162
18184TIP3   OH275966   2.297   4.123  13.898  0.5075 -0.0178 -0.0299
18184TIP3    H175967   2.287   4.075  13.816  1.0734 -1.6787  0.8309
18184TIP3    H275968   2.294   4.216  13.872  1.2258 -0.4862 -1.9820
18185TIP3   OH275969   6.027   3.085  12.422  0.0474  0.4806 -0.2671
18185TIP3    H175970   6.025   3.179  12.439  1.4660  0.3042  1.0350
18185TIP3    H275971   6.082   3.076  12.344 -2.7797  0.9151 -2.5207
18186TIP3   OH275972   5.772   0.363  15.752  0.0918 -0.0075  0.7262
18186TIP3    H175973   5.698   0.406  15.710 -0.8459  0.3031  2.5856
18186TIP3    H275974   5.770   0.273  15.718  0.2981  0.5991 -0.9746
18187TIP3   OH275975   0.852   6.463  10.694 -0.2525  0.3102 -0.1232
18187TIP3    H175976   0.939   6.445  10.730  0.2437 -2.0200 -2.2235
18187TIP3    H275977   0.796   6.473  10.771  1.5995  0.5315  1.2723
18188TIP3   OH275978   2.978   4.988  16.076 -0.2391 -0.0648  0.3822
18188TIP3    H175979   3.065   4.982  16.036 -0.2532  0.7124  0.2279
18188TIP3    H275980   2.921   4.941  16.015 -0.0045 -0.2058  0.2676
18189TIP3   OH275981   1.808   3.695  11.031 -0.4518 -0.4576  0.0130
18189TIP3    H175982   1.744   3.624  11.022 -0.8025 -0.1433  0.0135
18189TIP3    H275983   1.855   3.676  11.112 -1.6676  0.2022  0.8992
18190TIP3   OH275984   1.894   2.836  13.372 -0.3464  0.1584  0.1001
18190TIP3    H175985   1.953   2.761  13.382  1.1598  1.2622 -0.1604
18190TIP3    H275986   1.808   2.803  13.399  0.8033 -0.8798  2.8652
18191TIP3   OH275987   6.380   0.689  16.060 -0.0163  0.2308  0.4909
18191TIP3    H175988   6.303   0.689  16.117  0.3027  1.6882  0.9830
18191TIP3    H275989   6.363   0.759  15.997  0.4027 -0.2134 -0.1321
18192TIP3   OH275990   1.706   6.453   1.547 -0.1523  0.1762  0.0597
18192TIP3    H175991   1.754   6.382   1.505 -0.2289  0.0513  0.1833
18192TIP3    H275992   1.676   6.416   1.630  0.3656  0.5532  0.4182
18193TIP3   OH275993   2.182   2.821   4.551  0.6081  0.1536  0.3559
18193TIP3    H175994   2.277   2.824   4.557  0.7345  2.2394 -1.3958
18193TIP3    H275995   2.164   2.828   4.457 -1.2884 -2.1271  0.4473
18194TIP3   OH275996   2.441   0.701   0.695  0.6222  0.0324  0.1979
18194TIP3    H175997   2.367   0.640   0.685 -1.8374  2.7329  0.7788
18194TIP3    H275998   2.491   0.689   0.614 -1.7751 -0.3031 -1.3773
18195TIP3   OH275999   3.050   3.010  13.469 -0.4092 -0.3947 -0.5158
18195TIP3    H176000   3.029   2.926  13.427  0.5524  0.3110 -2.5553
18195TIP3    H276001   3.044   3.074  13.398 -1.6208  1.3849  1.0894
18196TIP3   OH276002   5.576   4.592   5.812  0.0217 -0.2458 -0.4525
18196TIP3    H176003   5.526   4.596   5.731  1.0831  2.2182 -1.0941
18196TIP3    H276004   5.512   4.603   5.882 -0.6072  0.6229 -1.1466
18197TIP3   OH276005   0.430   3.271   4.262  0.8868  0.4691 -0.3968
18197TIP3    H176006   0.488   3.304   4.193  1.1397  1.5024  0.2827
18197TIP3    H276007   0.470   3.302   4.343 -0.4249  0.9071  0.1016
18198TIP3   OH276008   5.163   4.789  12.304  0.5997 -0.4268 -0.3465
18198TIP3    H176009   5.206   4.740  12.374  0.0210  0.9847  1.0625
18198TIP3    H276010   5.234   4.839  12.262  1.0159 -1.6105 -1.0891
18199TIP3   OH276011   3.286   1.963  15.937 -0.0769 -0.2153 -0.1395
18199TIP3    H176012   3.328   1.877  15.929 -0.2302 -0.2744 -0.3320
18199TIP3    H276013   3.268   1.973  16.030  0.7164 -0.0205  0.0032
18200TIP3   OH276014   2.940   5.735   5.912 -0.0078 -0.1453 -0.2940
18200TIP3    H176015   3.029   5.768   5.920  0.7360 -2.0258 -0.3496
18200TIP3    H276016   2.894   5.768   5.989  1.7007 -1.9901  1.6115
18201TIP3   OH276017   3.005   3.739   4.731  0.3847  0.0093 -0.5485
18201TIP3    H176018   2.943   3.694   4.787  0.2048 -0.1579 -0.8774
18201TIP3    H276019   3.091   3.717   4.767  0.3627 -1.5257 -1.3562
18202TIP3   OH276020   0.710   0.483  14.975 -0.1833 -0.0163 -0.3576
18202TIP3    H176021   0.753   0.566  14.998  0.7868 -0.5314 -0.2578
18202TIP3    H276022   0.633   0.480  15.031  0.5286  0.1730  0.6734
18203TIP3   OH276023   0.657   1.308  15.236  0.0590  0.0894  0.6160
18203TIP3    H176024   0.705   1.391  15.238  1.1638 -0.5092  0.1206
18203TIP3    H276025   0.596   1.318  15.163  0.3590  0.3818  0.3985
18204TIP3   OH276026   1.807   2.744   1.476 -0.3058 -0.2114 -0.4220
18204TIP3    H176027   1.898   2.718   1.459 -0.9601 -1.2690 -2.7922
18204TIP3    H276028   1.787   2.706   1.561  1.0401 -1.2416 -0.5194
18205TIP3   OH276029   2.386   1.473   6.427 -0.7955  1.0547 -0.0533
18205TIP3    H176030   2.302   1.518   6.421  0.2634  3.0650 -0.6714
18205TIP3    H276031   2.450   1.536   6.395  0.7835 -0.9929 -1.2287
18206TIP3   OH276032   1.035   4.732  13.829 -0.3453 -0.5166  0.1521
18206TIP3    H176033   0.951   4.710  13.871 -0.7252  1.1245  0.3045
18206TIP3    H276034   1.096   4.667  13.864 -1.1499 -0.5982  1.5016
18207TIP3   OH276035   6.255   3.150  15.208 -0.0978  0.0110 -0.3029
18207TIP3    H176036   6.203   3.072  15.187  2.5791 -1.0456 -3.9498
18207TIP3    H276037   6.220   3.218  15.150 -0.0550  0.5078  0.2414
18208TIP3   OH276038   0.814   3.957  11.599 -0.3720 -0.0447  0.2408
18208TIP3    H176039   0.876   3.906  11.547 -1.1173 -2.2528  1.3798
18208TIP3    H276040   0.746   3.983  11.536 -0.1337 -0.7241 -0.3112
18209TIP3   OH276041   1.465   5.642   5.018  0.6329  0.7576  0.4542
18209TIP3    H176042   1.382   5.684   4.993  1.6301  2.3452 -0.3403
18209TIP3    H276043   1.439   5.576   5.082 -1.2920  0.9523 -0.0438
18210TIP3   OH276044   1.561   5.330   3.299 -0.2949 -0.4396 -0.3529
18210TIP3    H176045   1.576   5.245   3.258  0.3580 -0.4652 -0.0682
18210TIP3    H276046   1.596   5.322   3.387 -1.7292 -0.3966  0.2537
18211TIP3   OH276047   5.642   4.096   1.261 -0.6958 -0.1613  0.1249
18211TIP3    H176048   5.695   4.175   1.272  0.8910 -1.2196  0.4660
18211TIP3    H276049   5.587   4.092   1.339 -0.0890  0.1116  0.5736
18212TIP3   OH276050   3.311   1.259   4.184  0.0220 -0.1918  0.3291
18212TIP3    H176051   3.288   1.254   4.277  0.3746 -0.8612  0.3909
18212TIP3    H276052   3.270   1.182   4.145 -0.0202  0.0204 -0.0518
18213TIP3   OH276053   0.505   5.082   3.951 -0.2528 -0.1690 -0.5298
18213TIP3    H176054   0.501   5.077   4.047 -1.0739  1.7297 -0.4155
18213TIP3    H276055   0.414   5.086   3.923 -0.0055 -0.1518 -1.3521
18214TIP3   OH276056   4.764   0.532   6.228  0.0477  0.1369 -0.2590
18214TIP3    H176057   4.757   0.460   6.291  0.8961  0.0183 -0.2970
18214TIP3    H276058   4.673   0.551   6.204 -0.1521 -1.4840 -0.8988
18215TIP3   OH276059   3.317   1.537  13.583 -0.1089 -0.7614  1.1004
18215TIP3    H176060   3.230   1.501  13.565 -1.9543  4.3534 -2.2640
18215TIP3    H276061   3.306   1.588  13.662 -0.3366  0.1591  0.4884
18216TIP3   OH276062   2.892   1.214  17.018  0.2482  0.2468 -0.0162
18216TIP3    H176063   2.822   1.265  17.058  0.2935 -1.1543  1.9586
18216TIP3    H276064   2.869   1.213  16.925 -2.2291  0.0719  0.5150
18217TIP3   OH276065   0.766   0.740  12.460 -0.5219  0.1391  0.7785
18217TIP3    H176066   0.776   0.727  12.366  0.1745 -0.0076  0.8711
18217TIP3    H276067   0.830   0.681  12.499 -1.8303 -0.9230  1.3958
18218TIP3   OH276068   3.243   4.829  13.792  0.0740  0.3190 -0.1727
18218TIP3    H176069   3.334   4.850  13.770 -0.1139  2.7524  0.9899
18218TIP3    H276070   3.192   4.867  13.721 -0.0878  0.1890 -0.1244
18219TIP3   OH276071   0.252   4.816  11.066 -0.1434  0.1763 -0.2839
18219TIP3    H176072   0.166   4.775  11.054 -0.8159  0.5390  2.6960
18219TIP3    H276073   0.251   4.892  11.008 -2.4955  1.0937  0.8753
18220TIP3   OH276074   2.497   3.343  17.106  0.0964 -0.2563  0.1521
18220TIP3    H176075   2.511   3.264  17.054  0.8838 -0.2924  0.4016
18220TIP3    H276076   2.468   3.408  17.042 -1.6116 -1.0092  0.1086
18221TIP3   OH276077   6.456   2.561  16.334 -0.1236 -0.0740 -0.8457
18221TIP3    H176078   6.380   2.524  16.379  0.2017  0.5081  0.2004
18221TIP3    H276079   6.512   2.486  16.316 -0.7532 -0.4531 -1.2583
18222TIP3   OH276080   5.094   2.307  11.664 -0.4555  0.0576 -1.0023
18222TIP3    H176081   5.028   2.285  11.730  1.0050 -1.0168  0.1684
18222TIP3    H276082   5.086   2.402  11.653 -1.5631  0.0787 -0.2191
18223TIP3   OH276083   6.497   5.680   4.133 -0.4318 -0.4073 -0.4887
18223TIP3    H176084   6.550   5.756   4.110 -0.5810 -0.9026 -2.6401
18223TIP3    H276085   6.545   5.638   4.205  1.4634 -0.1620 -1.5501
18224TIP3   OH276086   2.732   3.986   0.522 -0.2632  0.2312  0.9838
18224TIP3    H176087   2.677   4.000   0.599  0.7465 -1.4322  2.0668
18224TIP3    H276088   2.765   4.073   0.501 -1.0290  0.8162  2.0484
18225TIP3   OH276089   3.413   2.341   3.410  0.0220  0.2424  0.3399
18225TIP3    H176090   3.462   2.351   3.492 -0.7312 -1.8608  1.1159
18225TIP3    H276091   3.465   2.279   3.359 -1.1615 -1.0663  0.6671
18226TIP3   OH276092   6.120   1.380   2.337  0.7872 -0.5511  0.4218
18226TIP3    H176093   6.149   1.295   2.304  2.1365  0.7509 -1.9819
18226TIP3    H276094   6.197   1.437   2.329 -0.3501  1.1418  1.0017
18227TIP3   OH276095   0.851   6.495   3.410  0.0231 -0.6189  0.0863
18227TIP3    H176096   0.941   6.468   3.389  0.6564  1.6385 -0.3126
18227TIP3    H276097   0.862   6.577   3.459 -1.7314 -1.7527  2.6216
18228TIP3   OH276098   2.862   2.393   6.411  0.5882 -0.1357  0.0596
18228TIP3    H176099   2.908   2.388   6.328  2.5273 -1.3795  1.1295
18228TIP3    H276100   2.858   2.486   6.431  1.8781  0.0618 -0.5019
18229TIP3   OH276101   3.382   6.634   4.535  0.0544 -0.2946 -0.0026
18229TIP3    H176102   3.311   6.637   4.471 -0.5056 -1.3437  0.5464
18229TIP3    H276103   3.443   6.703   4.507  0.2900 -1.3315 -2.2076
18230TIP3   OH276104   3.104   5.678   0.375  0.8206  0.3135  0.2663
18230TIP3    H176105   3.109   5.693   0.281 -0.5573  2.0476  0.4237
18230TIP3    H276106   3.018   5.638   0.388  1.9284 -2.1714  0.5936
18231TIP3   OH276107   5.577   2.003   2.604 -0.5422  0.3701 -0.1291
18231TIP3    H176108   5.597   2.045   2.520  0.2847  2.5215  1.0568
18231TIP3    H276109   5.543   1.917   2.580 -1.8486  1.4869 -2.7219
18232TIP3   OH276110   3.376   3.285   1.688  0.0469  0.5354  0.2290
18232TIP3    H176111   3.365   3.200   1.646 -0.6955  0.5044  0.4661
18232TIP3    H276112   3.338   3.348   1.626  0.4560  0.6776  0.1210
18233TIP3   OH276113   0.716   6.267  12.090  0.3130 -0.3487  0.2834
18233TIP3    H176114   0.770   6.329  12.040  0.4090  0.3084  1.1832
18233TIP3    H276115   0.760   6.183  12.080  0.1212 -0.3140 -1.0482
18234TIP3   OH276116   4.057   2.169   4.015  0.5642  0.5897  0.1938
18234TIP3    H176117   4.088   2.246   4.062  0.8582  0.7648 -0.2709
18234TIP3    H276118   3.971   2.150   4.052  0.5117  1.1164  0.3376
18235TIP3   OH276119   1.269   6.687   3.023  0.2240 -0.7522 -0.5537
18235TIP3    H176120   1.362   6.710   3.026 -0.5309  2.9503 -1.0587
18235TIP3    H276121   1.231   6.732   3.098 -1.5529  0.1586 -1.9368
18236TIP3   OH276122   6.305   0.574   5.440  0.5566  0.1377 -0.0542
18236TIP3    H176123   6.221   0.620   5.432  0.5691  0.5120  1.6098
18236TIP3    H276124   6.284   0.483   5.417 -0.9848 -0.3760  2.8407
18237TIP3   OH276125   5.123   1.772  14.170  0.2702 -0.5179 -0.9996
18237TIP3    H176126   5.088   1.713  14.235  1.7698 -1.2934 -0.8432
18237TIP3    H276127   5.202   1.808  14.210  0.8524 -0.4921 -2.1140
18238TIP3   OH276128   5.371   2.908  14.859  0.1273  0.6057  0.1503
18238TIP3    H176129   5.429   2.944  14.926  2.0296 -2.2428  0.2078
18238TIP3    H276130   5.429   2.885  14.786 -1.3440  0.2323 -0.9591
18239TIP3   OH276131   0.709   5.918   0.975  0.0786  0.1115  0.4422
18239TIP3    H176132   0.693   5.951   1.064 -1.0358 -0.0674  0.3202
18239TIP3    H276133   0.643   5.850   0.963  1.0146 -0.7139 -0.0861
18240TIP3   OH276134   6.581   2.792   4.134  0.2533  0.5184 -0.2740
18240TIP3    H176135   6.580   2.857   4.203  0.1948  0.3125 -0.0798
18240TIP3    H276136   6.507   2.734   4.154  0.6367  0.0721 -0.1375
18241TIP3   OH276137   4.501   3.811   3.548 -0.9238  0.2653 -0.0762
18241TIP3    H176138   4.536   3.735   3.593 -1.4596  0.0962  0.0600
18241TIP3    H276139   4.579   3.863   3.525 -0.4474 -0.8825 -1.2146
18242TIP3   OH276140   2.938   0.858  10.633  0.1910  0.3715  0.2549
18242TIP3    H176141   2.999   0.829  10.565  1.4330  2.8392  0.2027
18242TIP3    H276142   2.971   0.817  10.713  0.0466 -0.7587 -0.2382
18243TIP3   OH276143   0.188   5.829  13.392  0.3296  1.0997 -0.0917
18243TIP3    H176144   0.109   5.868  13.431  0.2858  0.8138  0.1160
18243TIP3    H276145   0.171   5.828  13.298 -0.1354  0.5657 -0.0040
18244TIP3   OH276146   4.269   3.436  16.364  0.7945 -0.5416 -0.0809
18244TIP3    H176147   4.364   3.424  16.374  0.9308  0.2421 -0.3054
18244TIP3    H276148   4.242   3.478  16.446  0.9644  0.8461 -0.6949
18245TIP3   OH276149   2.899   5.825  15.957 -0.2500  0.0507  0.1400
18245TIP3    H176150   2.941   5.741  15.973  1.6477  0.4298 -2.3235
18245TIP3    H276151   2.815   5.802  15.918  0.2297 -0.7036 -0.4742
18246TIP3   OH276152   4.572   4.149   4.943  0.5213 -0.2629 -0.2826
18246TIP3    H176153   4.554   4.187   5.029  2.5134 -1.1017  0.5502
18246TIP3    H276154   4.643   4.204   4.908  0.3085 -0.4588 -1.0233
18247TIP3   OH276155   4.308   4.903  17.004  0.4790  0.1254  0.5255
18247TIP3    H176156   4.310   4.967  16.933  1.1447 -1.8157 -1.3467
18247TIP3    H276157   4.216   4.892  17.025  0.3115  1.1239  0.3547
18248TIP3   OH276158   2.667   0.666   5.095  0.4913 -0.1630 -0.5271
18248TIP3    H176159   2.696   0.583   5.134  0.7644  0.1396 -0.0862
18248TIP3    H276160   2.638   0.641   5.007  1.4119 -0.5882 -0.7265
18249TIP3   OH276161   5.040   0.577  12.040  0.6740  0.2691  0.9651
18249TIP3    H176162   4.977   0.534  12.096  1.0172  0.7050  1.7093
18249TIP3    H276163   4.988   0.618  11.971  0.2502 -0.2931  0.9505
18250TIP3   OH276164   2.299   2.952   0.553 -0.6514 -0.1739  0.3527
18250TIP3    H176165   2.294   2.931   0.460  0.5873 -1.0796  0.4629
18250TIP3    H276166   2.265   3.041   0.560 -0.6923 -0.0734 -0.9747
18251TIP3   OH276167   3.525   0.389   2.446  0.3760  0.1266  0.5035
18251TIP3    H176168   3.460   0.453   2.476  0.7377  0.9530 -0.4103
18251TIP3    H276169   3.496   0.366   2.357  0.6270 -0.4702  0.5742
18252TIP3   OH276170   3.143   3.633   2.399 -0.4004 -0.0639 -0.2712
18252TIP3    H176171   3.118   3.560   2.343  1.2768 -1.0039  0.1456
18252TIP3    H276172   3.073   3.638   2.465 -0.8054 -0.9313 -0.6196
18253TIP3   OH276173   4.793   2.564  11.038 -0.0579  0.3410  0.2357
18253TIP3    H176174   4.808   2.591  10.948  0.7459 -0.9565 -0.0461
18253TIP3    H276175   4.711   2.515  11.036 -0.3581  0.8392  0.3262
18254TIP3   OH276176   6.545   4.389  15.269  0.0296  0.3616 -0.4707
18254TIP3    H176177   6.555   4.446  15.345  1.8951  2.2529 -2.0277
18254TIP3    H276178   6.613   4.322  15.280  0.3170  0.6500 -0.4866
18255TIP3   OH276179   0.187   6.364  13.627  0.0522  0.2287  0.2303
18255TIP3    H176180   0.246   6.317  13.568  1.3127 -0.7945  2.2063
18255TIP3    H276181   0.163   6.442  13.579 -0.1193 -1.2149 -2.1955
18256TIP3   OH276182   4.616   6.040  16.938  0.4460  0.1757  0.3057
18256TIP3    H176183   4.683   5.980  16.971 -1.7727 -2.4154  0.4381
18256TIP3    H276184   4.564   6.063  17.015 -2.0648 -2.3446 -0.4620
18257TIP3   OH276185   2.508   1.843  14.540 -0.3053  0.0585 -0.2034
18257TIP3    H176186   2.518   1.891  14.623  0.3388 -2.4065  1.2610
18257TIP3    H276187   2.413   1.835  14.529 -0.3989  0.4873  0.2343
18258TIP3   OH276188   4.889   5.766  11.963  0.2387  0.2806 -0.5555
18258TIP3    H176189   4.794   5.763  11.947  0.4146  0.1432 -1.6847
18258TIP3    H276190   4.916   5.674  11.959  0.1745  0.1257  1.5522
18259TIP3   OH276191   1.674   0.720  13.045 -0.1750 -0.1870  0.1456
18259TIP3    H176192   1.601   0.664  13.019 -1.5420  2.5357 -2.4857
18259TIP3    H276193   1.639   0.809  13.042  2.9782  1.1806 -0.3643
18260TIP3   OH276194   0.383   2.530   1.946 -0.4949  0.5856  0.4657
18260TIP3    H176195   0.445   2.588   1.903 -1.0651  0.6381 -0.3152
18260TIP3    H276196   0.325   2.590   1.994  0.8504  0.4637  2.3144
18261TIP3   OH276197   1.425   0.646  12.726  0.2203  0.4144  0.2844
18261TIP3    H176198   1.344   0.689  12.752  0.0853 -0.3106  1.1229
18261TIP3    H276199   1.458   0.606  12.806 -0.7895 -2.8874 -0.7800
18262TIP3   OH276200   6.105   2.394   3.432  0.3370  0.2681 -0.2600
18262TIP3    H176201   6.067   2.314   3.396 -2.1815  1.6343 -0.8904
18262TIP3    H276202   6.175   2.416   3.371 -0.5777 -0.1536 -1.5114
18263TIP3   OH276203   2.259   4.611  11.169  0.0042  0.5738 -0.3736
18263TIP3    H176204   2.254   4.672  11.095  3.1529  0.0267 -1.2135
18263TIP3    H276205   2.288   4.666  11.242  0.3120  0.5412 -0.4685
18264TIP3   OH276206   1.201   2.808   1.861  0.1406 -0.0047  0.1893
18264TIP3    H176207   1.275   2.760   1.824  1.2941  0.2272  2.0379
18264TIP3    H276208   1.213   2.898   1.828  0.2880 -0.1199 -0.0778
18265TIP3   OH276209   5.504   1.073   2.350 -0.0988  0.5784 -0.6244
18265TIP3    H176210   5.442   1.008   2.319 -0.4836  1.0173 -0.7795
18265TIP3    H276211   5.522   1.127   2.273 -0.6219  1.3246 -0.2263
18266TIP3   OH276212   5.162   1.079  16.657  0.4687 -0.2368  0.1192
18266TIP3    H176213   5.100   1.143  16.622  0.0233 -0.6661  0.1125
18266TIP3    H276214   5.122   0.994  16.639  1.4774 -0.5650 -0.6808
18267TIP3   OH276215   0.044   0.202  15.978  0.4857  0.0500  0.0963
18267TIP3    H176216   0.029   0.174  16.068  2.5331  0.4947  0.6317
18267TIP3    H276217   0.106   0.275  15.986 -0.1010  0.7835 -1.6156
18268TIP3   OH276218   1.735   0.307   2.865  0.1009 -0.6396 -0.1862
18268TIP3    H176219   1.708   0.311   2.773 -1.6981  0.7555  0.3300
18268TIP3    H276220   1.815   0.254   2.865  0.1872 -0.6072 -2.5467
18269TIP3   OH276221   6.572   0.871   5.999 -0.0382 -0.3388 -0.2567
18269TIP3    H176222   6.555   0.966   6.002  2.4522  0.2137 -1.2510
18269TIP3    H276223   6.656   0.860   6.043 -0.1426 -2.0613 -0.4319
18270TIP3   OH276224   0.404   3.261  12.765 -0.8085 -0.3293  0.0074
18270TIP3    H176225   0.350   3.302  12.832 -1.2010 -0.3049 -0.3153
18270TIP3    H276226   0.401   3.322  12.691  0.1172 -0.0614  0.1714
18271TIP3   OH276227   2.187   3.107  16.575 -0.1008 -0.0341  0.9902
18271TIP3    H176228   2.114   3.159  16.540 -0.2374 -0.3269  0.8370
18271TIP3    H276229   2.151   3.020  16.586  0.1371 -0.1045  1.2251
18272TIP3   OH276230   3.094   0.044  11.855  0.7294  0.0326  0.1497
18272TIP3    H176231   3.084   0.067  11.763  0.8277  1.6128  0.4929
18272TIP3    H276232   3.125  -0.046  11.855 -0.1336 -0.2903 -1.3242
18273TIP3   OH276233   1.034   0.413  10.938  0.2523 -0.9048 -0.0622
18273TIP3    H176234   1.067   0.502  10.940  2.8807 -1.7994  1.9189
18273TIP3    H276235   0.955   0.418  10.884  0.0094  2.6549  0.3942
18274TIP3   OH276236   6.156   5.963   0.895 -0.2673 -0.0664 -0.3875
18274TIP3    H176237   6.218   5.993   0.960 -0.5252 -0.5169  0.0746
18274TIP3    H276238   6.200   5.976   0.811  0.7127 -1.0137 -0.0262
18275TIP3   OH276239   3.295   3.330  16.449 -0.6822 -0.8159 -0.2354
18275TIP3    H176240   3.261   3.392  16.513  0.8117  1.4748 -1.5165
18275TIP3    H276241   3.230   3.331  16.378 -0.2533  0.0189 -0.6369
18276TIP3   OH276242   3.999   5.411   0.129 -0.3271  0.1191 -0.3238
18276TIP3    H176243   3.906   5.430   0.118  0.0639  1.6627 -1.2725
18276TIP3    H276244   4.005   5.365   0.212 -1.6526  2.2983  1.0744
18277TIP3   OH276245   3.642   1.623   1.050 -0.4341  0.3265 -0.4255
18277TIP3    H176246   3.628   1.532   1.076  0.2551  0.5996  0.9888
18277TIP3    H276247   3.733   1.626   1.021 -0.2144  0.7193  0.2843
18278TIP3   OH276248   0.290   3.800  15.886 -0.0473  0.6062 -0.4113
18278TIP3    H176249   0.335   3.884  15.876  2.7575 -0.6937  0.2170
18278TIP3    H276250   0.332   3.743  15.822 -0.9365 -0.6696  0.1056
18279TIP3   OH276251   4.114   2.833   4.670 -0.4902  0.4668 -0.2570
18279TIP3    H176252   4.044   2.812   4.608 -0.4807 -0.2955 -0.0280
18279TIP3    H276253   4.078   2.905   4.723 -1.3148 -0.2342  0.1764
18280TIP3   OH276254   2.966   5.085  15.677  0.2251 -0.4726 -0.0376
18280TIP3    H176255   3.013   5.123  15.602 -0.0312 -0.2963 -0.1112
18280TIP3    H276256   3.032   5.081  15.747  0.1152  0.6424  0.1461
18281TIP3   OH276257   3.048   1.498  13.624  0.3288  0.3053 -0.1905
18281TIP3    H176258   2.978   1.563  13.632  1.0443  1.0265  0.4914
18281TIP3    H276259   3.010   1.418  13.659  0.0856  0.8956  0.9751
18282TIP3   OH276260   0.495   5.296  14.602  0.0159 -0.4953  0.0839
18282TIP3    H176261   0.527   5.383  14.624  1.6494 -0.8615 -0.6740
18282TIP3    H276262   0.542   5.237  14.661 -0.0044 -0.9704 -0.3666
18283TIP3   OH276263   2.995   5.612   2.008 -0.0278  0.6873  0.0852
18283TIP3    H176264   2.997   5.691   2.062 -1.1261  1.0925 -0.4468
18283TIP3    H276265   2.918   5.622   1.953 -0.7343 -1.2098  0.6609
18284TIP3   OH276266   2.564   3.537   5.999  0.1028 -0.2349  0.2201
18284TIP3    H176267   2.489   3.485   5.970 -0.3882 -0.9661  2.5350
18284TIP3    H276268   2.553   3.543   6.094  3.5916 -1.4101  0.8342
18285TIP3   OH276269   0.570   6.785  13.359 -0.3912  0.4198  0.2416
18285TIP3    H176270   0.515   6.835  13.419 -0.3078 -0.8943  1.4749
18285TIP3    H276271   0.652   6.834  13.355 -0.8003  1.1173  0.2849
18286TIP3   OH276272   0.055   0.013   4.949  0.0634  0.3105 -0.5582
18286TIP3    H176273   0.065   0.062   4.867  3.2157  2.6406  1.0025
18286TIP3    H276274  -0.026   0.046   4.987 -1.4848 -0.8483 -2.6230
18287TIP3   OH276275   1.038   3.096   4.962 -0.3544  0.4065 -0.1432
18287TIP3    H176276   1.089   3.110   5.042 -0.7729  0.3176  0.1456
18287TIP3    H276277   1.103   3.081   4.894  0.0999  2.4308 -0.2234
18288TIP3   OH276278   0.210   5.405  11.897 -0.5201  0.8357 -0.2624
18288TIP3    H176279   0.264   5.337  11.935 -0.0834  1.9884  1.2572
18288TIP3    H276280   0.267   5.450  11.834 -0.0928  1.2507  0.4175
18289TIP3   OH276281   6.278   0.697  12.703  0.8769 -0.2303  0.1473
18289TIP3    H176282   6.349   0.718  12.642 -1.6651  0.4409 -2.8485
18289TIP3    H276283   6.241   0.782  12.728  1.8700 -0.4792  2.8214
18290TIP3   OH276284   1.010   6.545  10.999  0.0919  0.9165  0.2874
18290TIP3    H176285   1.056   6.621  10.963  1.4054 -0.3649 -0.8653
18290TIP3    H276286   1.054   6.470  10.961 -3.0740 -0.4640 -1.0607
18291TIP3   OH276287   2.818   1.125  12.121  0.1031 -0.4477 -0.1328
18291TIP3    H176288   2.826   1.134  12.216  0.1204  0.5455 -0.2102
18291TIP3    H276289   2.850   1.209  12.087  0.1547 -0.8169 -1.0199
18292TIP3   OH276290   1.530   1.077   0.216 -0.5701 -0.0492  0.1948
18292TIP3    H176291   1.495   1.081   0.127 -1.0151 -1.5547  0.2885
18292TIP3    H276292   1.472   1.134   0.267 -0.4809  0.6006 -0.4047
18293TIP3   OH276293   6.134   6.798   0.780  0.4478 -0.4303 -0.7957
18293TIP3    H176294   6.079   6.725   0.806 -0.5812  0.2064 -1.1075
18293TIP3    H276295   6.152   6.783   0.687 -0.7964  0.3109 -1.1897
18294TIP3   OH276296   6.285   6.379   6.224 -0.3057  0.8523 -0.5741
18294TIP3    H176297   6.324   6.451   6.174 -0.5103  0.3790 -1.4246
18294TIP3    H276298   6.359   6.322   6.246 -0.3577  0.5387 -1.2107
18295TIP3   OH276299   1.305   3.566   6.378  0.0818  0.5739 -0.4325
18295TIP3    H176300   1.211   3.588   6.372 -0.0525 -0.1157 -1.0302
18295TIP3    H276301   1.349   3.638   6.333 -0.3577 -0.3091 -2.3927
18296TIP3   OH276302   4.922   1.957  16.582  0.0049 -0.3925 -0.1729
18296TIP3    H176303   5.008   1.916  16.587 -0.3126 -1.0935 -0.3139
18296TIP3    H276304   4.861   1.883  16.573 -0.4544  0.1675 -2.2646
18297TIP3   OH276305   3.998   2.641   5.309  0.2455 -0.0796  0.5330
18297TIP3    H176306   4.028   2.690   5.233 -1.6820 -0.2416 -0.4166
18297TIP3    H276307   3.987   2.707   5.378  1.0178  0.2426  0.3508
18298TIP3   OH276308   2.050   2.942   3.107  0.3720 -0.2947  0.4469
18298TIP3    H176309   1.957   2.965   3.105  0.3873  0.1890  2.7517
18298TIP3    H276310   2.080   2.960   3.018 -1.3402  1.3580  0.1169
18299TIP3   OH276311   4.700   6.371  16.871 -0.1929 -0.8651  0.3037
18299TIP3    H176312   4.709   6.466  16.866  0.1341 -0.8868  0.4571
18299TIP3    H276313   4.606   6.356  16.866 -0.2378 -0.5425  0.1301
18300TIP3   OH276314   6.356   5.679  15.602  0.0294  1.2187  0.8190
18300TIP3    H176315   6.418   5.618  15.643 -0.5327  0.1236  0.0877
18300TIP3    H276316   6.409   5.755  15.579  1.2470  0.0884 -0.2987
18301TIP3   OH276317   5.228   5.217  16.293  0.2065  0.1631 -0.0625
18301TIP3    H176318   5.136   5.239  16.290 -0.7988 -3.4248 -0.8279
18301TIP3    H276319   5.260   5.234  16.204 -0.0882  0.0799 -0.1861
18302TIP3   OH276320   3.769   2.364   4.874  0.2695 -0.1072  0.0260
18302TIP3    H176321   3.710   2.350   4.948 -0.6901  0.0860 -0.6647
18302TIP3    H276322   3.744   2.296   4.811  2.8504 -1.9704  0.8656
18303TIP3   OH276323   6.438   2.031   3.207 -0.4084  0.5363 -0.1802
18303TIP3    H176324   6.363   1.999   3.257 -1.2001  0.8401 -1.1306
18303TIP3    H276325   6.507   1.967   3.223 -1.4063 -0.7047 -0.6345
18304TIP3   OH276326   3.150   3.851   0.294  0.0516 -0.1963  0.5964
18304TIP3    H176327   3.093   3.893   0.359  0.7195 -2.3393  2.7003
18304TIP3    H276328   3.102   3.860   0.212 -1.7988  0.8755  1.7046
18305TIP3   OH276329   3.777   2.269  10.934 -0.2286  0.1095 -0.5727
18305TIP3    H176330   3.690   2.290  10.899 -1.3781  1.1339  2.6122
18305TIP3    H276331   3.831   2.345  10.910 -1.6097  1.9423  1.6541
18306TIP3   OH276332   5.397   4.628  15.927  0.0313  0.2661  0.4431
18306TIP3    H176333   5.381   4.544  15.883 -0.2016  0.7971 -0.5115
18306TIP3    H276334   5.488   4.648  15.909 -0.4723  1.2678 -1.2385
18307TIP3   OH276335   1.941   3.019  12.603  0.4159  0.1199  0.2373
18307TIP3    H176336   1.850   3.010  12.632  0.8413 -1.6412  1.1458
18307TIP3    H276337   1.948   2.963  12.526  1.0807 -1.0057  1.0827
18308TIP3   OH276338   1.599   0.516  14.829  0.4571 -0.2114 -0.1361
18308TIP3    H176339   1.562   0.604  14.836 -0.2226 -0.3862 -1.1661
18308TIP3    H276340   1.596   0.497  14.735 -2.1705 -2.4547  0.2596
18309TIP3   OH276341   1.932   6.591  16.720  0.1892  0.3592 -0.3900
18309TIP3    H176342   1.851   6.632  16.751  0.2575 -0.1332  0.4715
18309TIP3    H276343   1.930   6.502  16.756 -0.1953 -0.6215 -2.6097
18310TIP3   OH276344   3.295   1.459  15.198 -0.1226 -0.1957  0.9096
18310TIP3    H176345   3.283   1.553  15.188  2.0091  0.0388  0.1784
18310TIP3    H276346   3.378   1.450  15.246  0.4279 -1.7112 -0.2586
18311TIP3   OH276347   2.359   5.235   6.468  0.0109 -0.2199 -0.3602
18311TIP3    H176348   2.450   5.207   6.469 -0.1173 -0.6466 -0.6302
18311TIP3    H276349   2.360   5.317   6.418  0.3869  0.2870  0.4616
18312TIP3   OH276350   3.485   5.323  11.427 -0.4305 -0.5177  0.8719
18312TIP3    H176351   3.572   5.360  11.413 -1.0347  1.6409  2.2545
18312TIP3    H276352   3.457   5.294  11.340  1.7631 -1.5788  0.4636
18313TIP3   OH276353   5.709   4.109  12.388 -0.0684 -0.2183  0.2783
18313TIP3    H176354   5.707   4.047  12.315 -0.1952  1.5906 -1.3245
18313TIP3    H276355   5.762   4.182  12.356 -0.2790  0.7084  1.9406
18314TIP3   OH276356   2.416   5.937  13.720  0.1607 -0.2468 -0.1884
18314TIP3    H176357   2.363   5.958  13.797  0.9038 -0.6186  0.4370
18314TIP3    H276358   2.365   5.970  13.646 -1.6330 -1.8505  0.2630
18315TIP3   OH276359   4.139   1.455  15.277  0.0578 -0.0260  0.2245
18315TIP3    H176360   4.164   1.382  15.220 -0.3859  0.3275 -0.4365
18315TIP3    H276361   4.115   1.414  15.360 -0.2281 -0.6369 -0.1530
18316TIP3   OH276362   1.996   5.083  13.016 -0.2157 -0.0065 -0.5362
18316TIP3    H176363   2.077   5.104  12.968 -0.0315 -0.0464 -0.2457
18316TIP3    H276364   2.006   4.991  13.040  0.6072  0.5135  1.3213
18317TIP3   OH276365   3.243   6.445  15.326 -0.4331  0.0233 -0.2423
18317TIP3    H176366   3.168   6.436  15.267 -1.1215  0.0266  0.6291
18317TIP3    H276367   3.205   6.455  15.413  0.5706  0.4045  0.1644
18318TIP3   OH276368   3.068   0.628  15.501 -0.1614  0.2280  0.1214
18318TIP3    H176369   3.060   0.544  15.547 -1.9740  0.4697  0.3191
18318TIP3    H276370   3.099   0.689  15.567 -0.1885  0.0095  0.3361
18319TIP3   OH276371   6.735   6.812  12.624 -0.4604 -0.9169 -0.7814
18319TIP3    H176372   6.802   6.754  12.659 -0.0589 -2.1608 -3.4403
18319TIP3    H276373   6.659   6.756  12.610 -2.1111  0.3964  1.8575
18320TIP3   OH276374   4.461   0.714   2.690 -0.2762  0.7330 -0.4460
18320TIP3    H176375   4.368   0.726   2.705  0.0709  1.6986  1.1453
18320TIP3    H276376   4.491   0.658   2.761  0.3187  0.1712 -1.1147
18321TIP3   OH276377   5.681   5.176   4.284  0.0601 -0.2110  0.5217
18321TIP3    H176378   5.722   5.252   4.324 -1.5744  1.3890 -0.6716
18321TIP3    H276379   5.741   5.150   4.214 -0.4928  1.6154 -0.7054
18322TIP3   OH276380   5.484   5.155  12.087 -0.5940  0.1769  0.3033
18322TIP3    H176381   5.559   5.197  12.131 -1.5859  1.7454  0.5722
18322TIP3    H276382   5.501   5.062  12.095  1.1936  0.4852  0.6221
18323TIP3   OH276383   3.220   4.202  16.058  0.0729 -0.0334 -0.2129
18323TIP3    H176384   3.248   4.293  16.052  2.2877 -0.6793 -0.5966
18323TIP3    H276385   3.275   4.165  16.128  0.2841 -1.4172 -1.0773
18324TIP3   OH276386   3.288   2.647  16.518 -0.4318 -0.4682  0.1207
18324TIP3    H176387   3.303   2.723  16.574  0.4250 -1.1830  0.9014
18324TIP3    H276388   3.324   2.573  16.568 -2.5548 -1.6298  0.0790
18325TIP3   OH276389   5.071   0.744  15.675  0.3111  0.2395 -0.5760
18325TIP3    H176390   5.003   0.812  15.666  1.1159  1.3815  1.3741
18325TIP3    H276391   5.138   0.769  15.612  0.7832  1.5529  0.3987
18326TIP3   OH276392   3.352   4.771   0.227 -0.1186 -0.5106  0.3375
18326TIP3    H176393   3.345   4.679   0.249  0.6662 -0.6609 -0.0131
18326TIP3    H276394   3.316   4.817   0.303 -1.3235 -1.1171  0.1584
18327TIP3   OH276395   2.498   1.389   5.185  0.8407 -0.4036  0.0677
18327TIP3    H176396   2.457   1.416   5.102  1.8452  0.9951 -0.0165
18327TIP3    H276397   2.456   1.306   5.206 -0.7440  0.0915 -0.9146
18328TIP3   OH276398   1.283   1.754   6.364  0.0973  0.1843  0.2048
18328TIP3    H176399   1.193   1.724   6.348 -0.0775  0.4357  0.6904
18328TIP3    H276400   1.276   1.810   6.441  0.5007  1.1017 -0.4106
18329TIP3   OH276401   2.542   0.021  13.812  0.6216 -0.4426  0.2488
18329TIP3    H176402   2.619   0.078  13.807 -1.3353  2.3525 -0.1879
18329TIP3    H276403   2.560  -0.050  13.751  3.2964 -0.5610  1.0276
18330TIP3   OH276404   0.323   5.429  14.968  0.4568 -0.9865  0.4431
18330TIP3    H176405   0.380   5.446  15.043  0.2129 -3.2932  1.2200
18330TIP3    H276406   0.350   5.343  14.937 -0.2732 -0.5943 -1.3850
18331TIP3   OH276407   2.457   5.758   2.351  0.5968 -0.3410 -0.0192
18331TIP3    H176408   2.395   5.795   2.288  0.4719  0.4261  0.5386
18331TIP3    H276409   2.403   5.729   2.424  0.7865 -0.7391 -0.0362
18332TIP3   OH276410   4.670   2.727   2.717 -0.0212  0.0662 -0.5545
18332TIP3    H176411   4.736   2.717   2.785 -0.3465 -1.6943 -0.4494
18332TIP3    H276412   4.701   2.800   2.664  0.3316  1.3895  1.3535
18333TIP3   OH276413   1.645   1.027   2.462 -0.3537 -0.9901  0.0176
18333TIP3    H176414   1.613   1.084   2.532  0.0618 -1.1566  0.3501
18333TIP3    H276415   1.727   1.068   2.433 -0.5390 -0.9074 -0.3920
18334TIP3   OH276416   1.390   0.890   4.623 -0.6768 -0.0823 -0.2364
18334TIP3    H176417   1.414   0.799   4.638  1.0994  0.2252 -1.0142
18334TIP3    H276418   1.350   0.918   4.706 -0.6807 -1.3778  0.2204
18335TIP3   OH276419   5.156   6.496  15.794 -0.2049  0.5463 -0.1776
18335TIP3    H176420   5.220   6.553  15.836  1.3533 -0.7887 -0.6347
18335TIP3    H276421   5.207   6.424  15.759 -2.1229 -1.3636  0.6869
18336TIP3   OH276422   3.565   3.617   3.603 -0.1111 -0.2773 -0.6719
18336TIP3    H176423   3.600   3.605   3.691 -1.3585 -0.7805 -0.2085
18336TIP3    H276424   3.634   3.585   3.545  0.5961 -0.2519  0.1389
18337TIP3   OH276425   2.455   2.376   1.891  0.2116  0.4615  0.1942
18337TIP3    H176426   2.389   2.441   1.865 -0.1090  0.6504  1.3976
18337TIP3    H276427   2.537   2.426   1.897 -0.2700  1.1227  2.4095
18338TIP3   OH276428   6.596   4.982   6.635 -0.1143  0.1896  0.1727
18338TIP3    H176429   6.672   5.024   6.594 -0.0432 -0.8134 -0.7752
18338TIP3    H276430   6.521   5.027   6.596 -0.0489 -0.8506 -1.2060
18339TIP3   OH276431   4.746   2.793   4.553  0.5057 -0.2972 -0.1273
18339TIP3    H176432   4.691   2.871   4.546 -0.1579 -0.7191  0.2924
18339TIP3    H276433   4.798   2.792   4.472  2.3945  1.9701  0.9223
18340TIP3   OH276434   0.995   4.569  17.106  0.5653 -0.3725 -0.8295
18340TIP3    H176435   1.053   4.520  17.165  0.5722  0.6377  0.0324
18340TIP3    H276436   0.973   4.648  17.155 -1.8537 -0.8930 -0.9682
18341TIP3   OH276437   5.662   2.315  16.804 -0.2068 -0.0543 -0.1235
18341TIP3    H176438   5.691   2.369  16.731  0.9363 -0.9402 -0.3560
18341TIP3    H276439   5.689   2.226  16.780  0.7615 -0.2810  1.6187
18342TIP3   OH276440   4.506   4.453  11.597  0.5620  0.2616 -0.4821
18342TIP3    H176441   4.480   4.516  11.530 -0.5592  0.8013  0.4330
18342TIP3    H276442   4.460   4.482  11.676  1.6954 -0.4727  0.4790
18343TIP3   OH276443   6.516   1.842   4.752  0.5850 -0.1043  0.1192
18343TIP3    H176444   6.582   1.831   4.684 -0.0154  1.0177 -0.6956
18343TIP3    H276445   6.442   1.882   4.706  0.5883  1.8064  1.6203
18344TIP3   OH276446   6.350   0.982   4.315  0.0211  0.3942 -0.1811
18344TIP3    H176447   6.292   0.943   4.250 -1.9467  0.9778  1.1364
18344TIP3    H276448   6.427   0.924   4.316 -1.0864 -1.1726 -1.0719
18345TIP3   OH276449   1.697   2.573  11.542  0.6462 -0.5114 -0.6494
18345TIP3    H176450   1.725   2.578  11.451 -0.3892  0.1638 -0.9515
18345TIP3    H276451   1.779   2.572  11.592  1.2322 -1.1970 -1.5811
18346TIP3   OH276452   3.044   6.437  12.631  0.3985  0.1817 -0.4048
18346TIP3    H176453   3.061   6.487  12.551  1.9775 -0.5925 -0.5805
18346TIP3    H276454   3.119   6.379  12.640  0.6260  0.7466  2.0605
18347TIP3   OH276455   0.069   1.237   3.731 -0.8507  0.4502  0.4458
18347TIP3    H176456   0.105   1.154   3.764  0.0296  0.6236 -0.0632
18347TIP3    H276457   0.040   1.216   3.642 -1.7784  0.3810  0.7571
18348TIP3   OH276458   3.334   4.882   2.156 -0.0146 -0.4991 -0.0383
18348TIP3    H176459   3.421   4.863   2.192  1.1295 -0.6596 -2.6263
18348TIP3    H276460   3.297   4.797   2.136  0.0937 -0.3891 -0.7423
18349TIP3   OH276461   2.632   1.910  14.989  0.1888 -0.0077 -0.4850
18349TIP3    H176462   2.546   1.931  15.027 -0.7015  0.3585 -2.5681
18349TIP3    H276463   2.637   1.814  14.995  0.5599  0.0839  1.4417
18350TIP3   OH276464   4.680   3.026  15.666  0.1809 -0.2545  0.7790
18350TIP3    H176465   4.774   3.017  15.652  0.2904  0.3159  1.1233
18350TIP3    H276466   4.669   3.011  15.760  0.1597  1.3821  1.0677
18351TIP3   OH276467   5.912   6.599   4.144  0.0188 -0.6290  0.5846
18351TIP3    H176468   5.895   6.546   4.066  1.9570 -1.1405  0.4655
18351TIP3    H276469   6.008   6.608   4.146  0.0668 -1.1286  3.2381
18352TIP3   OH276470   4.904   6.219   4.150 -0.1875  0.1000  0.6821
18352TIP3    H176471   4.893   6.163   4.073  1.4587 -0.0825  0.5507
18352TIP3    H276472   4.911   6.307   4.115 -0.3831  0.1278  0.7092
18353TIP3   OH276473   2.918   1.025  13.251 -0.2668  0.7963  0.5951
18353TIP3    H176474   2.937   0.931  13.250  0.1759  0.8840 -0.5143
18353TIP3    H276475   2.838   1.032  13.302  0.1726 -0.0879  1.4458
18354TIP3   OH276476   6.266   1.211   5.678  0.6625  0.0354 -0.5308
18354TIP3    H176477   6.336   1.147   5.694 -0.0716 -0.6756 -0.1338
18354TIP3    H276478   6.248   1.248   5.765 -0.7282 -1.1280 -0.2853
18355TIP3   OH276479   0.564   0.071   3.887 -0.4923 -0.4465 -0.0413
18355TIP3    H176480   0.599   0.128   3.819 -0.1963  2.0485  2.0355
18355TIP3    H276481   0.635   0.010   3.906  0.2201  0.2256 -0.4894
18356TIP3   OH276482   1.203   6.384   0.154  0.2216  0.0451  0.1783
18356TIP3    H176483   1.254   6.336   0.088 -1.5280 -0.0872 -1.1479
18356TIP3    H276484   1.232   6.348   0.238  1.4757 -0.8147 -0.5886
18357TIP3   OH276485   2.645   4.753   3.214 -0.2782  0.4171 -0.0826
18357TIP3    H176486   2.687   4.668   3.231 -0.3264  0.4301  0.0971
18357TIP3    H276487   2.708   4.799   3.158 -0.3752  0.1549 -0.4145
18358TIP3   OH276488   1.008   0.779   4.210  0.2791  0.0792 -0.6031
18358TIP3    H176489   1.016   0.861   4.161  1.7464  0.1069 -0.3522
18358TIP3    H276490   1.028   0.711   4.147  0.3691  0.0059 -0.4964
18359TIP3   OH276491   6.746   5.959  11.500  0.5683 -0.0313  0.2556
18359TIP3    H176492   6.690   5.883  11.489 -0.0383  0.5126 -0.5557
18359TIP3    H276493   6.693   6.022  11.548  0.4921  0.4682 -0.4717
18360TIP3   OH276494   4.827   0.930   2.618 -0.3511  0.3496 -0.1619
18360TIP3    H176495   4.782   0.937   2.534 -1.1600  0.8029  0.2932
18360TIP3    H276496   4.868   1.016   2.630  2.8578 -0.7918 -1.7421
18361TIP3   OH276497   1.874   4.304  14.167  0.3502 -0.1994 -0.1356
18361TIP3    H176498   1.960   4.283  14.132  0.1459  1.1177 -1.5468
18361TIP3    H276499   1.816   4.238  14.129  0.3958  0.2615 -1.0351
18362TIP3   OH276500   1.977   1.594  12.593  0.5862  0.2289 -0.2619
18362TIP3    H176501   1.884   1.607  12.575  0.5472  2.6417  1.2450
18362TIP3    H276502   2.018   1.594  12.506 -0.8809 -2.6571 -1.1041
18363TIP3   OH276503   3.431   1.268  16.454 -0.3297 -0.2472  0.2928
18363TIP3    H176504   3.483   1.216  16.393  0.5325  1.1555 -0.2173
18363TIP3    H276505   3.446   1.227  16.539  0.3860 -0.7803 -0.0755
18364TIP3   OH276506   5.846   2.254  15.685 -0.3821  1.0215  0.0468
18364TIP3    H176507   5.826   2.160  15.682  2.1083  0.4326 -0.5147
18364TIP3    H276508   5.873   2.270  15.775 -3.6869  1.9621  0.9910
18365TIP3   OH276509   2.708   4.346  11.674 -0.1390 -0.1229  0.0794
18365TIP3    H176510   2.770   4.300  11.618  2.9988  2.3933  1.1640
18365TIP3    H276511   2.684   4.424  11.624  0.2866  0.5929  0.9524
18366TIP3   OH276512   2.332   4.144   5.357  0.4537  0.0897  0.0857
18366TIP3    H176513   2.260   4.124   5.417 -2.1502  0.8896 -2.5319
18366TIP3    H276514   2.349   4.061   5.312  0.9966 -0.0330  0.5136
18367TIP3   OH276515   1.108   2.184   1.900 -0.1376 -0.0872  0.2402
18367TIP3    H176516   1.052   2.247   1.854 -0.6136  0.7109  1.8353
18367TIP3    H276517   1.069   2.178   1.988  0.6447 -1.6660  0.5036
18368TIP3   OH276518   0.912   5.444   3.185 -0.3552 -0.0059  0.0843
18368TIP3    H176519   0.835   5.408   3.230 -0.6690  0.5312 -0.0160
18368TIP3    H276520   0.892   5.537   3.174 -0.0943 -0.0467 -0.7903
18369TIP3   OH276521   3.660   4.349  15.594 -0.4099  0.0253 -0.4784
18369TIP3    H176522   3.668   4.271  15.539  0.9059 -0.7723  0.7791
18369TIP3    H276523   3.599   4.405  15.547  0.2218 -0.8641 -2.4664
18370TIP3   OH276524   0.495   5.955  15.559 -0.4238 -0.5089  0.6385
18370TIP3    H176525   0.430   5.976  15.492  0.1234 -0.4234  0.1268
18370TIP3    H276526   0.530   6.040  15.585  0.8035 -0.6546 -0.4349
18371TIP3   OH276527   2.077   6.250   3.098 -0.7348  0.1235  0.0547
18371TIP3    H176528   2.016   6.306   3.050  0.3939  0.8409 -0.5666
18371TIP3    H276529   2.136   6.310   3.142  0.4344 -0.5490 -0.5350
18372TIP3   OH276530   1.273   6.214  11.482  0.1848 -0.4924 -0.1751
18372TIP3    H176531   1.207   6.175  11.424  0.4455  0.9989 -1.5465
18372TIP3    H276532   1.355   6.174  11.455  0.0817 -1.0667  0.3497
18373TIP3   OH276533   0.089   3.695  12.417 -0.0842 -0.3634  0.0321
18373TIP3    H176534   0.022   3.692  12.485  0.0874 -0.6811  0.1895
18373TIP3    H276535   0.171   3.676  12.462 -0.0282 -1.0361 -0.3337
18374TIP3   OH276536   4.622   4.549  14.058 -0.0489  0.1966  0.3043
18374TIP3    H176537   4.712   4.579  14.068 -0.1838  0.7009  0.0166
18374TIP3    H276538   4.623   4.459  14.091  0.8827 -0.3123 -1.0486
18375TIP3   OH276539   4.897   5.030   2.679 -0.5026  0.0427 -0.2261
18375TIP3    H176540   4.802   5.039   2.683 -0.3890  2.0695 -0.9417
18375TIP3    H276541   4.917   5.026   2.585  0.1556  0.0518 -0.0923
18376TIP3   OH276542   0.715   2.297  15.648  0.6003 -0.3399  0.3702
18376TIP3    H176543   0.691   2.348  15.571 -3.3776  0.1210  1.6787
18376TIP3    H276544   0.765   2.358  15.702  0.2009  0.5508 -0.2385
18377TIP3   OH276545   5.176   2.673  14.348 -0.6230  0.2356  0.1016
18377TIP3    H176546   5.253   2.643  14.300  0.0188  0.8995  0.7007
18377TIP3    H276547   5.151   2.755  14.306 -3.1666 -1.5982 -2.3906
18378TIP3   OH276548   1.390   0.610  11.508 -0.2716 -0.2536 -0.1847
18378TIP3    H176549   1.443   0.678  11.551 -0.2015 -1.2056  1.2896
18378TIP3    H276550   1.307   0.653  11.490 -0.5760 -0.0029  1.6181
18379TIP3   OH276551   4.604   3.832  16.939  1.0714  0.1968  0.2871
18379TIP3    H176552   4.545   3.903  16.913 -3.5450 -3.1810  0.4260
18379TIP3    H276553   4.652   3.810  16.858 -0.8138  0.5816 -1.0040
18380TIP3   OH276554   0.717   6.674  16.857 -0.0891 -0.3268  0.3089
18380TIP3    H176555   0.623   6.685  16.869 -0.2955 -1.0966 -0.4592
18380TIP3    H276556   0.724   6.615  16.781  1.0081 -0.2270  0.3223
18381TIP3   OH276557   6.678   3.953   1.973 -0.2818 -0.3689 -0.1843
18381TIP3    H176558   6.729   4.031   1.994 -0.7823 -0.3156  0.9377
18381TIP3    H276559   6.744   3.885   1.957  0.1804  0.4764 -2.1390
18382TIP3   OH276560   0.740   2.677  14.361 -0.5994 -0.4229  0.1316
18382TIP3    H176561   0.740   2.664  14.456  1.3390 -0.0777  0.2225
18382TIP3    H276562   0.812   2.622  14.329 -1.1410 -0.4324 -1.1279
18383TIP3   OH276563   5.333   3.685  17.092 -0.0387 -0.5707  0.5990
18383TIP3    H176564   5.251   3.708  17.049  0.9010  0.6150 -0.6601
18383TIP3    H276565   5.317   3.697  17.185 -1.2015 -0.0791  0.3421
18384TIP3   OH276566   2.895   6.066  14.842 -0.4017 -1.0415 -0.5409
18384TIP3    H176567   2.877   6.047  14.934  0.6275 -1.4046 -0.3930
18384TIP3    H276568   2.980   6.024  14.825  0.7194  1.2130 -0.9308
18385TIP3   OH276569   1.440   2.311  16.855 -0.3844  0.2149  0.3134
18385TIP3    H176570   1.379   2.256  16.906  0.3487 -0.5821  0.3485
18385TIP3    H276571   1.525   2.297  16.896  0.3832 -1.0679 -1.5810
18386TIP3   OH276572   5.148   2.397  16.723  0.3135 -0.6764  0.1955
18386TIP3    H176573   5.230   2.428  16.760  1.7682 -2.5957 -1.2346
18386TIP3    H276574   5.126   2.319  16.773  0.5680 -1.4242 -0.8205
18387TIP3   OH276575   2.124   6.055   2.542  0.8802 -0.1862  0.1072
18387TIP3    H176576   2.130   6.112   2.465  0.3501 -2.0615 -1.3833
18387TIP3    H276577   2.128   6.115   2.616  0.8736  1.7378 -1.3737
18388TIP3   OH276578   6.617   2.338  17.160 -0.2403 -0.6851  0.1026
18388TIP3    H176579   6.692   2.278  17.156  1.3032  1.1155  0.7395
18388TIP3    H276580   6.572   2.314  17.241 -0.9116 -2.3481 -0.7106
18389TIP3   OH276581   5.630   0.080   1.232  0.3006  0.2652 -0.1592
18389TIP3    H176582   5.601   0.142   1.165  2.3514  1.2981 -0.1792
18389TIP3    H276583   5.686   0.131   1.290  0.3911 -1.1173  1.0462
18390TIP3   OH276584   3.111   3.268  12.712  0.1885  0.5827  0.0615
18390TIP3    H176585   3.084   3.199  12.652 -0.6443  1.0839 -0.1473
18390TIP3    H276586   3.159   3.223  12.781 -0.5993 -0.2448  0.0807
18391TIP3   OH276587   2.854   2.666   4.232 -0.1911 -0.1957 -0.9438
18391TIP3    H176588   2.819   2.666   4.321  0.4077  0.9510 -0.6978
18391TIP3    H276589   2.851   2.574   4.205  2.6150 -1.1227  1.4582
18392TIP3   OH276590   0.216   1.445  14.711  0.3945  0.4316  0.0874
18392TIP3    H176591   0.216   1.444  14.616 -2.0810  0.9529  0.0124
18392TIP3    H276592   0.219   1.538  14.734  0.1291  0.3457  0.4861
18393TIP3   OH276593   2.122   1.868  12.272 -0.2148  0.7620  0.6438
18393TIP3    H176594   2.054   1.917  12.318 -0.2211  0.9113  0.4767
18393TIP3    H276595   2.136   1.790  12.326  0.0512  1.1246  1.0994
18394TIP3   OH276596   2.575   6.112   3.664  0.0390 -0.0631 -0.0139
18394TIP3    H176597   2.662   6.144   3.689  0.4097 -1.3517  0.4546
18394TIP3    H276598   2.593   6.050   3.592 -0.7148  1.2399 -1.3877
18395TIP3   OH276599   4.463   0.163   2.496 -0.1639  0.0593  0.3576
18395TIP3    H176600   4.390   0.212   2.458  0.5321  1.1147  0.3312
18395TIP3    H276601   4.485   0.097   2.431  1.0077  1.8259 -1.1320
18396TIP3   OH276602   6.401   0.143   2.006  0.3477  0.6629  0.0244
18396TIP3    H176603   6.379   0.173   1.917  2.0754 -0.6907 -0.9261
18396TIP3    H276604   6.454   0.213   2.042  0.1181  0.9662 -0.2174
18397TIP3   OH276605   5.090   3.191   0.687 -0.3272 -0.6895  0.1525
18397TIP3    H176606   5.090   3.137   0.608  1.9466 -0.6236  0.0335
18397TIP3    H276607   5.097   3.127   0.759  2.5458 -0.6625  0.0034
18398TIP3   OH276608   0.338   6.407   4.226 -0.2529  0.2122 -0.7322
18398TIP3    H176609   0.295   6.324   4.247  0.2246 -0.3239 -1.7416
18398TIP3    H276610   0.342   6.408   4.130  1.2622  0.5957 -0.7002
18399TIP3   OH276611   4.182   1.220   5.680  0.0939  0.0758  0.6450
18399TIP3    H176612   4.228   1.287   5.730  1.5931 -0.2290 -0.2402
18399TIP3    H276613   4.090   1.243   5.687  0.4934  1.6040  1.2331
18400TIP3   OH276614   1.305   2.684  11.963  0.0896  1.1518 -0.2913
18400TIP3    H176615   1.317   2.758  11.903  0.4316  0.6247 -0.8775
18400TIP3    H276616   1.247   2.624  11.916 -0.6022  1.2611  0.3892
18401TIP3   OH276617   1.259   3.864  12.009  0.1999 -0.1518 -0.1698
18401TIP3    H176618   1.189   3.905  11.959 -1.0959 -0.4499  1.3182
18401TIP3    H276619   1.306   3.810  11.946 -0.9566 -0.0074 -1.1880
18402TIP3   OH276620   2.956   2.700  11.476 -0.0606 -0.0229 -0.9019
18402TIP3    H176621   2.894   2.681  11.406  0.9366 -0.6761 -1.6405
18402TIP3    H276622   2.994   2.615  11.498  0.5108  0.3514 -0.4060
18403TIP3   OH276623   1.631   4.426  13.353  0.1953 -0.3541 -0.0378
18403TIP3    H176624   1.663   4.509  13.389 -0.2567 -0.2351  0.1023
18403TIP3    H276625   1.710   4.378  13.329  0.4428  0.8072 -1.6884
18404TIP3   OH276626   0.692   3.717  17.158  0.7759  0.6266  0.0246
18404TIP3    H176627   0.645   3.708  17.241  2.4670  1.8753  1.1676
18404TIP3    H276628   0.636   3.774  17.105  0.1198  0.5500  0.6199
18405TIP3   OH276629   6.425   3.185  12.192  0.4072  0.6587 -0.2285
18405TIP3    H176630   6.445   3.218  12.105 -0.6182  1.2643 -0.2449
18405TIP3    H276631   6.440   3.259  12.251 -2.2896  1.4111 -0.3121
18406TIP3   OH276632   0.491   1.394  13.947  0.3580  0.5300 -0.0587
18406TIP3    H176633   0.532   1.363  14.028  0.5475 -0.1524 -0.4064
18406TIP3    H276634   0.543   1.470  13.922  1.6921 -0.5460 -0.6951
18407TIP3   OH276635   0.437   2.737  12.018 -0.1676  0.4880  0.0684
18407TIP3    H176636   0.501   2.666  12.017 -0.6511  0.0347  0.5168
18407TIP3    H276637   0.489   2.817  12.018  0.4532  0.1303  2.0080
18408TIP3   OH276638   1.607   2.901   5.674 -0.3060  0.0582  0.4078
18408TIP3    H176639   1.638   2.879   5.586  0.9269 -0.7950  1.0142
18408TIP3    H276640   1.588   2.995   5.671 -0.8242 -0.0760 -0.9100
18409TIP3   OH276641   2.590   3.111  16.968 -0.6441  0.5469  0.6012
18409TIP3    H176642   2.678   3.133  16.937  0.1877 -0.2702  2.2166
18409TIP3    H276643   2.555   3.052  16.902 -0.5186  1.8749 -0.7150
18410TIP3   OH276644   3.145   1.579  11.614  0.3378 -0.1816  0.2401
18410TIP3    H176645   3.218   1.591  11.553  1.7820 -0.4792  1.8182
18410TIP3    H276646   3.106   1.666  11.622  1.6895  0.4088  0.7540
18411TIP3   OH276647   3.026   1.240   3.963  0.5318 -0.4758  0.3526
18411TIP3    H176648   3.007   1.258   3.871  1.5677 -0.1414  0.1933
18411TIP3    H276649   3.113   1.277   3.978  0.6938 -1.1740  1.2745
18412TIP3   OH276650   5.431   4.797   4.951 -0.9646  0.0811  0.3369
18412TIP3    H176651   5.501   4.852   4.916 -1.1685  1.5340  2.0938
18412TIP3    H276652   5.392   4.756   4.873 -0.5161  2.0503 -0.9979
18413TIP3   OH276653   0.683   2.196   1.448  0.1511  0.0636 -0.2754
18413TIP3    H176654   0.622   2.267   1.469  0.7616  0.3844  0.4865
18413TIP3    H276655   0.750   2.237   1.394  0.5944  0.1128  0.3043
18414TIP3   OH276656   4.762   4.272  15.651  0.2696 -0.3251 -0.2128
18414TIP3    H176657   4.821   4.202  15.624  0.5439 -1.3963  2.8178
18414TIP3    H276658   4.678   4.228  15.665  0.5467 -0.2554  2.1328
18415TIP3   OH276659   0.717   0.756  12.976  0.0605 -0.2238 -0.4344
18415TIP3    H176660   0.707   0.672  12.931 -0.6476  0.2412 -1.1588
18415TIP3    H276661   0.642   0.808  12.947  1.0654  1.0355 -0.8067
18416TIP3   OH276662   2.069   0.615  12.923 -0.3817  0.0300 -0.2494
18416TIP3    H176663   2.031   0.703  12.914 -0.8726 -0.2512 -0.9768
18416TIP3    H276664   2.120   0.602  12.843  1.3907  0.4462  0.7612
18417TIP3   OH276665   6.578   4.797  14.052  0.5185  0.3357 -0.4219
18417TIP3    H176666   6.587   4.876  14.106  2.3381 -1.1539  1.6093
18417TIP3    H276667   6.483   4.779  14.052  0.1233  2.2194 -0.5338
18418TIP3   OH276668   1.089   4.007   5.393  0.2719 -0.5327 -0.3732
18418TIP3    H176669   1.115   4.009   5.485 -2.5666 -0.4466  0.4967
18418TIP3    H276670   1.077   3.915   5.373  2.6989 -0.7306 -1.3084
18419TIP3   OH276671   5.327   0.388   3.822  0.4617  0.5421 -0.2284
18419TIP3    H176672   5.384   0.457   3.857 -2.4805  3.0601  0.1165
18419TIP3    H276673   5.287   0.349   3.900  1.4498 -0.9969 -0.4686
18420TIP3   OH276674   2.840   5.782  12.871 -0.1461 -0.1980  0.5182
18420TIP3    H176675   2.806   5.860  12.827 -0.3919  1.2364  3.0260
18420TIP3    H276676   2.796   5.709  12.828 -0.5132  1.0840 -1.4092
18421TIP3   OH276677   5.927   5.935   1.172  0.0550 -0.0073 -0.3433
18421TIP3    H176678   5.847   5.963   1.127 -1.6991 -0.9445  1.9680
18421TIP3    H276679   5.949   5.851   1.132  0.2651  0.5435 -1.4089
18422TIP3   OH276680   5.476   4.311  11.562 -0.0768  0.1115  0.2640
18422TIP3    H176681   5.532   4.374  11.516  2.0481 -1.9096 -0.0657
18422TIP3    H276682   5.433   4.363  11.630  0.4761  2.1943 -0.8855
18423TIP3   OH276683   6.779   2.277   4.324 -0.0113 -0.2803  0.6452
18423TIP3    H176684   6.775   2.359   4.374  0.1372 -0.4180  0.8878
18423TIP3    H276685   6.871   2.267   4.301 -0.3351  0.6673 -1.1670
18424TIP3   OH276686   1.901   5.016   1.757  0.2297  0.3893  0.5300
18424TIP3    H176687   1.828   4.961   1.727 -0.9932  0.8936  2.3906
18424TIP3    H276688   1.979   4.965   1.736 -0.4869  0.4549 -2.8454
18425TIP3   OH276689   4.004   5.684  15.347 -0.3547 -0.4085  0.6555
18425TIP3    H176690   3.963   5.633  15.417 -0.0963 -0.0904  1.0398
18425TIP3    H276691   4.092   5.702  15.378  0.0215 -0.9174 -0.0859
18426TIP3   OH276692   3.213   0.606  14.894  0.0275  0.5145 -0.0977
18426TIP3    H176693   3.179   0.646  14.974 -0.3135  1.7207 -0.8113
18426TIP3    H276694   3.139   0.608  14.833  0.5518  0.4902 -0.7514
18427TIP3   OH276695   5.654   0.499   0.135  0.7019  0.2409 -0.0223
18427TIP3    H176696   5.663   0.585   0.176 -1.5897  1.5539 -1.9844
18427TIP3    H276697   5.567   0.468   0.162  1.7768 -1.8594  1.2399
18428TIP3   OH276698   4.160   0.060  14.974 -0.4942 -0.0081 -1.1365
18428TIP3    H176699   4.177   0.053  14.880 -0.9306  0.3725 -1.2469
18428TIP3    H276700   4.223  -0.000  15.014 -1.2849 -1.3052 -1.7624
18429TIP3   OH276701   0.301   5.442  15.492 -0.2309  0.0132  0.6856
18429TIP3    H176702   0.232   5.495  15.450  0.0800 -0.9602 -1.1331
18429TIP3    H276703   0.357   5.507  15.534  0.5540  1.3006 -2.0804
18430TIP3   OH276704   2.198   4.545   1.196 -0.2905 -0.3942 -0.1696
18430TIP3    H176705   2.293   4.535   1.187 -0.3999 -1.0159 -0.6887
18430TIP3    H276706   2.179   4.515   1.285 -0.3074 -2.6662 -0.8937
18431TIP3   OH276707   6.508   3.211   2.067 -0.1106  0.1028 -0.1900
18431TIP3    H176708   6.590   3.178   2.031  0.2794  0.4357  0.3861
18431TIP3    H276709   6.444   3.198   1.996  0.1786 -1.1929 -0.2536
18432TIP3   OH276710   2.587   4.749  11.213 -0.6141 -0.2867 -0.4580
18432TIP3    H176711   2.544   4.694  11.148 -0.8140  0.6499 -1.1488
18432TIP3    H276712   2.528   4.824  11.224 -0.4926 -0.3290  0.6754
18433TIP3   OH276713   4.480   3.636  14.929  0.3268 -0.3888  0.5726
18433TIP3    H176714   4.389   3.613  14.952  0.1205 -0.1333  0.0239
18433TIP3    H276715   4.521   3.552  14.909 -0.3532 -0.3638 -1.1548
18434TIP3   OH276716   2.985   3.508  12.579  0.5897 -0.4777 -0.3744
18434TIP3    H176717   3.028   3.430  12.614  0.3784 -0.0558  0.8688
18434TIP3    H276718   3.044   3.580  12.601  2.5401 -0.5436 -4.5031
18435TIP3   OH276719   5.704   2.055   6.043  0.1271 -0.0903  0.3664
18435TIP3    H176720   5.698   2.044   5.948 -0.1352 -0.7890  0.4573
18435TIP3    H276721   5.768   1.990   6.070  2.2759  1.8887  0.3767
18436TIP3   OH276722   3.327   5.792  13.890 -0.5856  0.3823  0.4874
18436TIP3    H176723   3.284   5.781  13.974 -1.3539 -0.1419  0.0405
18436TIP3    H276724   3.260   5.768  13.825  0.5684 -1.2083 -0.2052
18437TIP3   OH276725   6.429   6.408   3.095 -0.2113 -0.2806  0.1238
18437TIP3    H176726   6.476   6.468   3.037  0.8291 -1.6452 -0.4953
18437TIP3    H276727   6.421   6.455   3.178  3.8999 -0.5786  0.8904
18438TIP3   OH276728   0.054   1.950   2.408  0.3300  0.1577 -0.4327
18438TIP3    H176729   0.066   2.045   2.406  0.3571  0.1478 -1.0435
18438TIP3    H276730   0.135   1.914   2.373  1.9792 -0.2967  3.3726
18439TIP3   OH276731   6.001   6.577   5.046  0.2603 -0.0985 -0.2660
18439TIP3    H176732   5.949   6.549   5.121  1.3019  0.4171  0.6798
18439TIP3    H276733   5.966   6.528   4.972  0.1943 -1.7545  0.8234
18440TIP3   OH276734   3.386   2.014   5.100 -0.2418  0.5098 -0.0857
18440TIP3    H176735   3.309   1.985   5.050 -0.0330 -1.8976  0.8215
18440TIP3    H276736   3.350   2.067   5.171 -0.8664  1.0290 -0.7810
18441TIP3   OH276737   5.334   0.084   2.022  0.3719 -0.1036 -0.0321
18441TIP3    H176738   5.301  -0.001   1.992 -1.0154 -0.1632  1.5304
18441TIP3    H276739   5.407   0.104   1.963  2.6789 -3.7419  1.2460
18442TIP3   OH276740   0.414   1.471   4.691 -0.2400  0.1719  0.0621
18442TIP3    H176741   0.460   1.518   4.621  0.1849  0.2923  0.4201
18442TIP3    H276742   0.484   1.434   4.745 -0.5723 -0.5830 -0.0161
18443TIP3   OH276743   3.865   4.196  11.508  0.0489  0.0055  0.1259
18443TIP3    H176744   3.955   4.205  11.539 -0.2986 -0.3055  1.2696
18443TIP3    H276745   3.874   4.170  11.416  1.1328 -0.3737  0.3188
18444TIP3   OH276746   2.936   0.372   1.222 -0.3257  0.0135 -0.3425
18444TIP3    H176747   2.967   0.461   1.210 -0.8269  0.1212 -0.8819
18444TIP3    H276748   2.992   0.319   1.165  0.5214 -0.1456  0.5980
18445TIP3   OH276749   0.117   0.763   1.413  0.4191  0.1386  0.2260
18445TIP3    H176750   0.118   0.815   1.332  0.4792  0.2746  0.3132
18445TIP3    H276751   0.063   0.686   1.392  0.5276  0.1183  0.0229
18446TIP3   OH276752   3.567   1.914  12.304  0.2503 -0.2623  0.5285
18446TIP3    H176753   3.477   1.914  12.270  0.3842 -1.9600  0.0467
18446TIP3    H276754   3.570   1.986  12.366 -1.3167  0.1004  0.2189
18447TIP3   OH276755   2.560   0.921  15.402 -0.6237 -0.3400  0.0618
18447TIP3    H176756   2.470   0.930  15.373 -0.2444  0.9718 -0.8007
18447TIP3    H276757   2.568   0.983  15.474 -0.7201 -1.3481  0.9686
18448TIP3   OH276758   0.614   1.881  15.140 -0.4430 -0.3842 -0.0104
18448TIP3    H176759   0.523   1.870  15.168  0.2693 -2.0162  2.0009
18448TIP3    H276760   0.611   1.947  15.071 -3.2548 -1.0945 -0.6948
18449TIP3   OH276761   2.099   4.777  16.790  0.0450 -0.0713  0.9433
18449TIP3    H176762   2.030   4.814  16.845 -2.0830 -1.5138 -0.5748
18449TIP3    H276763   2.128   4.849  16.734  0.6799  0.8520  2.4207
18450TIP3   OH276764   3.228   0.195  14.778  0.8329 -0.1341 -0.5774
18450TIP3    H176765   3.148   0.242  14.755 -0.5371 -1.0187  1.9347
18450TIP3    H276766   3.295   0.263  14.784 -0.0477  0.8337 -1.3740
18451TIP3   OH276767   2.998   2.674  16.561  0.2333 -0.2473  0.2990
18451TIP3    H176768   3.090   2.661  16.538  0.7780  1.4862  1.3866
18451TIP3    H276769   2.992   2.765  16.588 -1.6611 -0.5328  0.9899
18452TIP3   OH276770   3.520   0.590   3.599 -0.6101  0.2619  0.0117
18452TIP3    H176771   3.450   0.621   3.657 -0.0552 -0.9426  1.3757
18452TIP3    H276772   3.523   0.656   3.529 -1.6231  1.5226  1.0848
18453TIP3   OH276773   6.187   0.786   5.951  0.1111  0.2926  0.8328
18453TIP3    H176774   6.265   0.736   5.974  0.6260  0.0480 -1.2461
18453TIP3    H276775   6.219   0.851   5.887 -0.9751  1.7420  1.6967
18454TIP3   OH276776   2.955   6.603   4.611 -0.0193 -0.2737  0.5402
18454TIP3    H176777   3.000   6.525   4.580 -1.0779 -1.5763  2.1635
18454TIP3    H276778   3.001   6.627   4.691 -0.5407 -0.0454  0.7775
18455TIP3   OH276779   3.757   4.381  13.086 -0.0451  0.5561  0.2589
18455TIP3    H176780   3.726   4.318  13.021 -0.0423  1.2990 -0.4988
18455TIP3    H276781   3.759   4.333  13.169 -2.1166  0.1638  0.1199
18456TIP3   OH276782   1.927   6.249   4.859  0.3125 -0.2684  0.3190
18456TIP3    H176783   1.890   6.161   4.854  0.9405 -0.5521  0.4760
18456TIP3    H276784   1.973   6.260   4.775  1.1962 -0.5477  0.7490
18457TIP3   OH276785   6.571   3.729  12.775  0.0957 -0.7621  0.1826
18457TIP3    H176786   6.569   3.634  12.773  2.5899 -0.8778 -0.5069
18457TIP3    H276787   6.547   3.751  12.865  1.4750 -2.1990  0.9613
18458TIP3   OH276788   5.589   3.143  14.534 -0.8202 -0.2628 -0.3086
18458TIP3    H176789   5.538   3.144  14.615 -0.3483 -0.2215 -0.0115
18458TIP3    H276790   5.633   3.228  14.532 -1.1427 -0.1022 -0.8100
18459TIP3   OH276791   1.990   5.201  17.073  0.3024  0.0721  0.1056
18459TIP3    H176792   1.902   5.236  17.087  0.3386 -0.2301  1.2211
18459TIP3    H276793   2.038   5.224  17.153  1.0970 -0.1739 -0.2898
18460TIP3   OH276794   4.981   1.763  14.699 -0.1561  0.7395  0.1334
18460TIP3    H176795   5.033   1.820  14.756  1.5869  0.5849 -1.2254
18460TIP3    H276796   5.012   1.675  14.717 -1.8098  0.3277  1.1581
18461TIP3   OH276797   4.910   3.306   2.168 -0.0651  0.5498 -0.1331
18461TIP3    H176798   4.898   3.338   2.257  1.2523  0.0707  0.2352
18461TIP3    H276799   4.939   3.383   2.119 -0.0059  0.6309  0.0281
18462TIP3   OH276800   3.167   2.075   6.635 -0.3151 -0.4650 -0.6166
18462TIP3    H176801   3.257   2.049   6.615  0.3908  1.6127 -0.4361
18462TIP3    H276802   3.164   2.169   6.615 -1.3803  0.3631  2.6988
18463TIP3   OH276803   1.035   2.156   4.628 -0.1150  0.6380 -0.7317
18463TIP3    H176804   1.126   2.180   4.612 -0.1946  1.4385 -0.0534
18463TIP3    H276805   1.014   2.093   4.559  0.6327  1.2354 -1.5156
18464TIP3   OH276806   4.586   3.037   4.514 -0.0705 -0.3718 -0.0046
18464TIP3    H176807   4.612   3.128   4.529  0.1219 -0.4028 -0.1450
18464TIP3    H276808   4.495   3.043   4.484 -1.4354 -0.4567  3.6295
18465TIP3   OH276809   6.401   4.665   0.221 -0.1767 -1.0634  0.3477
18465TIP3    H176810   6.411   4.756   0.251 -1.6932 -1.4639  2.2867
18465TIP3    H276811   6.441   4.664   0.134 -0.8292  1.6684 -0.0911
18466TIP3   OH276812   4.455   2.674   2.886  0.5218 -0.1666 -0.0068
18466TIP3    H176813   4.524   2.683   2.821  2.0582 -0.5588  1.5059
18466TIP3    H276814   4.459   2.754   2.938 -1.4801  0.6826 -1.0451
18467TIP3   OH276815   4.630   6.256   1.023  0.1861  0.7833 -0.1386
18467TIP3    H176816   4.617   6.200   0.947  1.3352  0.4627 -0.1255
18467TIP3    H276817   4.549   6.306   1.031 -0.5386 -0.2878 -0.6395
18468TIP3   OH276818   5.283   0.601   3.310 -0.4956 -0.9413  0.4657
18468TIP3    H176819   5.228   0.592   3.233 -0.6027  1.6860  0.1603
18468TIP3    H276820   5.261   0.687   3.346  2.9723  0.0496  0.6079
18469TIP3   OH276821   5.868   5.801  11.887 -0.0527  0.4502 -0.5616
18469TIP3    H176822   5.853   5.816  11.793  1.6845 -0.0012 -0.9456
18469TIP3    H276823   5.903   5.884  11.919  0.5545  0.2053 -0.5920
18470TIP3   OH276824   1.201   1.323   4.395  0.3587  0.5738 -0.4816
18470TIP3    H176825   1.221   1.396   4.336  0.2248 -0.8009 -2.3309
18470TIP3    H276826   1.260   1.252   4.366 -0.7867 -0.6278  0.0275
18471TIP3   OH276827   4.352   5.011  16.268  0.6820  0.3021 -0.5546
18471TIP3    H176828   4.380   4.956  16.341  1.2800  1.3188  0.0122
18471TIP3    H276829   4.287   5.070  16.306  2.7688  2.5199 -0.1468
18472TIP3   OH276830   4.931   6.754  11.922 -0.0884 -0.4029 -0.0511
18472TIP3    H176831   4.921   6.768  11.828 -0.1636  0.0721  0.0240
18472TIP3    H276832   4.954   6.841  11.957 -0.8717 -0.4017  0.4816
18473TIP3   OH276833   4.081   2.028  16.191 -0.2000  0.1984  0.8917
18473TIP3    H176834   4.047   2.086  16.123  0.0589  0.4877  1.0054
18473TIP3    H276835   4.168   2.002  16.160  0.7331  1.8448  1.9610
18474TIP3   OH276836   2.685   1.913  13.733  0.0954 -0.1120  1.0287
18474TIP3    H176837   2.719   1.991  13.776 -0.3605 -0.1086  1.3860
18474TIP3    H276838   2.658   1.855  13.804 -1.2443  0.1456  0.7617
18475TIP3   OH276839   2.446   0.380   5.012 -0.1320 -0.3184 -0.2249
18475TIP3    H176840   2.425   0.310   5.074 -0.6258 -1.2995 -1.4597
18475TIP3    H276841   2.542   0.376   5.004 -0.0767 -0.2706  0.3710
18476TIP3   OH276842   6.753   2.153   0.799  0.3596 -0.3560 -0.3985
18476TIP3    H176843   6.811   2.173   0.872  1.0979 -1.3066 -0.6974
18476TIP3    H276844   6.708   2.072   0.825  2.2559 -1.9700 -1.8559
18477TIP3   OH276845   5.972   1.610   2.385  0.3851  0.1648  0.3837
18477TIP3    H176846   6.043   1.546   2.378  0.2848  0.0113  0.7280
18477TIP3    H276847   5.927   1.606   2.301  0.4213 -0.1747  0.3797
18478TIP3   OH276848   5.100   2.020  12.608  0.6851  0.1971  0.2306
18478TIP3    H176849   5.082   1.965  12.685 -0.1980  0.2472  0.0730
18478TIP3    H276850   5.158   2.088  12.641  0.7801 -0.1133  0.7211
18479TIP3   OH276851   3.783   0.745  13.955 -0.1548  0.0948  0.1893
18479TIP3    H176852   3.843   0.686  13.909 -0.3998 -0.6944  0.8684
18479TIP3    H276853   3.726   0.779  13.886 -0.4540 -0.9953 -0.1279
18480TIP3   OH276854   5.943   6.457  16.612 -0.1830 -0.0942  0.0185
18480TIP3    H176855   6.033   6.437  16.635  0.2354  0.9635 -0.6400
18480TIP3    H276856   5.932   6.420  16.524  0.0511  0.9310 -0.4659
18481TIP3   OH276857   1.753   3.135  13.379 -0.5826 -1.0513  0.4425
18481TIP3    H176858   1.770   3.042  13.396 -1.6198 -1.3941 -0.2867
18481TIP3    H276859   1.723   3.169  13.463 -0.2130 -1.3764  0.7111
18482TIP3   OH276860   2.105   3.760  11.214  0.2404 -0.1626  0.3509
18482TIP3    H176861   2.083   3.843  11.170  1.7699 -1.1368 -2.5232
18482TIP3    H276862   2.026   3.738  11.263 -0.4933  2.5911  0.6198
18483TIP3   OH276863   1.267   1.751  14.582 -0.2426  0.4961 -0.1143
18483TIP3    H176864   1.320   1.769  14.660 -0.4829  0.8551 -0.0299
18483TIP3    H276865   1.179   1.781  14.605 -0.1817  1.1992 -0.7342
18484TIP3   OH276866   0.549   5.834  16.081  0.1039  0.3584  0.1645
18484TIP3    H176867   0.576   5.742  16.072  2.1184  0.5491  2.8990
18484TIP3    H276868   0.462   5.838  16.042 -0.3249 -2.8667  0.5476
18485TIP3   OH276869   1.382   4.574  17.085  0.2633  0.4967  0.0986
18485TIP3    H176870   1.447   4.548  17.020 -0.3664 -0.3230 -0.2238
18485TIP3    H276871   1.336   4.648  17.046 -0.4621 -0.3220 -0.6309
18486TIP3   OH276872   5.334   3.792   4.118 -0.0612 -0.3410  0.5716
18486TIP3    H176873   5.418   3.797   4.164 -0.4305 -0.0775  1.2341
18486TIP3    H276874   5.302   3.704   4.135  0.6585 -0.8745 -0.7337
18487TIP3   OH276875   4.276   0.369   4.286 -0.6430 -0.5795  0.3116
18487TIP3    H176876   4.197   0.353   4.234 -1.4828  1.6035  0.8132
18487TIP3    H276877   4.247   0.423   4.359  1.3505  0.4408  0.4144
18488TIP3   OH276878   0.462   0.129  15.599 -0.2338 -0.4917 -0.5319
18488TIP3    H176879   0.451   0.034  15.596 -0.4153 -0.4595 -0.8499
18488TIP3    H276880   0.509   0.151  15.518 -0.7704 -0.2319 -0.7759
18489TIP3   OH276881   0.426   5.639   3.981 -0.5501 -0.2488  0.5795
18489TIP3    H176882   0.358   5.681   4.033 -0.1539 -1.3323  2.0260
18489TIP3    H276883   0.484   5.710   3.954 -1.1961  0.4252  0.9607
18490TIP3   OH276884   2.145   0.078   3.655  0.7911 -0.1466  0.4501
18490TIP3    H176885   2.222   0.127   3.628 -0.6018  1.4992 -0.7868
18490TIP3    H276886   2.127   0.020   3.581  0.1565  0.3785  0.1801
18491TIP3   OH276887   2.274   6.575  14.875  0.2218  0.4436  0.2251
18491TIP3    H176888   2.179   6.584  14.875  0.1511 -0.2231  0.1323
18491TIP3    H276889   2.302   6.612  14.958 -0.0816  0.9815  0.0900
18492TIP3   OH276890   1.585   2.510  12.758 -0.3877  0.2872 -0.3848
18492TIP3    H176891   1.502   2.554  12.741  0.4435  1.1470 -2.6918
18492TIP3    H276892   1.564   2.416  12.752 -1.2617  0.4787 -0.4940
18493TIP3   OH276893   1.108   4.241   4.870  0.3108  0.6257 -1.3452
18493TIP3    H176894   1.083   4.149   4.860 -2.3505  1.0813  0.1598
18493TIP3    H276895   1.035   4.290   4.834  1.6458  2.1957 -2.0296
18494TIP3   OH276896   0.151   5.259   4.902  0.4215  0.4278 -0.8659
18494TIP3    H176897   0.212   5.188   4.924  2.4361  2.6738  1.4668
18494TIP3    H276898   0.111   5.282   4.986 -2.1900  0.4062 -2.0187
18495TIP3   OH276899   5.377   1.079  16.861 -0.4588 -0.3818 -0.0187
18495TIP3    H176900   5.407   0.999  16.904 -0.7405 -0.3896  0.1715
18495TIP3    H276901   5.299   1.052  16.813 -0.1160 -0.3812 -0.5792
18496TIP3   OH276902   3.131   2.122  11.753 -0.7520  0.7692 -0.0138
18496TIP3    H176903   3.123   2.124  11.849 -0.1216  2.4990  0.0420
18496TIP3    H276904   3.225   2.112  11.737 -0.7382  1.4680 -0.4257
18497TIP3   OH276905   1.022   5.834  15.605 -0.6818  0.0114 -0.0737
18497TIP3    H176906   1.018   5.916  15.555 -0.2474 -0.6219 -1.1902
18497TIP3    H276907   1.063   5.859  15.688 -0.7891  0.9768 -0.2950
18498TIP3   OH276908   1.049   0.019  11.367 -0.3322  0.5492 -0.2899
18498TIP3    H176909   0.969   0.025  11.419  0.6695 -0.1651  1.4370
18498TIP3    H276910   1.070  -0.074  11.366  0.0618  0.6319 -1.4260
18499TIP3   OH276911   6.533   6.652   1.997  0.4215  0.0116 -0.4915
18499TIP3    H176912   6.453   6.658   1.945 -0.4125  0.3084  0.7695
18499TIP3    H276913   6.601   6.689   1.941 -0.8161  2.2652 -0.6412
18500TIP3   OH276914   1.558   6.329   5.681  0.4321 -0.3231 -0.0478
18500TIP3    H176915   1.507   6.325   5.763 -1.8289  0.6951 -1.3049
18500TIP3    H276916   1.579   6.238   5.661 -0.6089 -0.7527  0.7294
18501TIP3   OH276917   0.815   1.722   5.362  0.0637  0.4754  0.3000
18501TIP3    H176918   0.753   1.783   5.402  1.1017  1.4236  0.5231
18501TIP3    H276919   0.784   1.636   5.388 -0.6638  0.9682  1.1331
18502TIP3   OH276920   3.662   1.082  14.181  0.0156  0.2926 -0.3137
18502TIP3    H176921   3.575   1.047  14.160 -0.0874  0.6478 -0.4801
18502TIP3    H276922   3.717   1.004  14.192  0.1676  0.0833 -2.2722
18503TIP3   OH276923   2.371   1.133   2.197 -0.2540  0.3081 -0.6100
18503TIP3    H176924   2.350   1.218   2.159  0.0859  1.4838  1.6031
18503TIP3    H276925   2.460   1.144   2.231  0.4600 -1.5221 -1.7488
18504TIP3   OH276926   0.953   3.711   4.283  0.0657  0.3280 -0.0595
18504TIP3    H176927   0.882   3.739   4.342 -1.4926 -1.7517 -0.8099
18504TIP3    H276928   0.985   3.629   4.322  3.8518  2.3116  1.5879
18505TIP3   OH276929   0.545   1.689  13.816 -0.1809  0.9868 -0.8454
18505TIP3    H176930   0.450   1.697  13.819 -0.1480  1.6697 -1.3272
18505TIP3    H276931   0.563   1.651  13.730 -0.1454 -1.5776  0.2114
18506TIP3   OH276932   1.959   4.488   1.683  0.0095 -0.1032 -1.0920
18506TIP3    H176933   2.035   4.506   1.629  0.2769  2.1666 -0.0878
18506TIP3    H276934   1.960   4.393   1.696  2.5325 -0.1621 -1.2741
18507TIP3   OH276935   1.163   6.071   5.108  0.6062 -0.0826  0.0758
18507TIP3    H176936   1.077   6.057   5.147 -0.0423 -1.6841 -1.7287
18507TIP3    H276937   1.225   6.054   5.179 -0.5338 -0.9765  0.8918
18508TIP3   OH276938   5.855   3.726   4.100  0.2253 -0.3444 -0.6416
18508TIP3    H176939   5.845   3.706   4.007 -0.2361 -1.7253 -0.3129
18508TIP3    H276940   5.936   3.777   4.105 -0.2863  0.6674 -1.9085
18509TIP3   OH276941   2.255   5.402  12.664  0.2481  0.2550  0.1848
18509TIP3    H176942   2.336   5.414  12.614  0.1156  0.9857  0.1422
18509TIP3    H276943   2.216   5.489  12.668 -0.2242  0.0218  0.7430
18510TIP3   OH276944   1.340   1.156   0.394 -0.1903 -0.1134  0.3581
18510TIP3    H176945   1.290   1.231   0.361  0.8144  0.0264 -0.9427
18510TIP3    H276946   1.300   1.135   0.477 -0.5103  1.8798  0.7589
18511TIP3   OH276947   0.140   0.922  13.440 -0.5642  0.1239  0.3580
18511TIP3    H176948   0.196   0.845  13.428 -0.9195  0.0069 -0.6128
18511TIP3    H276949   0.191   0.994  13.404 -0.8135  0.1035 -0.0431
18512TIP3   OH276950   6.213   5.982   2.088 -0.3923 -0.4291  0.0337
18512TIP3    H176951   6.221   6.043   2.014  1.3669 -1.0164 -0.3289
18512TIP3    H276952   6.175   5.903   2.050  0.0427 -0.5525 -0.1620
18513TIP3   OH276953   0.294   6.493  16.140  0.3443  0.2008 -0.6824
18513TIP3    H176954   0.338   6.523  16.219  2.1813 -0.3146 -1.4482
18513TIP3    H276955   0.269   6.574  16.095 -0.5682  0.4961  0.3068
18514TIP3   OH276956   4.479   1.815  16.868 -0.9017  0.1391  0.8365
18514TIP3    H176957   4.415   1.744  16.868 -0.7995  0.0269  1.7684
18514TIP3    H276958   4.452   1.870  16.942 -2.0177  2.0470 -0.8822
18515TIP3   OH276959   6.612   5.562  13.536  0.6927  0.3843 -0.3934
18515TIP3    H176960   6.637   5.614  13.459  0.8245 -0.2630 -0.7927
18515TIP3    H276961   6.579   5.480  13.499 -0.2154  0.4690  0.1986
18516TIP3   OH276962   4.200   3.533   1.373 -0.0161  0.2318 -0.0935
18516TIP3    H176963   4.166   3.445   1.386  0.4695  0.2797  1.7136
18516TIP3    H276964   4.164   3.584   1.446  2.6784  0.6077  1.0783
18517TIP3   OH276965   2.973   6.770   5.809  0.2514 -0.3326 -0.0442
18517TIP3    H176966   2.898   6.759   5.751  0.1335  1.3379 -0.2526
18517TIP3    H276967   2.935   6.783   5.896  0.2966  0.6000 -0.1632
18518TIP3   OH276968   2.062   3.292  14.711  0.0043 -0.1225  0.2287
18518TIP3    H176969   2.137   3.349  14.726 -0.0304  0.0366 -0.2029
18518TIP3    H276970   2.088   3.207  14.747  0.2965 -0.0046  0.2925
18519TIP3   OH276971   1.348   1.521   2.228 -0.7018  0.4397  0.0527
18519TIP3    H176972   1.291   1.507   2.153 -0.7856 -2.7954  0.6005
18519TIP3    H276973   1.290   1.549   2.298 -1.1865 -0.1294 -0.1210
18520TIP3   OH276974   1.206   5.719   4.956 -0.1420 -0.4589 -0.0916
18520TIP3    H176975   1.193   5.799   4.904  2.2559  0.8738  1.1654
18520TIP3    H276976   1.153   5.653   4.911 -0.3231  1.2401 -2.6275
18521TIP3   OH276977   1.246   2.029  12.989 -0.4067  0.1779  0.2801
18521TIP3    H176978   1.324   2.081  12.972  0.4481 -1.8398 -2.7554
18521TIP3    H276979   1.175   2.076  12.945 -0.2268  0.2978  0.1148
18522TIP3   OH276980   4.402   5.858  16.727  0.4902 -0.1570  0.2776
18522TIP3    H176981   4.432   5.916  16.657  0.8717 -1.9545 -1.1331
18522TIP3    H276982   4.480   5.811  16.755  0.0973 -0.3886  1.0045
18523TIP3   OH276983   4.723   6.260   3.608 -0.0243 -0.4805 -0.2677
18523TIP3    H176984   4.681   6.182   3.646  0.0705 -0.2076  0.4067
18523TIP3    H276985   4.665   6.285   3.536 -0.2859 -0.9174 -0.2174
18524TIP3   OH276986   2.606   6.584  14.870 -0.4496  0.1512 -0.0489
18524TIP3    H176987   2.672   6.537  14.819 -0.8572 -0.6557  0.1517
18524TIP3    H276988   2.571   6.518  14.930  0.6491  1.2428  1.9401
18525TIP3   OH276989   5.527   5.085  12.382  0.1150 -0.5340 -0.8501
18525TIP3    H176990   5.484   5.144  12.444  0.4827 -1.6034  0.4832
18525TIP3    H276991   5.611   5.126  12.364  0.4248 -0.6953  0.1728
18526TIP3   OH276992   0.774   5.018   2.299  0.3438 -0.0662  0.2239
18526TIP3    H176993   0.780   5.113   2.287 -0.2325  0.0027  0.4529
18526TIP3    H276994   0.734   4.987   2.218  0.2925 -0.0864  0.2577
18527TIP3   OH276995   4.884   1.489  15.658 -0.4962  0.6433 -0.0550
18527TIP3    H176996   4.823   1.467  15.587 -1.5997 -0.0490  1.0673
18527TIP3    H276997   4.928   1.406  15.678 -1.0966  0.5438  0.8922
18528TIP3   OH276998   2.037   5.487   4.137 -0.5909 -0.2929 -0.3680
18528TIP3    H176999   1.965   5.500   4.200  0.0934  1.1949  0.1745
18528TIP3    H277000   2.090   5.417   4.175 -1.3437 -0.8922 -0.3988
18529TIP3   OH277001   1.715   5.311  15.947 -0.3138 -0.4137  0.0548
18529TIP3    H177002   1.679   5.376  15.886  0.2075 -0.0369  0.1356
18529TIP3    H277003   1.654   5.238  15.943  0.0731 -0.7022 -1.4750
18530TIP3   OH277004   0.411   2.038   2.188 -0.4541  0.3101 -0.1622
18530TIP3    H177005   0.421   1.950   2.226 -0.5604  0.2794 -0.2032
18530TIP3    H277006   0.336   2.029   2.128 -0.7257  0.5301  0.1423
18531TIP3   OH277007   5.702   1.303   5.471  0.1928  0.0028  0.0822
18531TIP3    H177008   5.704   1.337   5.560  1.8545  0.9811 -0.2880
18531TIP3    H277009   5.789   1.267   5.456 -1.1721 -3.6768  0.0978
18532TIP3   OH277010   0.855   5.262  16.954  0.6394  0.0672 -0.1115
18532TIP3    H177011   0.948   5.285  16.951  0.4549  0.8404 -0.3383
18532TIP3    H277012   0.851   5.170  16.928  1.4417 -0.2913  0.9600
18533TIP3   OH277013   6.167   5.748  14.870 -0.1800 -0.0640  0.4302
18533TIP3    H177014   6.256   5.721  14.844 -1.2445 -3.5878 -0.1355
18533TIP3    H277015   6.136   5.675  14.923 -3.1075  0.6152 -0.2036
18534TIP3   OH277016   6.134   3.197  16.543 -0.0844 -0.2887  0.1910
18534TIP3    H177017   6.219   3.212  16.503  0.8744 -1.3975  1.7363
18534TIP3    H277018   6.107   3.111  16.511 -0.3538 -0.2067  0.1942
18535TIP3   OH277019   4.711   0.966   1.907 -0.5807 -0.3220  0.0669
18535TIP3    H177020   4.659   0.905   1.960  0.2514 -0.8480  0.2833
18535TIP3    H277021   4.649   0.998   1.841 -0.8468 -2.0525 -0.5919
18536TIP3   OH277022   1.658   3.502  16.547  0.0103 -0.0036  0.4059
18536TIP3    H177023   1.720   3.535  16.482  1.2159 -1.0599  0.9760
18536TIP3    H277024   1.686   3.412  16.564 -0.3791  0.1707  2.2466
18537TIP3   OH277025   5.735   1.255   3.615  0.2887  0.0849 -0.1489
18537TIP3    H177026   5.774   1.306   3.544 -1.1289 -0.0181 -1.0174
18537TIP3    H277027   5.655   1.218   3.578 -1.9657  2.1769  2.1917
18538TIP3   OH277028   3.036   3.551  17.110 -0.2404 -0.0047  0.3401
18538TIP3    H177029   3.060   3.641  17.090 -0.5243  0.1547  0.7021
18538TIP3    H277030   2.948   3.557  17.147 -0.1610 -0.4032  0.6053
18539TIP3   OH277031   4.973   1.383   2.849  0.2544 -0.1076  0.1669
18539TIP3    H177032   4.911   1.335   2.795  0.2160  1.8209 -1.6055
18539TIP3    H277033   4.924   1.404   2.929 -1.3227  1.0638 -1.0373
18540TIP3   OH277034   6.197   3.680  12.714 -0.6115  0.4697  0.1845
18540TIP3    H177035   6.259   3.674  12.641 -0.2719 -1.0915  0.5470
18540TIP3    H277036   6.130   3.741  12.685 -0.2875  0.1561 -1.2937
18541TIP3   OH277037   4.892   0.504  13.614 -0.5193 -0.2901  0.3196
18541TIP3    H177038   4.965   0.556  13.579  0.2696 -0.8127  1.1393
18541TIP3    H277039   4.897   0.421  13.568 -1.4930  0.1726 -0.6516
18542TIP3   OH277040   2.183   2.629   5.443  0.8321  0.3444  0.3403
18542TIP3    H177041   2.270   2.664   5.422  0.7318 -1.3636 -4.1520
18542TIP3    H277042   2.122   2.694   5.409  0.4352  0.3186  1.0091
18543TIP3   OH277043   2.176   2.111   4.503 -0.4055  0.2225  0.0618
18543TIP3    H177044   2.169   2.127   4.408 -0.4548 -0.5300 -0.0670
18543TIP3    H277045   2.254   2.057   4.512  0.5267  1.6020  0.6296
18544TIP3   OH277046   5.350   0.318   5.854 -0.4272 -0.5226 -0.1499
18544TIP3    H177047   5.357   0.355   5.766 -0.6301  0.4100  0.2150
18544TIP3    H277048   5.441   0.305   5.882 -0.3003  0.8292  0.1606
18545TIP3   OH277049   3.616   3.269   5.218 -0.3004  0.1571 -0.2865
18545TIP3    H177050   3.649   3.270   5.308  1.6012 -0.3402 -0.9422
18545TIP3    H277051   3.528   3.231   5.226 -1.6092  3.1640  1.7308
18546TIP3   OH277052   5.493   2.881   1.495 -0.2686 -0.0282 -0.0769
18546TIP3    H177053   5.579   2.868   1.455 -0.0775 -0.5848  0.5009
18546TIP3    H277054   5.433   2.828   1.442 -0.5852  1.6561 -1.5234
18547TIP3   OH277055   5.942   3.772  16.249  0.2728  0.4357 -0.5667
18547TIP3    H177056   5.883   3.779  16.325  0.2511 -0.1171 -0.5324
18547TIP3    H277057   5.909   3.838  16.188 -0.5003  0.0179 -0.6204
18548TIP3   OH277058   1.673   5.435   4.771 -0.0876 -0.0427 -0.1729
18548TIP3    H177059   1.612   5.493   4.726 -0.1009  0.8780  0.9758
18548TIP3    H277060   1.722   5.493   4.830 -1.0243 -1.3557  2.0087
18549TIP3   OH277061   5.833   2.141  13.345 -0.5375 -0.0584 -0.1052
18549TIP3    H177062   5.832   2.197  13.268 -0.6606  0.0860  0.0006
18549TIP3    H277063   5.803   2.056  13.314  1.0257 -0.4761 -0.5846
18550TIP3   OH277064   2.306   0.049  14.113  0.0212  0.2132  0.1715
18550TIP3    H177065   2.297  -0.023  14.051 -0.0045 -0.2521  0.7108
18550TIP3    H277066   2.276   0.126  14.065  2.8079  0.4236 -1.4414
18551TIP3   OH277067   6.450   1.854   3.650 -0.3380 -0.1308 -0.4706
18551TIP3    H177068   6.408   1.776   3.687  2.0285 -1.5059 -0.4550
18551TIP3    H277069   6.501   1.890   3.721  0.2936  0.1512 -1.0574
18552TIP3   OH277070   5.798   5.015   4.589 -0.4767  0.0814 -0.1330
18552TIP3    H177071   5.863   5.079   4.560  1.0508 -1.6150 -0.5938
18552TIP3    H277072   5.720   5.035   4.537  0.4319  0.6417 -1.3336
18553TIP3   OH277073   6.435   5.653   1.673  0.0413 -0.1259  0.3747
18553TIP3    H177074   6.402   5.723   1.617 -1.7405 -1.4168 -0.2872
18553TIP3    H277075   6.505   5.612   1.622  1.0858  1.0956  0.7600
18554TIP3   OH277076   1.781   4.313  12.084 -0.1583 -0.3238 -0.6201
18554TIP3    H177077   1.860   4.320  12.138  1.1172 -0.9907 -2.3124
18554TIP3    H277078   1.752   4.403  12.071  2.7790  0.3822 -3.3627
18555TIP3   OH277079   5.908   4.060  14.481  0.1078 -0.1452 -0.3007
18555TIP3    H177080   5.944   4.148  14.495 -0.0825  0.0094 -0.7585
18555TIP3    H277081   5.939   4.036  14.394 -0.7974 -0.0576 -0.6575
18556TIP3   OH277082   4.707   0.681  16.485 -0.7783 -0.5306 -0.0281
18556TIP3    H177083   4.677   0.771  16.472  0.6850 -0.1878 -1.3215
18556TIP3    H277084   4.744   0.681  16.574 -1.3710 -0.0365  0.2237
18557TIP3   OH277085   1.067   4.286   5.611  0.2205 -0.0907 -0.1590
18557TIP3    H177086   1.128   4.247   5.548 -2.0350 -1.5720 -1.5482
18557TIP3    H277087   1.050   4.216   5.674  0.0207  0.3579  0.2949
18558TIP3   OH277088   5.762   1.620  15.494  0.0552 -0.0726 -0.7102
18558TIP3    H177089   5.852   1.589  15.490  0.6423  1.2001  1.4100
18558TIP3    H277090   5.766   1.710  15.462 -0.7896 -0.4832 -2.1037
18559TIP3   OH277091   2.564   0.304  15.528 -0.2570  0.5025 -0.5566
18559TIP3    H177092   2.496   0.243  15.559 -0.9534  1.6824  0.2897
18559TIP3    H277093   2.591   0.268  15.443 -1.0170 -0.7008 -0.3112
18560TIP3   OH277094   1.023   6.433   0.544 -0.3122  0.6024  0.8112
18560TIP3    H177095   1.114   6.454   0.567  0.3007 -0.3049 -0.6102
18560TIP3    H277096   1.012   6.342   0.570  0.5342 -0.5975 -2.4997
18561TIP3   OH277097   4.704   3.162   5.358  0.2317  0.1372 -0.4868
18561TIP3    H177098   4.787   3.120   5.338 -0.3047 -1.8900  1.2513
18561TIP3    H277099   4.728   3.246   5.397  1.4031  0.1537 -1.1975
18562TIP3   OH277100   5.607   2.577  13.309 -0.1561 -0.0984 -0.1251
18562TIP3    H177101   5.686   2.555  13.359 -0.0074 -1.2441 -0.8392
18562TIP3    H277102   5.536   2.532  13.356 -0.6727  2.1561  1.4143
18563TIP3   OH277103   3.648   3.789  12.824 -0.2245 -0.0726 -0.0458
18563TIP3    H177104   3.567   3.839  12.817  1.6177  3.2871  0.3910
18563TIP3    H277105   3.643   3.747  12.910 -1.1487  0.8872  0.3902
18564TIP3   OH277106   2.258   4.908  16.278  0.0990  0.5760  0.4243
18564TIP3    H177107   2.334   4.850  16.268  0.4864  1.0456  0.6291
18564TIP3    H277108   2.277   4.982  16.220  0.0418  0.9494  0.8845
18565TIP3   OH277109   0.805   5.544   3.924  0.3240 -0.6053  0.1500
18565TIP3    H177110   0.862   5.604   3.973 -1.3849 -0.5427  2.1922
18565TIP3    H277111   0.803   5.580   3.835 -1.2558  2.9543  1.4373
18566TIP3   OH277112   2.218   4.860  14.096  0.0768  0.1208 -0.5939
18566TIP3    H177113   2.199   4.908  14.176  1.2784 -0.4229  0.0521
18566TIP3    H277114   2.312   4.874  14.082  0.0366 -0.4246 -1.4803
18567TIP3   OH277115   6.360   3.198   2.595  0.0784  0.0715 -0.1230
18567TIP3    H177116   6.374   3.133   2.664 -2.4491  0.0356  0.4416
18567TIP3    H277117   6.337   3.146   2.518  1.3345  0.1884 -0.5998
18568TIP3   OH277118   4.730   1.981  10.958 -0.3347  0.5533  0.6640
18568TIP3    H177119   4.753   1.905  10.904 -0.1122  1.0626  0.0251
18568TIP3    H277120   4.776   2.054  10.916 -1.4323  1.2288  0.6152
18569TIP3   OH277121   1.877   5.258   3.168 -0.4754 -0.1915  0.1845
18569TIP3    H177122   1.829   5.176   3.175 -1.0228  0.0547 -0.4944
18569TIP3    H277123   1.854   5.307   3.247 -0.4263 -0.5432  0.4188
18570TIP3   OH277124   4.194   2.963  13.469  0.4331  0.0495 -0.1043
18570TIP3    H177125   4.152   3.049  13.456 -0.0067  0.4137  2.9340
18570TIP3    H277126   4.121   2.901  13.473  0.6472 -0.2533 -0.7259
18571TIP3   OH277127   1.928   4.201   1.361  0.0191  0.0749  0.0754
18571TIP3    H177128   1.976   4.138   1.307  2.2088  0.6842  1.1736
18571TIP3    H277129   1.979   4.207   1.442 -2.3258  0.2991  1.6337
18572TIP3   OH277130   0.903   0.764  11.352 -0.0858 -0.4468 -0.1590
18572TIP3    H177131   0.991   0.759  11.388  0.0752 -0.5708 -0.5619
18572TIP3    H277132   0.845   0.762  11.429  0.1494 -2.9873  0.0428
18573TIP3   OH277133   1.842   2.669   4.176  0.4328 -0.1951  0.3798
18573TIP3    H177134   1.883   2.588   4.205 -0.8019 -1.2427 -0.6542
18573TIP3    H277135   1.748   2.654   4.188 -0.0749 -0.2003 -2.7251
18574TIP3   OH277136   5.702   4.492  15.283  0.1990 -0.1600 -0.0841
18574TIP3    H177137   5.779   4.444  15.252  1.4424  0.2542  2.1877
18574TIP3    H277138   5.636   4.424  15.297  1.0527 -0.8910  0.4984
18575TIP3   OH277139   3.599   1.569  11.381 -0.0045  0.0386  0.1522
18575TIP3    H177140   3.510   1.584  11.414  0.3261 -1.5008  1.8987
18575TIP3    H277141   3.635   1.657  11.367 -2.8268  0.8173 -3.8289
18576TIP3   OH277142   1.152   0.070  15.119  0.0437 -0.4314  0.3867
18576TIP3    H177143   1.169   0.162  15.101  2.5655 -0.7054  0.9792
18576TIP3    H277144   1.079   0.071  15.181  1.6888  1.4089  2.4853
18577TIP3   OH277145   4.265   3.959  10.464 -0.4919  0.5851 -0.1410
18577TIP3    H177146   4.360   3.958  10.460 -0.3211  1.1291  2.2376
18577TIP3    H277147   4.239   3.870  10.443  0.7200 -0.1904  1.4278
18578TIP3   OH277148   2.967   0.311  16.502 -0.0811  0.2694  0.8575
18578TIP3    H177149   2.904   0.364  16.453 -1.5602 -1.2384  1.0267
18578TIP3    H277150   3.029   0.279  16.436 -0.0996  0.9192  0.5226
18579TIP3   OH277151   2.601   0.355  14.954  0.1895 -0.3872  0.3359
18579TIP3    H177152   2.518   0.348  15.001 -1.6291  1.6303 -2.2383
18579TIP3    H277153   2.616   0.267  14.918 -2.1386 -0.3155 -1.0305
18580TIP3   OH277154   5.407   2.407  13.572  0.0790  0.1306 -0.0936
18580TIP3    H177155   5.395   2.502  13.565 -2.9953 -0.0490  1.2489
18580TIP3    H277156   5.343   2.371  13.511  1.3048 -1.1497 -0.6794
18581TIP3   OH277157   2.657   1.492   5.661  0.0631  0.5157  0.6577
18581TIP3    H177158   2.721   1.466   5.728  1.2310  0.3314 -0.4984
18581TIP3    H277159   2.689   1.576   5.629  1.0465 -0.5987 -1.5040
18582TIP3   OH277160   3.789   5.468   1.860 -0.3254 -0.3387 -0.1074
18582TIP3    H177161   3.767   5.535   1.795 -0.1624  1.4761  1.5900
18582TIP3    H277162   3.865   5.504   1.906  1.8138 -3.1864 -1.1577
18583TIP3   OH277163   4.492   0.719  13.996  0.0667 -0.1494  0.2822
18583TIP3    H177164   4.427   0.718  13.927  0.0199  0.3482  0.3172
18583TIP3    H277165   4.567   0.672  13.959  0.3035  0.7128 -0.3716
18584TIP3   OH277166   0.018   6.436   4.167 -0.3071 -0.3627 -0.3646
18584TIP3    H177167   0.047   6.502   4.230 -0.9255 -1.0762  0.6880
18584TIP3    H277168  -0.063   6.471   4.130 -1.9373 -1.5107  1.9092
18585TIP3   OH277169   0.235   2.011   1.345 -0.2561  0.0820  0.5204
18585TIP3    H177170   0.274   2.043   1.426  2.5939 -2.4131  0.2942
18585TIP3    H277171   0.201   1.924   1.368 -0.6304 -0.0989 -0.6731
18586TIP3   OH277172   2.321   4.669   1.640  0.2145  0.7409  0.3922
18586TIP3    H177173   2.324   4.609   1.715 -1.0647  1.7956  1.3109
18586TIP3    H277174   2.414   4.682   1.618  0.5744 -0.4811  1.0348
18587TIP3   OH277175   1.550   0.708  15.301  0.5814 -0.6151 -0.8986
18587TIP3    H177176   1.555   0.738  15.210  0.6822  0.7371 -0.4639
18587TIP3    H277177   1.493   0.771  15.344  0.0792 -1.5649 -0.1329
18588TIP3   OH277178   0.341   1.391   4.190 -0.0411  0.0677  0.4719
18588TIP3    H177179   0.299   1.320   4.238 -1.7242 -0.0868 -1.1181
18588TIP3    H277180   0.316   1.377   4.099  1.7724  1.2242 -0.2645
18589TIP3   OH277181   1.885   4.944  14.188  0.4815 -0.1246  0.0651
18589TIP3    H177182   1.860   4.952  14.096  0.9691 -0.8374 -0.1372
18589TIP3    H277183   1.895   4.849  14.202  0.0486 -0.0497  0.9499
18590TIP3   OH277184   1.964   5.352   6.441  0.4252 -0.1478 -0.4647
18590TIP3    H177185   1.959   5.426   6.501  3.0572  0.9734 -1.4708
18590TIP3    H277186   2.016   5.287   6.488  1.4385  0.2455 -1.0021
18591TIP3   OH277187   4.730   2.783  12.285 -0.7188  0.1601 -0.6685
18591TIP3    H177188   4.747   2.874  12.310  2.3036 -0.0492 -1.6262
18591TIP3    H277189   4.689   2.745  12.363  1.7720  1.3372  1.3551
18592TIP3   OH277190   2.880   0.843  16.894  0.3528  0.2163 -0.5736
18592TIP3    H177191   2.968   0.880  16.898  0.7737 -0.6739 -1.0709
18592TIP3    H277192   2.857   0.848  16.801 -0.7298  1.7675 -0.2487
18593TIP3   OH277193   0.399   4.788  12.331 -0.2469 -0.1787 -0.0848
18593TIP3    H177194   0.305   4.798  12.317 -0.5275 -1.3016  0.8439
18593TIP3    H277195   0.439   4.819  12.250 -1.4577 -0.4430 -0.8038
18594TIP3   OH277196   0.901   2.259   1.271 -0.3520 -0.3407  0.3780
18594TIP3    H177197   0.985   2.306   1.269  0.1572 -1.2224  0.7567
18594TIP3    H277198   0.919   2.180   1.322 -1.3830 -0.6036  0.3446
18595TIP3   OH277199   6.515   0.183  13.869  0.5397  0.0328 -0.4614
18595TIP3    H177200   6.448   0.244  13.839 -0.2185 -0.3368  0.4131
18595TIP3    H277201   6.497   0.173  13.963  2.3752  0.6118 -0.0273
18596TIP3   OH277202   6.323   4.841   1.833  0.2282 -0.3804 -0.0177
18596TIP3    H177203   6.418   4.850   1.835  0.3912 -1.1273 -2.3463
18596TIP3    H277204   6.291   4.929   1.853  1.3608 -0.1814  1.0821
18597TIP3   OH277205   5.053   3.281   3.474  0.5547  0.2087  0.2884
18597TIP3    H177206   5.121   3.215   3.461 -0.4905 -1.0598  1.1157
18597TIP3    H277207   5.049   3.328   3.390  1.0149 -1.0490 -0.4590
18598TIP3   OH277208   0.875   1.425  16.186 -0.5061  0.1711 -0.2566
18598TIP3    H177209   0.786   1.398  16.162  0.0784 -1.0010 -1.2079
18598TIP3    H277210   0.928   1.402  16.110  0.2993  2.8250 -0.6001
18599TIP3   OH277211   5.726   4.037  12.653  0.0387  0.7611  0.0058
18599TIP3    H177212   5.708   4.060  12.562 -0.7136  0.2605  0.0200
18599TIP3    H277213   5.675   4.099  12.704  1.1648  1.6332  0.1243
18600TIP3   OH277214   4.076   1.743  12.074  0.5832 -0.4634 -0.0871
18600TIP3    H177215   3.991   1.735  12.117 -0.0615  2.4744 -0.6215
18600TIP3    H277216   4.131   1.789  12.138  0.5932  0.9868 -1.0791
18601TIP3   OH277217   5.725   3.661  13.927  0.3368  0.3617  0.3238
18601TIP3    H177218   5.797   3.708  13.970  0.4369  1.4526 -0.9840
18601TIP3    H277219   5.749   3.657  13.835 -0.7873 -0.2023  0.0267
18602TIP3   OH277220   0.849   3.978   0.027  0.0852 -0.4357 -0.1235
18602TIP3    H177221   0.809   3.894   0.052  0.4207 -1.4635 -2.7635
18602TIP3    H277222   0.774   4.038   0.020 -0.2435 -0.6712  1.0407
18603TIP3   OH277223   3.114   3.507   1.760  0.0503  0.2227 -0.7425
18603TIP3    H177224   3.189   3.566   1.756 -1.7036  2.6376 -0.3278
18603TIP3    H277225   3.073   3.514   1.674 -0.7172  0.4170 -0.3703
18604TIP3   OH277226   0.876   1.372  11.793 -0.1857  0.2484  0.4500
18604TIP3    H177227   0.873   1.439  11.726  1.1713 -1.8408 -1.8500
18604TIP3    H277228   0.802   1.314  11.773 -0.1515 -0.0595  1.1542
18605TIP3   OH277229   4.230   1.509  13.134  0.3662  0.1594 -0.4788
18605TIP3    H177230   4.304   1.558  13.169 -0.6003 -0.0580  2.0755
18605TIP3    H277231   4.195   1.461  13.209 -2.1158 -0.0515 -1.6692
18606TIP3   OH277232   4.825   3.868  10.985 -0.0015  0.0996 -0.0086
18606TIP3    H177233   4.864   3.781  10.986 -2.2985 -1.0241 -0.8937
18606TIP3    H277234   4.862   3.909  10.906 -1.4818 -1.4265 -1.5834
18607TIP3   OH277235   3.551   0.141   0.124  0.2362  0.0349 -0.2634
18607TIP3    H177236   3.505   0.075   0.176  1.3232 -1.1011 -0.6664
18607TIP3    H277237   3.635   0.152   0.169  0.7549 -0.1701 -1.1495
18608TIP3   OH277238   3.156   6.314   0.197 -0.2692  0.5834 -0.4851
18608TIP3    H177239   3.101   6.393   0.199 -0.7053  0.2756  0.9626
18608TIP3    H277240   3.152   6.280   0.286  2.5143  0.6910 -0.2402
18609TIP3   OH277241   6.762   1.621  15.792  0.6723  0.5262  0.0881
18609TIP3    H177242   6.721   1.579  15.717  0.2434  1.1325 -0.0285
18609TIP3    H277243   6.728   1.711  15.790  0.9632  0.6554  0.7751
18610TIP3   OH277244   1.996   0.992  11.767 -0.4351  0.4613  0.5129
18610TIP3    H177245   2.014   1.046  11.690 -0.2640  1.6751  1.3610
18610TIP3    H277246   2.079   0.949  11.786 -0.5357 -0.0102 -0.0946
18611TIP3   OH277247   1.837   2.738  16.965  0.2839  0.0965  0.2252
18611TIP3    H177248   1.777   2.700  16.900  1.0649  0.4021 -0.6966
18611TIP3    H277249   1.780   2.767  17.036 -0.7774  1.2653 -1.0548
18612TIP3   OH277250   5.742   0.113   4.309 -0.0373 -0.7438 -0.7015
18612TIP3    H177251   5.773   0.148   4.393 -1.9113 -1.0293  0.1466
18612TIP3    H277252   5.674   0.174   4.281 -0.1675 -1.2338 -1.4857
18613TIP3   OH277253   4.448   5.158   1.486  0.5945  0.3474  0.0838
18613TIP3    H177254   4.470   5.069   1.514 -2.7752 -1.5169 -2.4618
18613TIP3    H277255   4.388   5.191   1.552 -0.3725 -0.4811 -0.3526
18614TIP3   OH277256   5.612   3.124   5.579 -0.2691  0.5306  0.6473
18614TIP3    H177257   5.664   3.068   5.521 -0.5127  1.0873 -0.1224
18614TIP3    H277258   5.636   3.095   5.667  0.0829 -0.3541  0.2774
18615TIP3   OH277259   5.412   6.217   5.038  0.4785  0.4469 -0.3000
18615TIP3    H177260   5.502   6.210   5.070  0.9914  0.4339 -1.6619
18615TIP3    H277261   5.421   6.255   4.950 -0.8920  0.9801 -0.2414
18616TIP3   OH277262   4.266   3.542   3.783  0.0024  0.1577  0.7504
18616TIP3    H177263   4.183   3.504   3.752 -0.9001  0.8588  2.1944
18616TIP3    H277264   4.252   3.637   3.779  0.4235  0.2729  1.8102
18617TIP3   OH277265   6.643   5.090  12.716  0.0341 -0.8195  0.3059
18617TIP3    H177266   6.578   5.155  12.743  1.2532  0.2513  0.7279
18617TIP3    H277267   6.640   5.092  12.621 -0.9455 -1.2085  0.3109
18618TIP3   OH277268   6.587   3.289  15.137  0.2787  0.1917 -0.1199
18618TIP3    H177269   6.585   3.207  15.186 -1.6086 -0.8662 -1.8212
18618TIP3    H277270   6.538   3.350  15.191  1.0516  0.0200  0.8112
18619TIP3   OH277271   5.599   3.251  16.377 -0.5347 -0.2788  0.2872
18619TIP3    H177272   5.536   3.191  16.337 -2.3262  0.5027  1.7444
18619TIP3    H277273   5.640   3.296  16.304 -0.0339 -2.3640 -0.7948
18620TIP3   OH277274   6.512   6.090   5.408 -0.2252  0.8229  0.5119
18620TIP3    H177275   6.490   6.004   5.443  1.1190  0.1249 -0.2476
18620TIP3    H277276   6.504   6.150   5.483 -2.7407  0.3575  0.6861
18621TIP3   OH277277   2.726   1.327  15.338 -0.1946 -0.0966  0.1610
18621TIP3    H177278   2.789   1.396  15.360 -1.5330  0.5060  2.3987
18621TIP3    H277279   2.671   1.366  15.270  2.4050 -1.0478 -2.7318
18622TIP3   OH277280   5.868   0.786  14.914  0.9957  0.4504  0.2209
18622TIP3    H177281   5.822   0.800  14.831  0.2629 -0.7248  0.4003
18622TIP3    H277282   5.937   0.723  14.893  0.7082  0.0275  0.5175
18623TIP3   OH277283   2.916   4.541   4.911  0.2402  0.0886 -0.1117
18623TIP3    H177284   2.955   4.572   4.993 -2.0915 -2.1219  1.9972
18623TIP3    H277285   2.827   4.577   4.912  0.1753  0.0263 -1.7135
18624TIP3   OH277286   0.691   5.827  13.575 -0.4327  0.1890  0.0206
18624TIP3    H177287   0.735   5.905  13.607 -1.1638  0.5214  0.2339
18624TIP3    H277288   0.608   5.824  13.623 -0.9099 -0.0989 -0.7960
18625TIP3   OH277289   4.995   6.539   6.178  0.3224 -0.5566 -0.3115
18625TIP3    H177290   5.075   6.533   6.229 -0.3889  1.9930  1.3256
18625TIP3    H277291   4.926   6.512   6.238 -0.2840 -0.2428 -0.8538
18626TIP3   OH277292   3.591   4.385  14.814 -0.4292  0.3751 -0.3624
18626TIP3    H177293   3.556   4.418  14.896 -0.3098 -0.4193  0.0155
18626TIP3    H277294   3.682   4.416  14.812 -0.4316  0.3924 -0.1939
18627TIP3   OH277295   1.611   0.246  17.250  0.4433 -0.5976 -0.0260
18627TIP3    H177296   1.583   0.333  17.220  0.1351 -0.0384  1.7384
18627TIP3    H277297   1.624   0.196  17.170 -2.5456  0.0738 -1.0737
18628TIP3   OH277298   1.152   3.476   4.123  0.5756  0.0744 -0.2340
18628TIP3    H177299   1.168   3.562   4.084  0.6764 -0.4965 -1.4706
18628TIP3    H277300   1.057   3.463   4.114  0.0684  1.1781  2.3792
18629TIP3   OH277301   5.622   0.583   5.374  0.3492  0.5883 -0.6927
18629TIP3    H177302   5.715   0.568   5.388  0.2074 -1.5095 -1.7145
18629TIP3    H277303   5.618   0.648   5.304  1.0664 -0.4148 -1.6880
18630TIP3   OH277304   2.135   0.834   0.464 -0.3345 -0.4702  0.3153
18630TIP3    H177305   2.195   0.763   0.440 -1.0011 -1.2605  0.8875
18630TIP3    H277306   2.066   0.831   0.397 -0.6778 -0.7716  0.6740
18631TIP3   OH277307   3.199   2.841   3.195  0.2305  0.6319 -0.3612
18631TIP3    H177308   3.252   2.921   3.195 -1.2877  1.6813  0.2397
18631TIP3    H277309   3.211   2.805   3.283 -1.4977  1.9330  0.4780
18632TIP3   OH277310   5.676   5.129   1.933  0.4766  0.1592  0.3094
18632TIP3    H177311   5.696   5.061   1.869  1.1487  0.8594 -0.2414
18632TIP3    H277312   5.606   5.091   1.986 -0.9152 -0.0268 -1.5468
18633TIP3   OH277313   1.612   1.685   3.190 -0.0358 -0.3487  0.1536
18633TIP3    H177314   1.609   1.774   3.157  2.7463  0.0647  0.7766
18633TIP3    H277315   1.550   1.684   3.263  0.7554  1.4535  0.9026
18634TIP3   OH277316   2.729   5.611   0.147 -0.1973  0.0984 -0.1774
18634TIP3    H177317   2.770   5.644   0.068  0.2597 -3.5599 -1.6545
18634TIP3    H277318   2.639   5.592   0.121 -0.6577  0.8147  0.8250
18635TIP3   OH277319   2.004   5.780  16.679 -0.7168 -0.0496  0.2662
18635TIP3    H177320   1.923   5.802  16.723 -0.8332 -0.7882  0.4405
18635TIP3    H277321   1.979   5.762  16.588 -0.4732  1.4955 -0.1282
18636TIP3   OH277322   4.444   1.887   1.664  0.2779  0.1439 -0.4271
18636TIP3    H177323   4.438   1.794   1.643 -1.0206  0.0277  0.3337
18636TIP3    H277324   4.358   1.909   1.701  1.0437  1.3097  0.7433
18637TIP3   OH277325   3.538   0.578  16.994  0.0670  0.6235 -0.6424
18637TIP3    H177326   3.580   0.561  17.078 -1.3578  0.2559  0.0332
18637TIP3    H277327   3.507   0.668  17.000  0.7735  0.9028 -1.1442
18638TIP3   OH277328   5.626   5.963  15.137  0.3881  0.0128 -0.4189
18638TIP3    H177329   5.626   5.905  15.061  0.0468 -0.1595 -0.2890
18638TIP3    H277330   5.672   6.041  15.107 -0.4713  0.2881 -1.0723
18639TIP3   OH277331   3.026   3.061   2.453 -0.8007  0.4940  1.0297
18639TIP3    H177332   3.030   3.032   2.544 -1.4894  2.0346  1.5860
18639TIP3    H277333   3.017   3.156   2.459 -0.7133  0.6349 -0.6607
18640TIP3   OH277334   3.391   3.138   3.801 -0.7164 -0.0749  0.2291
18640TIP3    H177335   3.426   3.089   3.727 -1.5756 -0.2884 -0.0436
18640TIP3    H277336   3.347   3.073   3.855  0.8093 -0.1016  1.5106
18641TIP3   OH277337   5.490   0.545   1.416 -0.0578  0.2792 -0.1865
18641TIP3    H177338   5.463   0.598   1.341  1.7869  0.1753 -0.9908
18641TIP3    H277339   5.552   0.600   1.463  2.1743 -1.1798 -1.2374
18642TIP3   OH277340   1.947   4.756   1.484 -0.2102 -0.2049  0.6947
18642TIP3    H177341   1.917   4.670   1.513  1.6799 -1.1415  0.0236
18642TIP3    H277342   1.995   4.791   1.558  1.7058 -1.1346 -0.0400
18643TIP3   OH277343   6.710   0.556  15.126 -0.1119  0.2684  0.1071
18643TIP3    H177344   6.698   0.636  15.178 -1.1627 -0.1686  0.5753
18643TIP3    H277345   6.641   0.559  15.060 -0.0228 -0.1454 -0.0093
18644TIP3   OH277346   5.216   4.101  15.977 -0.1007  0.0786  0.9269
18644TIP3    H177347   5.221   4.090  16.072 -1.0324  2.1462  1.2698
18644TIP3    H277348   5.177   4.019  15.946  1.2208 -1.0837  2.1664
18645TIP3   OH277349   0.063   5.536  13.981 -0.2556 -0.1880  0.4248
18645TIP3    H177350  -0.030   5.528  14.002 -1.0582  0.9496 -2.2285
18645TIP3    H277351   0.064   5.583  13.898  2.6411 -1.5487 -0.4225
18646TIP3   OH277352   5.208   5.774  13.502  0.5946  0.0712 -0.5424
18646TIP3    H177353   5.281   5.714  13.488  1.3560  1.2828 -1.9714
18646TIP3    H277354   5.248   5.854  13.537  0.0466  0.8925 -1.7251
18647TIP3   OH277355   2.598   5.158   2.485 -0.0568 -0.1978  0.3032
18647TIP3    H177356   2.628   5.078   2.528 -0.1582  0.0048  0.7590
18647TIP3    H277357   2.676   5.213   2.479 -0.2662  0.2244  1.2534
18648TIP3   OH277358   5.278   5.270   1.993  0.4475  1.1037  0.0748
18648TIP3    H177359   5.306   5.344   2.047  0.5685  1.7934 -0.9046
18648TIP3    H277360   5.287   5.302   1.903  2.0941 -0.6540 -0.4466
18649TIP3   OH277361   4.438   2.545   1.764 -0.0441 -0.2305 -0.0716
18649TIP3    H177362   4.530   2.563   1.744 -0.0588 -0.7446 -0.6338
18649TIP3    H277363   4.389   2.591   1.695 -0.0790 -2.4225 -1.5948
18650TIP3   OH277364   1.230   5.046   3.532  0.2318 -0.0066 -0.8234
18650TIP3    H177365   1.300   5.077   3.590 -0.5584  1.0876 -0.4344
18650TIP3    H277366   1.269   4.972   3.486  1.7657  0.7983 -0.8800
18651TIP3   OH277367   4.967   3.649  12.634  0.2081  0.2542  0.0301
18651TIP3    H177368   4.947   3.567  12.679  0.2071  0.8021  1.0619
18651TIP3    H277369   4.911   3.648  12.556 -1.8507  0.5006  1.4264
18652TIP3   OH277370   1.899   3.625   3.100 -0.4279 -0.5566  0.0390
18652TIP3    H177371   1.948   3.559   3.150  0.9053  0.6648  0.4118
18652TIP3    H277372   1.834   3.658   3.162  0.6826  0.3709  0.7484
18653TIP3   OH277373   5.981   2.972   1.149  0.3145  0.0890  0.1436
18653TIP3    H177374   6.057   3.011   1.192  1.6343 -2.0160 -0.1827
18653TIP3    H277375   6.004   2.971   1.056  0.9601 -2.6159  0.2474
18654TIP3   OH277376   2.179   2.929   0.085 -0.6103 -0.0808 -0.3969
18654TIP3    H177377   2.239   2.986   0.038 -0.9743 -0.9120 -1.9103
18654TIP3    H277378   2.229   2.849   0.102 -0.8116 -0.1864 -0.2842
18655TIP3   OH277379   1.672   2.019  12.531 -0.1000  0.3194 -0.2568
18655TIP3    H177380   1.660   2.098  12.583 -0.2035  0.0322  0.1582
18655TIP3    H277381   1.731   2.046  12.460 -0.1332  0.7652 -0.1179
18656TIP3   OH277382   2.218   3.744   1.261 -0.2938  0.0340 -0.0415
18656TIP3    H177383   2.299   3.715   1.302 -0.9317  0.6704  1.7353
18656TIP3    H277384   2.245   3.770   1.172  1.0204 -1.8306 -0.2407
18657TIP3   OH277385   1.839   4.857   4.176 -0.1647 -0.0980 -0.0448
18657TIP3    H177386   1.845   4.933   4.118  2.5228  0.3547  0.6995
18657TIP3    H277387   1.869   4.890   4.261  1.5721 -2.0744  0.1786
18658TIP3   OH277388   0.062   2.439   3.287 -0.2360 -0.3532 -0.1487
18658TIP3    H177389   0.145   2.392   3.285 -0.1049 -0.2324  1.5125
18658TIP3    H277390  -0.003   2.373   3.309 -0.3022 -0.1086  0.4151
18659TIP3   OH277391   5.043   5.997   3.010 -0.0790  0.1849  0.4920
18659TIP3    H177392   5.084   5.943   3.078  0.4083 -0.0814 -0.0061
18659TIP3    H277393   5.044   5.942   2.932 -2.1855 -0.1568  0.6609
18660TIP3   OH277394   6.444   3.939   1.309 -0.9563  0.0767 -0.1305
18660TIP3    H177395   6.483   4.020   1.340 -0.1720  0.2119 -1.4203
18660TIP3    H277396   6.369   3.966   1.257 -1.3828 -0.0874  0.3871
18661TIP3   OH277397   2.491   4.866  12.969 -0.6039 -0.1957 -0.0546
18661TIP3    H177398   2.525   4.872  13.058  0.0547  0.4045 -0.3424
18661TIP3    H277399   2.428   4.938  12.962  1.0865  1.2787 -0.8097
18662TIP3   OH277400   4.615   6.134  11.768  0.1060  0.0734 -0.0926
18662TIP3    H177401   4.698   6.094  11.794 -0.3122 -1.4804 -1.0375
18662TIP3    H277402   4.635   6.228  11.762  1.4685 -0.1222  0.8708
18663TIP3   OH277403   3.026   0.022  13.272  0.4354  0.1038 -0.5568
18663TIP3    H177404   3.041   0.019  13.366  2.6785  1.0197 -0.8275
18663TIP3    H277405   2.959   0.089  13.260  1.0136  0.8575  0.3197
18664TIP3   OH277406   2.685   3.618   5.328  0.0948  0.0048  0.0539
18664TIP3    H177407   2.598   3.588   5.356 -0.6645  2.8586  1.0537
18664TIP3    H277408   2.667   3.677   5.255  1.1411  0.9807  0.5704
18665TIP3   OH277409   0.322   3.974  15.005  0.2651 -0.0272 -0.7932
18665TIP3    H177410   0.300   3.882  14.991  1.0823 -0.1934 -1.0271
18665TIP3    H277411   0.401   3.972  15.059  0.2747  0.5407 -0.7785
18666TIP3   OH277412   2.483   3.414   2.362 -0.3540 -0.0647 -0.3127
18666TIP3    H177413   2.530   3.333   2.345  0.3630  0.4295 -0.7312
18666TIP3    H277414   2.433   3.396   2.442  0.2750 -0.7120 -0.0523
18667TIP3   OH277415   0.175   1.587   4.701  0.3453  0.0905  0.1141
18667TIP3    H177416   0.119   1.568   4.625 -1.6092  1.3333  1.1553
18667TIP3    H277417   0.258   1.544   4.681 -0.5041 -0.6403 -2.1677
18668TIP3   OH277418   3.838   4.882  11.754  0.3181 -0.0415  0.6399
18668TIP3    H177419   3.882   4.946  11.698 -0.0091 -0.0070  0.4172
18668TIP3    H277420   3.855   4.913  11.843  0.6603  0.0236  0.5546
18669TIP3   OH277421   0.400   0.886   3.160  0.7024 -0.3301  0.0617
18669TIP3    H177422   0.395   0.796   3.191  0.0950 -1.0017 -1.8590
18669TIP3    H277423   0.373   0.882   3.069  1.9961  1.6051 -0.4727
18670TIP3   OH277424   3.061   6.010   3.126 -0.2373  0.7505  0.1231
18670TIP3    H177425   3.147   6.050   3.138  0.5716 -0.9480  0.3026
18670TIP3    H277426   3.026   6.002   3.214  0.1272 -0.0153  0.2039
18671TIP3   OH277427   6.469   0.760   0.640  0.2355 -0.6148 -0.4313
18671TIP3    H177428   6.377   0.770   0.615  0.1295 -1.1913 -0.2810
18671TIP3    H277429   6.509   0.843   0.613 -0.4757 -0.0463  0.1952
18672TIP3   OH277430   4.843   6.458   0.499 -0.3126  0.0774  0.4256
18672TIP3    H177431   4.793   6.382   0.469 -0.4659  0.2899  0.1387
18672TIP3    H277432   4.932   6.425   0.510 -0.0051  0.2454 -1.3399
18673TIP3   OH277433   3.830   6.684  11.438  0.5235  0.8365  0.0284
18673TIP3    H177434   3.858   6.768  11.475 -0.9073  0.7568  1.3760
18673TIP3    H277435   3.744   6.702  11.400 -0.3435 -0.2594  1.3960
18674TIP3   OH277436   5.614   0.274  13.790 -0.1340  0.1055  0.3591
18674TIP3    H177437   5.526   0.248  13.762  0.6874 -0.3274 -1.9712
18674TIP3    H277438   5.615   0.369  13.781  0.2705 -0.0550 -1.7612
18675TIP3   OH277439   1.148   6.215   5.629  0.0671 -0.1206 -0.5318
18675TIP3    H177440   1.170   6.303   5.659  3.4013 -0.9760 -0.0507
18675TIP3    H277441   1.093   6.229   5.552  0.7133  2.3882 -0.6151
18676TIP3   OH277442   2.335   3.556   1.726  0.0312 -0.0293 -0.0005
18676TIP3    H177443   2.352   3.507   1.645 -0.7656  1.3171 -1.0343
18676TIP3    H277444   2.421   3.588   1.754  0.3177 -0.5413 -0.2878
18677TIP3   OH277445   6.082   3.388   4.670 -0.6006  0.3660  0.4624
18677TIP3    H177446   6.069   3.294   4.681  0.7255  0.2080  0.8283
18677TIP3    H277447   6.024   3.428   4.736 -3.2013 -0.0335 -1.4097
18678TIP3   OH277448   4.857   1.548   5.418  0.0808  0.5780 -0.4512
18678TIP3    H177449   4.790   1.542   5.486 -0.5101  0.8384 -0.9958
18678TIP3    H277450   4.832   1.625   5.367  0.2623  0.1365 -1.2240
18679TIP3   OH277451   5.762   6.567   5.876  0.0213 -0.4628  0.1759
18679TIP3    H177452   5.770   6.614   5.959  0.6647 -0.9927  0.4284
18679TIP3    H277453   5.821   6.492   5.886 -0.6811 -1.0984 -0.3614
18680TIP3   OH277454   3.951   3.803   1.284  0.4679  0.2715  0.3000
18680TIP3    H177455   3.985   3.714   1.272 -1.6589 -0.5286 -0.2982
18680TIP3    H277456   3.955   3.842   1.197 -1.9671 -0.6077 -0.3144
18681TIP3   OH277457   2.912   0.870   1.953 -0.1796  0.5323 -0.5544
18681TIP3    H177458   2.845   0.813   1.991 -0.5296 -0.1245 -2.0816
18681TIP3    H277459   2.890   0.958   1.986 -0.8023  0.0801  0.2765
18682TIP3   OH277460   6.744   2.589  11.537 -0.5862  0.2838 -0.3182
18682TIP3    H177461   6.746   2.683  11.554 -0.5447  0.6589 -2.2084
18682TIP3    H277462   6.834   2.567  11.512 -0.4132 -0.4341  0.8735
18683TIP3   OH277463   0.207   4.763   5.042  0.0555 -0.6375 -0.2228
18683TIP3    H177464   0.282   4.777   4.984  0.4549 -1.6820  0.0118
18683TIP3    H277465   0.146   4.711   4.989 -0.3947 -0.0157 -0.3228
18684TIP3   OH277466   3.321   2.020  12.181  0.2474  0.0366 -0.1426
18684TIP3    H177467   3.262   2.010  12.256  2.0077  0.0595  1.3058
18684TIP3    H277468   3.265   2.056  12.112 -1.2391  0.9445  1.4399
18685TIP3   OH277469   5.956   1.236  12.270 -0.2609 -0.6816  0.0466
18685TIP3    H177470   5.926   1.326  12.257  0.0647 -0.4325  0.9365
18685TIP3    H277471   5.882   1.182  12.244 -0.4489 -0.1547 -0.5259
18686TIP3   OH277472   6.165   2.342  15.096 -0.5305 -0.7813  0.3079
18686TIP3    H177473   6.148   2.257  15.056  0.5087 -0.6407 -0.4789
18686TIP3    H277474   6.105   2.402  15.052 -0.2690 -0.8553 -0.1519
18687TIP3   OH277475   2.496   6.376  14.580  0.4037  0.6751 -0.2438
18687TIP3    H177476   2.487   6.335  14.494  1.1429 -0.3637  0.1481
18687TIP3    H277477   2.417   6.428  14.591 -2.4738 -3.3778  0.6667
18688TIP3   OH277478   1.666   4.093  13.227  0.8339 -0.1766 -0.0383
18688TIP3    H177479   1.617   4.024  13.182  0.4810 -0.9862  1.5196
18688TIP3    H277480   1.747   4.050  13.254  1.5561  0.6186 -0.8567
18689TIP3   OH277481   0.948   4.817  13.186  0.1038 -0.4020  0.0943
18689TIP3    H177482   1.037   4.811  13.152  0.0344  0.8802 -0.3581
18689TIP3    H277483   0.894   4.770  13.122  0.1625  0.7846 -0.8533
18690TIP3   OH277484   4.306   5.671   0.254 -0.0479  0.2397 -0.1423
18690TIP3    H177485   4.294   5.622   0.173 -3.4096  1.1785 -0.3489
18690TIP3    H277486   4.256   5.752   0.241  0.7260  1.1944  2.2514
18691TIP3   OH277487   2.423   4.912   3.237 -0.3518 -0.3697 -0.2150
18691TIP3    H177488   2.505   4.865   3.254  0.9461  1.9397  0.3503
18691TIP3    H277489   2.360   4.873   3.299  0.4640 -1.7262 -0.1839
18692TIP3   OH277490   3.579   6.731   2.249  0.0831  0.1277  0.1390
18692TIP3    H177491   3.514   6.675   2.292  0.7082 -0.8836 -0.2054
18692TIP3    H277492   3.662   6.684   2.260  0.5520  0.7715 -0.5633
18693TIP3   OH277493   5.447   3.380   2.801 -0.5093  1.0389  0.0206
18693TIP3    H177494   5.500   3.339   2.733 -2.2669  0.9355 -1.3362
18693TIP3    H277495   5.357   3.366   2.774 -1.2309  2.8067  1.2931
18694TIP3   OH277496   0.988   0.834   4.499  0.2303 -0.7504  0.4796
18694TIP3    H177497   0.988   0.771   4.571  2.8655 -1.0429  0.3299
18694TIP3    H277498   0.977   0.781   4.420 -0.3661 -0.6982  0.5280
18695TIP3   OH277499   2.492   4.403  12.192 -0.1308  0.1048 -0.3328
18695TIP3    H177500   2.515   4.441  12.276 -3.0123  1.4829 -0.0560
18695TIP3    H277501   2.485   4.309  12.209 -0.5489  0.3530  0.9476
18696TIP3   OH277502   2.940   4.106   4.671  0.7211  0.4961  0.1591
18696TIP3    H177503   2.879   4.082   4.602  0.6772 -0.0854  0.3954
18696TIP3    H277504   3.007   4.159   4.627  0.3985  0.5908 -0.2182
18697TIP3   OH277505   0.903   6.551  13.082  0.0793 -0.0691  0.0086
18697TIP3    H177506   0.831   6.598  13.124  1.0883 -0.4240  2.3467
18697TIP3    H277507   0.861   6.480  13.034 -1.1664  0.0749  0.8391
18698TIP3   OH277508   0.969   6.251  13.686 -0.3729  0.6258  0.2386
18698TIP3    H177509   0.989   6.280  13.775 -2.6373  0.1726  0.9608
18698TIP3    H277510   0.954   6.331  13.637 -1.8483  0.8481  1.0018
18699TIP3   OH277511   5.842   5.796   2.108  0.4621 -0.3296  0.3251
18699TIP3    H177512   5.828   5.829   2.197  0.8965 -0.5124  0.4632
18699TIP3    H277513   5.798   5.860   2.052  0.9331  0.2598  0.6163
18700TIP3   OH277514   6.269   0.174   1.312  0.1702 -1.0809  0.5574
18700TIP3    H177515   6.356   0.195   1.278 -0.0107 -1.5415 -0.2242
18700TIP3    H277516   6.249   0.089   1.273 -1.5550  0.0080 -1.0611
18701TIP3   OH277517   2.698   1.493  16.174  0.6983  0.3465  0.4957
18701TIP3    H177518   2.670   1.579  16.203 -0.3645 -0.3083  1.5289
18701TIP3    H277519   2.709   1.443  16.255 -3.3644 -1.8550 -0.0255
18702TIP3   OH277520   2.992   4.490  14.000  0.0668 -0.2327 -0.4541
18702TIP3    H177521   2.975   4.575  14.040 -1.3974  0.3287 -2.1388
18702TIP3    H277522   3.016   4.511  13.909 -0.3310 -1.6138 -0.9000
18703TIP3   OH277523   4.008   2.620  11.263 -0.1504  0.2979 -0.1664
18703TIP3    H177524   4.060   2.597  11.186  1.7733  0.8533  0.8912
18703TIP3    H277525   4.002   2.716  11.260  0.8386  0.4133  0.8797
18704TIP3   OH277526   4.754   5.790  13.278 -0.3216  0.0848 -0.1137
18704TIP3    H177527   4.808   5.787  13.357 -0.9082 -0.1936  0.2844
18704TIP3    H277528   4.720   5.880  13.275  1.2909  0.7098 -1.1546
18705TIP3   OH277529   6.693   4.651  15.905  0.3191 -0.3203 -0.0178
18705TIP3    H177530   6.604   4.628  15.931  0.4042  0.3588  0.9093
18705TIP3    H277531   6.696   4.633  15.811 -1.3505  1.3850 -0.4548
18706TIP3   OH277532   5.529   5.155  11.832 -0.3357 -0.3941  0.4573
18706TIP3    H177533   5.503   5.156  11.924 -0.5688 -1.0064  0.4076
18706TIP3    H277534   5.623   5.136  11.834 -0.3639 -0.5265  0.5678
18707TIP3   OH277535   5.388   4.560  15.596  0.2968 -0.0216 -0.5985
18707TIP3    H177536   5.302   4.519  15.583  0.5293 -0.0766 -2.1955
18707TIP3    H277537   5.451   4.488  15.586  0.5686  0.1884 -0.4142
18708TIP3   OH277538   0.551   5.003   5.479  0.1623 -0.0996 -0.2984
18708TIP3    H177539   0.462   5.026   5.504  0.4036  0.1231  0.3483
18708TIP3    H277540   0.545   4.987   5.384 -0.3834  0.7617 -0.4227
18709TIP3   OH277541   0.828   0.709  15.079  0.2646  0.7614 -0.3463
18709TIP3    H177542   0.826   0.805  15.088  0.5942  0.7000  0.5142
18709TIP3    H277543   0.828   0.677  15.170  0.6855 -0.0388 -0.6241
18710TIP3   OH277544   0.518   3.016  15.701 -0.5245 -0.1685 -0.2320
18710TIP3    H177545   0.566   3.028  15.782 -0.3574 -1.6962 -0.0787
18710TIP3    H277546   0.561   3.075  15.638 -0.5225  0.8608  0.7153
18711TIP3   OH277547   0.336   4.414   0.832  0.3780 -0.1222  0.4251
18711TIP3    H177548   0.265   4.350   0.823  1.2085 -1.0158  0.0039
18711TIP3    H277549   0.338   4.434   0.926 -1.6464  1.3881  0.2104
18712TIP3   OH277550   2.022   4.530  15.104  0.3482  0.0810  0.4739
18712TIP3    H177551   1.931   4.504  15.090  0.6334  0.3894 -2.5365
18712TIP3    H277552   2.016   4.622  15.129 -0.1647  0.3106 -0.4425
18713TIP3   OH277553   2.050   1.137  16.973 -0.2375  0.5730  0.1381
18713TIP3    H177554   2.109   1.178  16.910  1.0035 -1.0412  0.1921
18713TIP3    H277555   2.029   1.051  16.935 -1.7076  0.6727  0.6393
18714TIP3   OH277556   3.551   0.305  15.488 -0.1115  0.7164  0.3610
18714TIP3    H177557   3.604   0.252  15.428 -0.9086 -1.2409  1.2852
18714TIP3    H277558   3.519   0.378  15.435  0.8336  0.1348 -1.0517
18715TIP3   OH277559   2.797   3.345  12.485  0.5259 -0.8610 -0.1016
18715TIP3    H177560   2.862   3.413  12.501  0.6533 -0.3130 -2.6152
18715TIP3    H277561   2.738   3.382  12.419 -0.6296 -2.4355 -0.0248
18716TIP3   OH277562   2.803   1.433  12.481 -0.1334  0.6869 -0.6563
18716TIP3    H177563   2.826   1.424  12.388  0.0886  0.1761 -0.5530
18716TIP3    H277564   2.855   1.367  12.525  0.2024  1.3174 -0.0853
18717TIP3   OH277565   6.284   5.529   4.036 -0.4389  0.3011  0.2993
18717TIP3    H177566   6.366   5.567   4.065  0.0605  0.1032 -0.8177
18717TIP3    H277567   6.217   5.589   4.068  0.2846  1.7403 -0.7619
18718TIP3   OH277568   2.077   6.738   2.303  0.1670  0.1327 -0.0267
18718TIP3    H177569   2.052   6.651   2.272 -0.3843  0.1449  0.3796
18718TIP3    H277570   2.129   6.774   2.231 -1.3640  0.2946 -1.0997
18719TIP3   OH277571   4.490   3.555  12.693 -0.0880  0.0930 -0.1107
18719TIP3    H177572   4.433   3.562  12.769  1.6679  0.7743  1.2012
18719TIP3    H277573   4.516   3.645  12.673  1.7267 -0.2812  0.3210
18720TIP3   OH277574   4.226   0.930  15.493  0.2168  0.3162 -0.3982
18720TIP3    H177575   4.260   0.842  15.477 -1.2841 -0.6020  1.1882
18720TIP3    H277576   4.144   0.934  15.444  0.4335  0.9494 -0.7196
18721TIP3   OH277577   5.337   4.664  12.490 -0.5793 -0.1843 -0.0301
18721TIP3    H177578   5.285   4.638  12.566 -1.5881  2.4206  0.3001
18721TIP3    H277579   5.426   4.673  12.524 -0.0717 -3.3619 -0.2820
18722TIP3   OH277580   3.265   2.695   5.682 -0.2032  0.5215  0.1682
18722TIP3    H177581   3.314   2.755   5.739 -2.1239  0.6259  1.8277
18722TIP3    H277582   3.309   2.611   5.694 -0.3354  0.6201  1.5537
18723TIP3   OH277583   4.515   2.314  13.434 -0.3889  0.1203 -0.9386
18723TIP3    H177584   4.603   2.344  13.409 -0.3983  0.1913 -0.8858
18723TIP3    H277585   4.508   2.337  13.527  0.0376 -1.0478 -0.5998
18724TIP3   OH277586   4.000   3.815   4.411 -0.4371 -0.0825  0.3107
18724TIP3    H177587   3.911   3.845   4.431 -1.0967 -1.4815 -0.4137
18724TIP3    H277588   3.994   3.720   4.410  0.8691 -0.1865 -0.6485
18725TIP3   OH277589   5.887   0.922   2.558 -0.2174  0.0185  0.0909
18725TIP3    H177590   5.885   0.826   2.559 -0.4654  0.0213  0.6717
18725TIP3    H277591   5.799   0.948   2.588  0.6890  0.3875  2.6660
18726TIP3   OH277592   0.400   5.125  12.388 -0.5849  0.3451 -0.1243
18726TIP3    H177593   0.346   5.191  12.430 -0.1974 -0.2633  1.4213
18726TIP3    H277594   0.355   5.042  12.406  0.2676 -0.0541  0.2334
18727TIP3   OH277595   1.919   2.373  16.025 -0.6204 -0.0679 -0.1922
18727TIP3    H177596   1.881   2.393  15.939 -0.3272  1.7619  0.0634
18727TIP3    H277597   2.009   2.347  16.005 -0.6348  0.0835 -0.4684
18728TIP3   OH277598   1.964   2.343  15.466  0.2373  0.1051  0.1362
18728TIP3    H177599   1.871   2.362  15.454  0.6207  2.2368  0.1784
18728TIP3    H277600   1.984   2.373  15.554  1.2572  0.9741 -0.3695
18729TIP3   OH277601   0.387   4.926  15.750  0.0764  0.1146  0.2412
18729TIP3    H177602   0.435   5.008  15.738 -1.1491  0.6662 -1.0448
18729TIP3    H277603   0.295   4.950  15.740 -0.4252 -1.1446  1.4811
18730TIP3   OH277604   5.263   2.044  15.024  0.3434 -0.0049  1.0628
18730TIP3    H177605   5.304   2.131  15.023  0.4111 -0.0188  2.0591
18730TIP3    H277606   5.171   2.061  15.046 -0.3399  0.0595 -1.4984
18731TIP3   OH277607   2.253   4.428   5.296  1.0387 -0.2939 -0.6711
18731TIP3    H177608   2.294   4.436   5.382 -1.2091  1.2169  0.3338
18731TIP3    H277609   2.248   4.333   5.281  0.6089 -0.6218  1.3029
18732TIP3   OH277610   5.082   2.024  12.340 -0.0788  0.4535 -0.2800
18732TIP3    H177611   5.097   1.998  12.431 -0.9600 -0.5433 -0.4038
18732TIP3    H277612   4.990   2.003  12.324  0.3995 -0.6178 -1.7857
18733TIP3   OH277613   1.433   3.006   2.326 -0.6963  0.2043 -0.2278
18733TIP3    H177614   1.482   2.931   2.360  2.9783  2.2640 -0.4808
18733TIP3    H277615   1.439   3.072   2.394 -4.1754  0.2956  0.1371
18734TIP3   OH277616   1.885   1.912  14.913  0.2738 -0.2834 -0.3712
18734TIP3    H177617   1.970   1.870  14.900  0.9237  0.9784 -0.3493
18734TIP3    H277618   1.844   1.910  14.827  0.1097 -1.3022 -0.2873
18735TIP3   OH277619   6.394   2.735   5.319  0.6871 -0.7258  0.2152
18735TIP3    H177620   6.380   2.821   5.358 -1.5817 -0.9312 -0.0182
18735TIP3    H277621   6.432   2.753   5.233  1.0200 -0.0121  0.5122
18736TIP3   OH277622   4.269   2.081  16.728 -0.3313  0.0929  0.1108
18736TIP3    H177623   4.173   2.081  16.731 -0.3474  0.1250 -0.2764
18736TIP3    H277624   4.292   1.990  16.708 -0.3169  0.2495 -0.6079
18737TIP3   OH277625   0.684   2.393   4.182  0.3459  0.1761 -0.0366
18737TIP3    H177626   0.620   2.449   4.226  0.1659  0.3827 -0.5610
18737TIP3    H277627   0.754   2.453   4.156  0.7031 -0.0285  0.4251
18738TIP3   OH277628   4.095   2.035   4.602 -0.3373  0.3401  0.0524
18738TIP3    H177629   4.122   1.974   4.671  0.2001  0.1352 -0.3316
18738TIP3    H277630   4.104   1.985   4.521 -2.0921  0.1968 -0.0871
18739TIP3   OH277631   0.237   3.087   1.701  0.0337  0.1175  0.2954
18739TIP3    H177632   0.219   3.138   1.622 -0.3004  2.0166  1.5361
18739TIP3    H277633   0.327   3.111   1.725  0.8449 -1.8824 -0.4700
18740TIP3   OH277634   6.050   1.713  15.655  0.8492 -0.2696 -0.0882
18740TIP3    H177635   6.024   1.707  15.563  0.4578  0.8780 -0.0669
18740TIP3    H277636   6.000   1.644  15.698  1.8733 -1.5587 -0.8923
18741TIP3   OH277637   4.671   3.707  16.430 -0.0434  0.1622  0.1539
18741TIP3    H177638   4.609   3.650  16.384  0.0483 -0.0528  0.2960
18741TIP3    H277639   4.723   3.747  16.361  1.8684 -2.1361  0.1102
18742TIP3   OH277640   1.183   5.026   5.196  0.0250 -0.1359 -0.0419
18742TIP3    H177641   1.168   5.113   5.160  0.2769 -0.5709 -1.2592
18742TIP3    H277642   1.279   5.018   5.199  0.0384 -0.9249 -1.4399
18743TIP3   OH277643   3.768   4.033   3.358  0.5300 -0.2349  0.9250
18743TIP3    H177644   3.820   4.111   3.375 -2.2717  2.0618 -0.0647
18743TIP3    H277645   3.699   4.035   3.424  0.3931 -1.9497  0.8961
18744TIP3   OH277646   3.602   3.194   2.647  0.3659  0.1584  0.4573
18744TIP3    H177647   3.637   3.107   2.667 -0.6998  0.0900  2.3214
18744TIP3    H277648   3.524   3.178   2.595  0.4804  0.0395  0.3215
18745TIP3   OH277649   1.728   4.367   5.936 -0.6414 -0.4172  0.1206
18745TIP3    H177650   1.640   4.328   5.934  0.8327 -4.0855 -0.5393
18745TIP3    H277651   1.757   4.363   5.845  0.5418 -0.0211  0.4729
18746TIP3   OH277652   3.568   2.313   4.033  0.6800  0.6144  0.1753
18746TIP3    H177653   3.657   2.340   4.059  1.6003 -2.4050  0.5623
18746TIP3    H277654   3.511   2.373   4.081  2.4854  1.5983  1.2562
18747TIP3   OH277655   0.631   4.229  15.161  0.0965 -0.1821 -0.9371
18747TIP3    H177656   0.597   4.250  15.247 -0.9348 -1.6284 -0.9538
18747TIP3    H277657   0.714   4.277  15.155 -0.9384  1.7950 -0.0914
18748TIP3   OH277658   5.530   1.243  11.749 -0.4650 -0.6059  0.0418
18748TIP3    H177659   5.614   1.285  11.730 -0.5662 -0.2121  0.4413
18748TIP3    H277660   5.536   1.157  11.708 -0.0898 -0.3601 -0.4218
18749TIP3   OH277661   3.760   1.643   3.811 -0.5060  0.1130 -0.8061
18749TIP3    H177662   3.705   1.715   3.843  0.5099  0.8635 -0.6838
18749TIP3    H277663   3.841   1.651   3.862 -0.1626 -0.7738 -1.1958
18750TIP3   OH277664   6.141   0.113  16.405  0.1049 -0.2946 -0.3251
18750TIP3    H177665   6.217   0.069  16.443 -1.0021 -0.1060  2.3373
18750TIP3    H277666   6.116   0.057  16.331 -0.1588 -3.2760  1.8231
18751TIP3   OH277667   4.399   5.509   4.474  0.4481  0.0956 -0.2065
18751TIP3    H177668   4.413   5.559   4.394 -1.6610  1.6813  0.3381
18751TIP3    H277669   4.318   5.461   4.459  0.8969 -0.8855  0.4004
18752TIP3   OH277670   0.687   1.403  11.554  0.2942 -0.0715 -0.1232
18752TIP3    H177671   0.712   1.310  11.556  0.0047 -0.1776 -1.1350
18752TIP3    H277672   0.596   1.404  11.586  0.2898 -0.1377 -0.1347
18753TIP3   OH277673   0.135   1.448   3.400 -0.6774  0.6738 -0.4489
18753TIP3    H177674   0.199   1.519   3.398  0.1265 -0.0270 -0.1965
18753TIP3    H277675   0.067   1.478   3.460 -0.3128  1.2082 -0.3042
18754TIP3   OH277676   0.687   1.592  16.398  0.1283  0.5109 -0.4747
18754TIP3    H177677   0.616   1.544  16.356 -0.3522  1.2879 -0.5583
18754TIP3    H277678   0.715   1.656  16.332  1.3841 -0.2366 -0.7094
18755TIP3   OH277679   6.186   2.498   3.685 -0.2915 -0.0799 -0.6027
18755TIP3    H177680   6.112   2.501   3.746 -1.1770 -0.4137 -1.6179
18755TIP3    H277681   6.155   2.442   3.614  0.7936  0.1292 -1.2581
18756TIP3   OH277682   4.060   0.996   4.423  0.1646 -0.3706 -0.0531
18756TIP3    H177683   4.066   1.077   4.371  1.7206 -0.8133 -0.6173
18756TIP3    H277684   3.978   0.955   4.394 -0.8494  1.1658  0.5249
18757TIP3   OH277685   0.111   0.772   4.163 -0.0645 -0.2062 -0.1621
18757TIP3    H177686   0.097   0.720   4.243  1.4605 -0.1304  0.1765
18757TIP3    H277687   0.206   0.784   4.158 -0.3324  2.8508 -0.0202
18758TIP3   OH277688   4.823   6.802   5.109  0.2900 -0.0077 -0.5228
18758TIP3    H177689   4.863   6.835   5.190 -0.0873  2.1115 -1.1442
18758TIP3    H277690   4.888   6.741   5.073  1.4562  0.7686  0.2113
18759TIP3   OH277691   0.860   1.197   3.029  0.3655  0.0101  0.1851
18759TIP3    H177692   0.950   1.173   3.004  0.5696 -1.0012  1.7663
18759TIP3    H277693   0.814   1.113   3.035 -0.6745  0.5106 -0.4528
18760TIP3   OH277694   3.147   6.691  14.877  0.2606  0.2441  0.1936
18760TIP3    H177695   3.157   6.639  14.956  1.0303 -0.3068 -0.2466
18760TIP3    H277696   3.236   6.712  14.851  0.0595 -0.1203 -0.8627
18761TIP3   OH277697   1.767   0.040  11.336 -0.0974  0.0152 -0.1164
18761TIP3    H177698   1.693   0.000  11.292  0.1826  1.7660 -2.3331
18761TIP3    H277699   1.838  -0.023  11.326 -0.8843 -1.0396  0.7717
18762TIP3   OH277700   5.330   3.167   5.128 -0.2173 -0.1589 -0.0603
18762TIP3    H177701   5.388   3.242   5.113  0.4096 -1.1810 -3.8298
18762TIP3    H277702   5.389   3.093   5.141 -0.8270 -0.3049  2.2762
18763TIP3   OH277703   1.492   3.470  15.418 -0.9363 -0.1097  0.0064
18763TIP3    H177704   1.431   3.511  15.358 -1.0762 -0.0492  0.1874
18763TIP3    H277705   1.562   3.436  15.363  0.1366  1.9708 -0.0166
18764TIP3   OH277706   2.634   0.773   2.404 -0.1873 -0.8068  0.1492
18764TIP3    H177707   2.579   0.702   2.437  0.0274 -0.3453  1.6048
18764TIP3    H277708   2.581   0.852   2.416 -0.3045 -0.6700 -1.1648
18765TIP3   OH277709   4.208   3.213   3.008  0.0956  0.1593  0.3689
18765TIP3    H177710   4.184   3.262   3.086  0.7507  0.5945  0.3082
18765TIP3    H277711   4.303   3.226   3.000  0.8388 -3.2970  1.8813
18766TIP3   OH277712   6.422   3.978   3.540 -0.4758 -0.0016 -0.2953
18766TIP3    H177713   6.491   3.936   3.489 -1.2828 -0.1628 -1.2863
18766TIP3    H277714   6.419   4.068   3.506 -1.2160 -0.1926 -0.7488
18767TIP3   OH277715   2.153   5.750  13.722 -0.3278 -0.3298 -0.3775
18767TIP3    H177716   2.177   5.757  13.815 -1.6586  0.3454 -0.0587
18767TIP3    H277717   2.130   5.657  13.711  1.1230 -0.7163 -0.3937
18768TIP3   OH277718   3.114   2.580  12.005 -0.1756  0.4344  0.5659
18768TIP3    H177719   3.199   2.616  11.980  0.5353 -2.4894 -1.7027
18768TIP3    H277720   3.053   2.614  11.940 -0.2487  0.5076  0.6721
18769TIP3   OH277721   5.447   0.577  10.999  0.4222  0.1809 -0.0620
18769TIP3    H177722   5.402   0.649  10.956  0.6823  0.2577 -0.2080
18769TIP3    H277723   5.402   0.498  10.967  0.4992  0.2480 -0.3368
18770TIP3   OH277724   1.915   2.629  14.005  0.5663  0.0412 -0.0243
18770TIP3    H177725   1.884   2.538  14.004 -1.4290  0.6589  0.8910
18770TIP3    H277726   1.837   2.681  13.989  1.7352  1.6103 -0.8379
18771TIP3   OH277727   3.914   0.856   1.780  0.1290  0.5450 -0.0421
18771TIP3    H177728   3.996   0.820   1.812 -0.0965  0.8891  0.9293
18771TIP3    H277729   3.939   0.934   1.731  0.3738  0.6943  0.3197
18772TIP3   OH277730   2.211   4.176  12.076  0.2156  0.4226  0.7543
18772TIP3    H177731   2.150   4.157  12.005  0.2481  2.2860  0.1495
18772TIP3    H277732   2.158   4.176  12.155  0.0274 -0.8854  0.6508
18773TIP3   OH277733   6.697   3.013   1.077 -0.0309 -0.2243 -0.3497
18773TIP3    H177734   6.634   3.084   1.089 -1.4653 -1.1977 -1.6263
18773TIP3    H277735   6.754   3.018   1.154  0.7606  3.0719 -0.9999
18774TIP3   OH277736   3.843   2.977  12.593 -0.0385  0.0922 -0.3025
18774TIP3    H177737   3.749   2.964  12.607  0.0224 -0.3969 -0.3243
18774TIP3    H277738   3.883   2.953  12.677 -0.1023  2.6816  0.5680
18775TIP3   OH277739   0.654   3.490  12.848 -0.5375 -0.3049 -0.8795
18775TIP3    H177740   0.614   3.417  12.802  1.8548 -1.7569 -0.7933
18775TIP3    H277741   0.653   3.562  12.785 -4.2395  0.1956 -0.4877
18776TIP3   OH277742   5.455   3.755  16.073 -0.1353 -0.2297 -0.3014
18776TIP3    H177743   5.421   3.777  16.160  0.0096  0.2945 -0.3756
18776TIP3    H277744   5.446   3.659  16.068  1.5980 -0.5046  1.0292
18777TIP3   OH277745   0.038   3.968   3.172 -0.6305  0.0501 -0.0468
18777TIP3    H177746   0.052   4.016   3.091 -1.4834 -0.1812 -0.3399
18777TIP3    H277747   0.049   3.876   3.148  1.3177  0.0776  0.5758
18778TIP3   OH277748   4.588   0.582  12.177 -0.0662  0.2897 -0.1641
18778TIP3    H177749   4.596   0.668  12.219  0.7376  0.3584 -0.4447
18778TIP3    H277750   4.581   0.521  12.250 -0.0750  0.5393  0.0469
18779TIP3   OH277751   1.822   0.415   3.680 -0.2031  0.3235 -0.0210
18779TIP3    H177752   1.893   0.421   3.616  0.2440  2.1237  0.5730
18779TIP3    H277753   1.787   0.504   3.684 -1.6026 -0.2284  0.7171
18780TIP3   OH277754   0.567   4.976   5.205  0.0995  0.2655 -0.3647
18780TIP3    H177755   0.654   4.999   5.173  1.4387  2.9950  4.2721
18780TIP3    H277756   0.509   5.043   5.168  0.7982  0.9503 -0.2548
18781TIP3   OH277757   0.681   0.041   6.815 -0.9608  0.0068  0.8183
18781TIP3    H177758   0.611   0.013   6.874 -0.9035 -1.0492  0.4115
18781TIP3    H277759   0.693  -0.033   6.756 -1.2209  1.1242 -0.7205
18782TIP3   OH277760   2.179   2.490   1.657 -0.4499  0.2570 -0.2165
18782TIP3    H177761   2.162   2.396   1.660  1.0596 -0.0163  1.8801
18782TIP3    H277762   2.261   2.498   1.607 -0.1808  0.3599  0.2304
18783TIP3   OH277763   0.740   2.752  11.998  0.3757 -0.7054  0.5807
18783TIP3    H177764   0.769   2.821  11.939  1.0498 -1.0256  0.5310
18783TIP3    H277765   0.765   2.670  11.955 -0.6743 -1.0028  0.4998
18784TIP3   OH277766   2.259   1.868  16.095 -0.3962  0.0440  0.2287
18784TIP3    H177767   2.255   1.963  16.098 -0.4110  0.0705 -0.5222
18784TIP3    H277768   2.168   1.840  16.086 -0.4359 -0.0650  0.9134
18785TIP3   OH277769   6.036   3.426   4.084  0.2228 -0.0318  0.1058
18785TIP3    H177770   6.107   3.487   4.106 -0.4280  0.4938  0.7914
18785TIP3    H277771   5.991   3.467   4.010 -0.4837  0.5570  0.8454
18786TIP3   OH277772   2.312   6.329  16.504  0.4545  0.1264 -0.3050
18786TIP3    H177773   2.304   6.257  16.567 -0.4301 -0.4737 -1.0730
18786TIP3    H277774   2.398   6.317  16.464  0.0866 -0.8650 -0.8310
18787TIP3   OH277775   2.783   6.768   2.751 -0.1847 -0.1233 -0.4756
18787TIP3    H177776   2.792   6.863   2.747 -0.7548 -0.0393  0.0397
18787TIP3    H277777   2.732   6.745   2.673  1.9624 -0.2977 -1.9153
18788TIP3   OH277778   3.842   6.687   2.758 -0.2327  0.3295  0.2222
18788TIP3    H177779   3.921   6.637   2.781 -0.9984 -0.3107  1.5656
18788TIP3    H277780   3.862   6.776   2.784  0.7593  0.5789 -1.2514
18789TIP3   OH277781   0.664   4.193   2.725  0.5095 -0.0610  0.0929
18789TIP3    H177782   0.588   4.232   2.681  1.2859  2.6842  1.0438
18789TIP3    H277783   0.727   4.178   2.654  0.2097  0.4136 -0.2807
18790TIP3   OH277784   1.122   0.259   2.917  0.1112 -0.0325  0.4574
18790TIP3    H177785   1.080   0.329   2.967 -2.4258 -0.3089 -1.0974
18790TIP3    H277786   1.089   0.178   2.955 -2.1591 -0.2472 -1.7213
18791TIP3   OH277787   4.784   5.506   0.646  0.1415  0.5557  0.1032
18791TIP3    H177788   4.755   5.444   0.713  1.3060  0.9930  1.0456
18791TIP3    H277789   4.879   5.502   0.650  0.2529 -0.1128 -2.2072
18792TIP3   OH277790   5.496   0.629   1.138  0.4349 -0.3115  0.6933
18792TIP3    H177791   5.572   0.594   1.091  0.5245 -0.0422  0.6395
18792TIP3    H277792   5.425   0.568   1.116  0.6045 -0.4964  0.6487
18793TIP3   OH277793   0.048   0.205  14.368 -0.1507  0.1423 -0.1487
18793TIP3    H177794   0.072   0.199  14.276  1.4003 -0.8791  0.2768
18793TIP3    H277795  -0.027   0.264  14.370 -2.2736 -2.2361 -2.4208
18794TIP3   OH277796   2.992   1.998   3.728 -0.1235  0.3152 -0.5695
18794TIP3    H177797   3.080   2.020   3.758 -0.6919  0.5856  1.0250
18794TIP3    H277798   2.953   1.949   3.801 -1.2953  0.2206 -1.2258
18795TIP3   OH277799   4.822   3.993  11.210 -0.6232 -0.0453 -0.1002
18795TIP3    H177800   4.811   4.078  11.168  0.5762 -0.1004 -0.5583
18795TIP3    H277801   4.831   3.931  11.137  0.3002 -0.2998  0.2095
18796TIP3   OH277802   2.602   2.226   5.772 -0.0365 -0.0869 -0.5030
18796TIP3    H177803   2.554   2.188   5.846 -1.2897 -4.0559 -2.9858
18796TIP3    H277804   2.534   2.243   5.706  1.3665 -0.6217 -2.1688
18797TIP3   OH277805   0.478   1.482   1.847 -0.5244  0.2999 -0.2730
18797TIP3    H177806   0.397   1.463   1.799 -1.7629 -0.3628  1.9497
18797TIP3    H277807   0.520   1.552   1.797 -1.7904 -0.2526 -2.2133
18798TIP3   OH277808   4.121   0.597   0.631 -0.1354  0.3476  0.0748
18798TIP3    H177809   4.201   0.546   0.613  0.2911  0.7897  0.7081
18798TIP3    H277810   4.081   0.553   0.706 -1.9179 -1.4947 -1.8013
18799TIP3   OH277811   0.759   4.604   4.741  0.2554  0.2251 -0.3445
18799TIP3    H177812   0.784   4.688   4.778  3.1206 -0.7200  0.0426
18799TIP3    H277813   0.722   4.626   4.655 -1.5050  2.0048  0.7787
18800TIP3   OH277814   6.100   1.005  13.239  0.3920 -0.0578  0.4149
18800TIP3    H177815   6.008   1.023  13.263  0.1056 -0.9321  0.0000
18800TIP3    H277816   6.145   1.088  13.256 -0.3957  0.2692  1.0104
18801TIP3   OH277817   2.888   1.560   6.159  0.2309 -0.5857 -0.6629
18801TIP3    H177818   2.884   1.623   6.231  0.1451  0.2972 -1.4281
18801TIP3    H277819   2.862   1.477   6.199 -0.3025 -0.0144  0.2122
18802TIP3   OH277820   2.932   3.382  11.952 -0.1111  0.6084  0.2052
18802TIP3    H177821   2.867   3.388  11.881  0.0735  0.4508  0.0223
18802TIP3    H277822   2.996   3.451  11.931 -0.2599  0.8155  0.4282
18803TIP3   OH277823   4.565   5.304   6.256  0.2300 -0.0394 -0.1577
18803TIP3    H177824   4.488   5.282   6.205  1.3923 -2.2906 -1.0726
18803TIP3    H277825   4.565   5.243   6.330 -0.9895  2.6432  2.2478
18804TIP3   OH277826   4.325   1.299  11.164  0.9216  0.5210  0.2982
18804TIP3    H177827   4.237   1.263  11.172  0.3277  1.5110 -1.4338
18804TIP3    H277828   4.325   1.376  11.221 -0.7511  2.9405 -2.6508
18805TIP3   OH277829   6.174   1.684  13.231 -0.0708  0.3805  0.1597
18805TIP3    H177830   6.084   1.714  13.244 -0.1389  0.6441 -0.8486
18805TIP3    H277831   6.226   1.732  13.295 -0.8235 -0.7639  1.6802
18806TIP3   OH277832   5.818   5.211   0.323 -0.0967 -0.6333  0.1625
18806TIP3    H177833   5.735   5.226   0.277 -1.2269 -1.2505  1.8966
18806TIP3    H277834   5.792   5.171   0.406  1.8985 -0.0235  1.1283
18807TIP3   OH277835   0.359   3.435  15.534 -0.6579 -0.5790 -0.2956
18807TIP3    H177836   0.432   3.450  15.474 -1.2509 -1.7562 -1.3646
18807TIP3    H277837   0.284   3.416  15.477 -1.6956  0.0896  0.7795
18808TIP3   OH277838   0.817   5.572  13.548 -0.4876 -0.4280  0.2458
18808TIP3    H177839   0.733   5.525  13.542 -0.6412  0.0143 -2.5865
18808TIP3    H277840   0.794   5.664  13.538  0.3958 -0.4564 -4.6069
18809TIP3   OH277841   2.774   6.767  15.998  0.1775 -0.2679 -0.1339
18809TIP3    H177842   2.812   6.716  16.069  0.4600 -0.9956 -0.7936
18809TIP3    H277843   2.766   6.856  16.033  2.1831 -0.1593  0.1284
18810TIP3   OH277844   5.487   4.797   2.289  0.5750  0.1785  0.0212
18810TIP3    H177845   5.492   4.851   2.211 -0.2122  0.1824 -0.0387
18810TIP3    H277846   5.393   4.790   2.307  0.7313 -0.0888  0.7764
18811TIP3   OH277847   0.510   4.188  10.617  0.1351  0.1817  0.4005
18811TIP3    H177848   0.457   4.135  10.557 -0.0159  1.3646 -0.5420
18811TIP3    H277849   0.597   4.149  10.614 -0.3623 -1.0286  1.0168
18812TIP3   OH277850   0.993   2.745   4.439  0.7349  0.4925 -0.7920
18812TIP3    H177851   0.990   2.651   4.421 -1.5177  0.8111 -2.5243
18812TIP3    H277852   1.065   2.778   4.386 -0.3884  0.1423 -2.5910
18813TIP3   OH277853   5.595   6.694  11.098 -0.0234  0.3032 -0.0085
18813TIP3    H177854   5.623   6.626  11.036  0.7852  0.2345  0.4195
18813TIP3    H277855   5.565   6.766  11.043  0.0293 -0.0225 -0.4718
18814TIP3   OH277856   6.172   2.225   5.271 -0.2539 -0.3845  0.0077
18814TIP3    H177857   6.244   2.288   5.272 -0.6166  0.0267  1.5557
18814TIP3    H277858   6.209   2.148   5.226  0.4444  0.6014 -1.1703
18815TIP3   OH277859   4.578   1.525   2.978 -0.1568 -0.1779  0.0283
18815TIP3    H177860   4.647   1.473   3.019  0.2475 -0.1560 -0.6196
18815TIP3    H277861   4.575   1.494   2.887  0.4122  1.2511 -0.5073
18816TIP3   OH277862   0.978   0.533   0.167 -0.0499 -0.4015  0.2258
18816TIP3    H177863   0.995   0.458   0.111 -0.1592 -0.7171  0.6095
18816TIP3    H277864   0.994   0.609   0.111  1.1403 -0.6939  0.1340
18817TIP3   OH277865   4.852   6.156  16.565 -0.2463  0.3056  0.2067
18817TIP3    H177866   4.756   6.153  16.564 -0.2707 -1.9008  1.2403
18817TIP3    H277867   4.878   6.098  16.494  0.2707 -0.0650  0.6839
18818TIP3   OH277868   3.957   2.085  15.643 -0.4858  0.0109 -0.0555
18818TIP3    H177869   3.902   2.012  15.612  1.4239 -0.9487 -1.3534
18818TIP3    H277870   3.969   2.139  15.565  0.1224  0.3964  0.3080
18819TIP3   OH277871   0.193   2.490  11.447  0.1595  0.4660  0.4571
18819TIP3    H177872   0.229   2.579  11.456 -0.4067  0.4984  2.9527
18819TIP3    H277873   0.254   2.434  11.494 -0.3769 -0.2388  0.3361
18820TIP3   OH277874   2.545   4.363  13.676 -0.3403  0.1193  0.7214
18820TIP3    H177875   2.537   4.386  13.583  2.0152 -1.6328 -0.0158
18820TIP3    H277876   2.563   4.269  13.676 -3.1917 -0.5877  3.1966
18821TIP3   OH277877   5.372   2.945   1.735 -0.0432 -0.3672  0.0974
18821TIP3    H177878   5.288   2.990   1.719  0.0902 -0.3767 -0.6602
18821TIP3    H277879   5.409   2.933   1.648  0.5744 -0.7065  0.4061
18822TIP3   OH277880   0.665   1.726  14.079 -0.1702  0.0894  0.7737
18822TIP3    H177881   0.751   1.739  14.120  0.3497 -2.1956  0.5455
18822TIP3    H277882   0.682   1.666  14.006 -2.0309 -0.8672  1.0712
18823TIP3   OH277883   6.398   3.442  14.559 -0.0381 -0.5126 -0.0243
18823TIP3    H177884   6.423   3.352  14.576  1.6925  0.1651  1.3666
18823TIP3    H277885   6.461   3.494  14.609 -1.2932  1.4566 -0.3865
18824TIP3   OH277886   2.267   2.480   3.794 -0.3434 -0.3486  0.3754
18824TIP3    H177887   2.312   2.492   3.710  0.4196 -1.4094  0.6150
18824TIP3    H277888   2.180   2.517   3.779 -0.2006 -0.4621 -0.8709
18825TIP3   OH277889   3.833   6.670   1.478  0.6009  0.3399  0.1011
18825TIP3    H177890   3.807   6.762   1.486  0.0977  0.0880  1.5188
18825TIP3    H277891   3.874   6.649   1.562  4.0319  0.2514 -1.3970
18826TIP3   OH277892   4.294   4.432   3.853 -0.4663  0.0617 -0.5329
18826TIP3    H177893   4.257   4.374   3.919 -0.0187 -1.3870 -1.5041
18826TIP3    H277894   4.378   4.459   3.890 -0.0553 -1.0253 -0.6326
18827TIP3   OH277895   6.701   3.449   3.109  0.1206  0.2528 -0.0530
18827TIP3    H177896   6.766   3.389   3.072 -1.7979 -0.9874 -1.6610
18827TIP3    H277897   6.619   3.400   3.103 -0.5464  0.1323  5.4547
18828TIP3   OH277898   1.825   6.106   4.445  0.3653  0.1312  0.4211
18828TIP3    H177899   1.797   6.169   4.378 -2.2420 -0.9951  0.3232
18828TIP3    H277900   1.906   6.143   4.480 -1.6970  4.3636  1.4198
18829TIP3   OH277901   6.585   0.468  16.778 -0.3717 -0.3026  0.1163
18829TIP3    H177902   6.628   0.388  16.750 -0.1252  0.2480 -1.1226
18829TIP3    H277903   6.572   0.518  16.698 -1.3544  0.4967  0.7559
18830TIP3   OH277904   0.537   3.734   1.190 -0.2777  0.4633 -0.5064
18830TIP3    H177905   0.591   3.813   1.201 -1.5902  1.3501 -0.1352
18830TIP3    H277906   0.600   3.663   1.181  0.9704  1.6342 -1.5604
18831TIP3   OH277907   6.678   6.395  15.898 -0.1923  0.0388  0.0750
18831TIP3    H177908   6.682   6.457  15.971  2.6288  0.3892 -0.2473
18831TIP3    H277909   6.682   6.309  15.940  2.2707  0.2429  0.4310
18832TIP3   OH277910   3.072   5.673   0.106  0.0901 -0.6372  0.0254
18832TIP3    H177911   3.069   5.589   0.060  0.2581 -0.8315  0.3713
18832TIP3    H277912   3.102   5.735   0.039 -0.5933 -0.7444 -0.3839
18833TIP3   OH277913   6.288   3.767   5.172 -0.0880  0.6245 -0.4510
18833TIP3    H177914   6.266   3.677   5.197 -0.1775  0.2394 -1.7951
18833TIP3    H277915   6.266   3.771   5.079 -1.1783  2.3981 -0.1519
18834TIP3   OH277916   4.575   4.622   1.842  0.0499 -0.2419  0.0255
18834TIP3    H177917   4.558   4.677   1.918  0.5814  0.5080 -0.3800
18834TIP3    H277918   4.599   4.537   1.878 -0.1259 -0.0159  0.6832
18835TIP3   OH277919   3.724   1.163   1.713  0.1266 -0.1284 -0.5336
18835TIP3    H177920   3.699   1.256   1.713 -0.5329 -0.3042 -0.8506
18835TIP3    H277921   3.699   1.133   1.801 -1.7164 -0.5398 -1.1611
18836TIP3   OH277922   2.065   1.229   0.725 -0.4947  0.6147 -1.1098
18836TIP3    H177923   2.023   1.147   0.698  0.2111 -0.0720 -0.1894
18836TIP3    H277924   2.151   1.202   0.758 -1.3394  1.3517  1.9479
18837TIP3   OH277925   0.053   4.872   1.675 -0.1446  0.2006 -0.0101
18837TIP3    H177926   0.052   4.779   1.695  0.3971 -0.2777 -1.9410
18837TIP3    H277927   0.115   4.880   1.602 -0.2991  2.0425  0.0129
18838TIP3   OH277928   6.777   3.981  16.980 -0.1215  0.3768  0.2509
18838TIP3    H177929   6.694   3.969  16.934  0.1348  1.1877 -0.4568
18838TIP3    H277930   6.778   3.913  17.047 -1.7731  0.8940  0.8612
18839TIP3   OH277931   3.559   5.554  14.451  0.1514 -0.1204 -0.2074
18839TIP3    H177932   3.514   5.502  14.384 -0.4274  0.5326 -0.3345
18839TIP3    H277933   3.512   5.638  14.452  1.7526  0.8338 -0.8080
18840TIP3   OH277934   4.987   2.834  10.670 -0.2324 -0.5480  0.4087
18840TIP3    H177935   5.021   2.910  10.718 -0.2749 -1.0824  1.2976
18840TIP3    H277936   5.047   2.823  10.597  0.5835 -0.4980  1.0548
18841TIP3   OH277937   0.732   3.907   5.023 -0.0958 -0.3032 -0.7587
18841TIP3    H177938   0.757   3.836   4.965 -0.2931 -0.3733 -0.7586
18841TIP3    H277939   0.811   3.925   5.075  0.2070  0.0256 -1.3150
18842TIP3   OH277940   6.269   0.632   2.677 -0.0443 -0.1474 -0.0118
18842TIP3    H177941   6.363   0.628   2.692 -0.0565  0.8548  0.3969
18842TIP3    H277942   6.236   0.550   2.712  0.6524 -0.4253  0.0078
18843TIP3   OH277943   4.200   4.020   1.333  0.1587  0.4699 -0.5325
18843TIP3    H177944   4.107   4.004   1.348  0.1493  1.3368  0.4595
18843TIP3    H277945   4.204   4.108   1.295  0.4362 -0.4090 -2.6399
18844TIP3   OH277946   4.760   6.032   3.125 -0.2152 -0.4578  0.0487
18844TIP3    H177947   4.752   5.937   3.135  0.8861 -0.5319  0.2515
18844TIP3    H277948   4.844   6.045   3.082  0.1133  0.4915  0.9479
18845TIP3   OH277949   0.212   5.337   0.616 -0.3204 -0.2321 -0.4557
18845TIP3    H177950   0.148   5.274   0.649 -0.8665 -0.1623 -1.3337
18845TIP3    H277951   0.219   5.403   0.684 -0.4384 -0.7557  0.0737
18846TIP3   OH277952   2.470   5.234   5.210 -0.1063 -0.6843  0.4826
18846TIP3    H177953   2.474   5.297   5.282 -1.4863  0.5188 -0.4374
18846TIP3    H277954   2.495   5.284   5.132  0.5670 -1.7568 -0.0175
18847TIP3   OH277955   3.360   6.106  13.244 -0.3330  0.0070  0.9235
18847TIP3    H177956   3.380   6.060  13.325 -1.6508  0.4165  1.5079
18847TIP3    H277957   3.289   6.167  13.267 -0.7629  0.1115 -0.5330
18848TIP3   OH277958   4.831   6.021  13.112  0.0450  0.0500  0.0439
18848TIP3    H177959   4.763   5.968  13.071 -0.7879  0.9655  0.1809
18848TIP3    H277960   4.913   5.983  13.083 -0.5225 -0.1943 -1.3254
18849TIP3   OH277961   1.491   3.754   6.173 -0.0658  0.4027 -0.0436
18849TIP3    H177962   1.401   3.739   6.146  0.2827  3.0956 -3.3368
18849TIP3    H277963   1.489   3.837   6.222  0.4251 -0.5865  1.7650
18850TIP3   OH277964   6.813   3.068   3.078 -0.0539  0.2952  0.8854
18850TIP3    H177965   6.860   3.149   3.064 -0.5347  0.6638  1.3179
18850TIP3    H277966   6.831   3.014   3.001 -0.3059  1.0951  0.2560
18851TIP3   OH277967   4.655   4.834  11.241  0.3284 -0.2761  0.1468
18851TIP3    H177968   4.651   4.823  11.146  2.5284  0.9815 -0.1582
18851TIP3    H277969   4.657   4.929  11.254  2.5896 -0.4135  1.2425
18852TIP3   OH277970   4.189   3.983  14.215  1.4874  0.0404 -0.3068
18852TIP3    H177971   4.203   4.004  14.307  0.0285  0.1311 -0.0889
18852TIP3    H277972   4.097   3.956  14.209  2.0972 -2.1224 -1.3342
18853TIP3   OH277973   1.211   0.174  13.125 -0.0064  0.4232  0.3468
18853TIP3    H177974   1.181   0.139  13.209  0.3495 -1.0971 -0.1268
18853TIP3    H277975   1.192   0.105  13.062  0.6820  1.1155 -0.6595
18854TIP3   OH277976   6.013   5.632   3.759  0.2858  0.0448 -0.7917
18854TIP3    H177977   5.945   5.674   3.706  0.4456 -0.2487 -1.2366
18854TIP3    H277978   6.051   5.704   3.810  1.0842  0.6062 -2.1123
18855TIP3   OH277979   1.313   2.743  12.358 -0.8033 -0.1646 -0.5178
18855TIP3    H177980   1.242   2.757  12.295 -1.0484  0.7512 -0.0453
18855TIP3    H277981   1.393   2.749  12.306 -1.0106  0.4395 -0.7688
18856TIP3   OH277982   3.995   5.249  14.495  0.3485 -0.2729  0.2366
18856TIP3    H177983   4.013   5.209  14.580 -2.2427 -1.1474  0.4612
18856TIP3    H277984   3.900   5.255  14.490  0.4815  1.9248 -1.6603
18857TIP3   OH277985   4.009   5.416   2.575  0.1801 -0.3682  0.5289
18857TIP3    H177986   3.926   5.463   2.570  1.4081  1.8744  0.2405
18857TIP3    H277987   4.010   5.362   2.496  0.0766  1.5132 -0.8078
18858TIP3   OH277988   5.148   4.106   5.505 -0.0266  0.5347  0.1664
18858TIP3    H177989   5.056   4.089   5.522 -0.8645  1.6368 -2.5984
18858TIP3    H277990   5.180   4.027   5.462 -0.2696  0.8526 -0.6327
18859TIP3   OH277991   5.379   5.819   3.215  0.1937 -0.3827 -0.0427
18859TIP3    H177992   5.391   5.793   3.307 -0.5452  0.6607  0.3790
18859TIP3    H277993   5.439   5.893   3.204 -2.1685  1.8407  0.7182
18860TIP3   OH277994   3.193   2.579   1.317  0.1018  0.0127 -0.2680
18860TIP3    H177995   3.100   2.593   1.334  0.1516  0.7888 -0.5699
18860TIP3    H277996   3.219   2.508   1.377 -1.0415 -1.3574 -1.3321
18861TIP3   OH277997   3.495   1.644  15.075 -0.0340  0.0438 -0.0533
18861TIP3    H177998   3.512   1.697  14.997 -0.1229  0.8948  0.4839
18861TIP3    H277999   3.548   1.565  15.063 -0.4563 -0.0748 -1.2132
18862TIP3   OH278000   2.965   1.759  17.148  0.2186  0.2508  0.2782
18862TIP3    H178001   2.881   1.741  17.106 -0.0601  1.0255  0.4629
18862TIP3    H278002   2.950   1.738  17.240  0.3009  0.1486  0.2664
18863TIP3   OH278003   4.041   3.254  13.179 -0.2100 -0.0597 -0.7603
18863TIP3    H178004   4.021   3.313  13.106 -1.2142  1.1736  0.4597
18863TIP3    H278005   3.957   3.214  13.201  0.2129 -0.9324 -0.6865
18864TIP3   OH278006   4.440   0.937  13.632  0.6078 -0.2381  0.1110
18864TIP3    H178007   4.425   0.984  13.714 -0.3981  1.8054 -1.1361
18864TIP3    H278008   4.396   0.991  13.566  3.0648 -0.7061 -2.0667
18865TIP3   OH278009   5.864   4.236   4.563  0.1606  0.4506 -0.2869
18865TIP3    H178010   5.896   4.212   4.476  0.8144 -0.3073  0.1522
18865TIP3    H278011   5.788   4.180   4.577 -0.5313  1.2486 -0.7473
18866TIP3   OH278012   4.609   1.410  12.738 -0.0241 -0.1537  0.1181
18866TIP3    H178013   4.658   1.328  12.746 -0.5983 -0.5139 -0.0043
18866TIP3    H278014   4.529   1.395  12.788 -0.4570  0.0759 -0.4918
18867TIP3   OH278015   0.980   3.721  13.175 -0.3224  0.6044  0.4972
18867TIP3    H178016   0.988   3.696  13.083  0.1032 -1.0821  0.9484
18867TIP3    H278017   0.893   3.760  13.182  0.0341  1.6908 -0.7991
18868TIP3   OH278018   0.657   1.878   0.260  0.1244 -0.2770 -0.9009
18868TIP3    H178019   0.644   1.807   0.197  1.4007 -1.2009 -0.1689
18868TIP3    H278020   0.734   1.924   0.228  2.0969 -2.0305  1.0208
18869TIP3   OH278021   3.004   3.543  11.684 -0.3701 -0.4569 -0.1836
18869TIP3    H178022   3.062   3.618  11.697  1.0053 -1.2313 -1.4904
18869TIP3    H278023   3.058   3.467  11.707 -1.8911 -1.0768  1.6085
18870TIP3   OH278024   3.462   0.912  16.318 -0.0893  0.1476 -0.1353
18870TIP3    H178025   3.426   0.826  16.294  0.3798 -0.2972  0.7305
18870TIP3    H278026   3.424   0.972  16.253 -1.1728 -0.5518 -0.1753
18871TIP3   OH278027   1.865   3.190   1.077 -0.1261  0.5669 -0.6935
18871TIP3    H178028   1.922   3.149   1.012  0.2730  1.6602 -1.0555
18871TIP3    H278029   1.857   3.125   1.146  0.4080 -0.1535 -1.2909
18872TIP3   OH278030   5.750   6.430  11.290  0.3366 -0.2010 -0.0738
18872TIP3    H178031   5.659   6.401  11.288 -0.0600  0.8705  1.2052
18872TIP3    H278032   5.781   6.417  11.200 -1.1092 -0.4513 -0.5607
18873TIP3   OH278033   4.957   2.505   5.559  0.5585 -0.3805  0.5385
18873TIP3    H178034   4.978   2.528   5.649 -2.1346 -0.3809  1.2485
18873TIP3    H278035   4.944   2.410   5.561 -2.0181 -0.1040  0.8317
18874TIP3   OH278036   2.490   3.898  15.604 -0.2448  0.1364 -0.0757
18874TIP3    H178037   2.405   3.941  15.594 -2.2581 -3.4934 -0.5257
18874TIP3    H278038   2.475   3.831  15.671  2.4948 -0.1699  0.3336
18875TIP3   OH278039   5.477   2.279   4.436 -0.1115 -0.8038  0.1920
18875TIP3    H178040   5.528   2.200   4.419  0.1039 -0.5499 -0.3776
18875TIP3    H278041   5.517   2.316   4.515 -0.7620 -1.7066  0.9659
18876TIP3   OH278042   5.808   6.573   3.120 -0.3747 -0.6231 -0.5285
18876TIP3    H178043   5.751   6.633   3.072 -2.2365  0.3156  2.4967
18876TIP3    H278044   5.896   6.590   3.087 -1.2669  1.4793 -1.9997
18877TIP3   OH278045   1.797   4.559   3.843 -0.8907 -0.1283 -0.3905
18877TIP3    H178046   1.845   4.640   3.830  0.1344 -0.4234  1.2652
18877TIP3    H278047   1.865   4.492   3.854 -1.7058 -1.0069 -0.5439
18878TIP3   OH278048   0.215   4.451   0.372  0.8986 -0.1700  0.1151
18878TIP3    H178049   0.262   4.472   0.291  1.4474 -1.1323  0.1733
18878TIP3    H278050   0.127   4.485   0.357  0.9674 -0.4071 -0.9247
18879TIP3   OH278051   3.275   1.910  14.953 -0.2076 -0.0923 -0.3764
18879TIP3    H178052   3.190   1.882  14.920 -0.3683 -1.1321  0.8204
18879TIP3    H278053   3.292   1.993  14.909 -2.7787  1.2010  0.8424
18880TIP3   OH278054   0.873   5.002   1.252 -0.5258  0.4072  0.0891
18880TIP3    H178055   0.900   4.927   1.198  1.7934  0.1702  1.4115
18880TIP3    H278056   0.861   4.964   1.340 -0.3582  1.4011  0.5508
18881TIP3   OH278057   3.468   0.487  13.451 -0.1337 -0.2140  0.0280
18881TIP3    H178058   3.559   0.475  13.423  0.1677  0.1958  0.7938
18881TIP3    H278059   3.427   0.402  13.436 -0.0009 -0.0115 -1.6567
18882TIP3   OH278060   6.365   6.582  12.919 -0.5470  0.4569  0.0926
18882TIP3    H178061   6.453   6.616  12.934  0.3994 -0.7863 -2.2240
18882TIP3    H278062   6.334   6.557  13.006  0.9522  1.8525  1.0915
18883TIP3   OH278063   2.021   4.002  11.527 -0.6131  0.5893  0.8196
18883TIP3    H178064   2.066   4.062  11.468 -0.6511  0.8531  1.0593
18883TIP3    H278065   1.965   3.949  11.469  0.5528 -0.2548  0.4243
18884TIP3   OH278066   0.074   3.952   4.182  0.2434 -0.5494  0.2203
18884TIP3    H178067   0.027   3.877   4.219 -1.3756  0.9297  1.2622
18884TIP3    H278068   0.032   3.967   4.097 -1.8543  1.2419  1.4657
18885TIP3   OH278069   3.552   5.240  15.900  0.2018  0.0150  0.3509
18885TIP3    H178070   3.635   5.194  15.911  0.4327  0.4337  0.3850
18885TIP3    H278071   3.491   5.173  15.867  0.6010 -0.2443  0.1359
18886TIP3   OH278072   1.444   6.457  12.701 -0.6379 -0.3215 -0.3537
18886TIP3    H178073   1.405   6.531  12.747  0.6774  1.1807 -1.5457
18886TIP3    H278074   1.404   6.459  12.614  0.5476 -0.0209 -0.9098
18887TIP3   OH278075   4.937   3.901   4.313  0.0004  0.5168  0.1643
18887TIP3    H178076   4.846   3.929   4.321  0.0416  0.6889  0.0255
18887TIP3    H278077   4.987   3.982   4.306  0.0981  0.4086 -0.4562
18888TIP3   OH278078   1.479   1.170  15.844  0.1562 -0.0114  0.3879
18888TIP3    H178079   1.554   1.196  15.791 -0.5205 -0.6564 -0.9256
18888TIP3    H278080   1.411   1.233  15.821  0.2102  0.4360  1.4082
18889TIP3   OH278081   3.707   4.679   1.198  0.4982 -0.2857  0.1025
18889TIP3    H178082   3.791   4.664   1.154  1.3160  0.4918  1.3503
18889TIP3    H278083   3.703   4.774   1.210 -0.1204 -0.4068  0.9068
18890TIP3   OH278084   1.931   5.130   0.461 -0.0354  0.2086  0.4337
18890TIP3    H178085   1.979   5.052   0.431  1.9251  1.5789 -0.1567
18890TIP3    H278086   1.865   5.145   0.393 -1.4163 -1.7167  1.2645
18891TIP3   OH278087   5.234   3.438  13.190 -0.4259 -0.2970  0.2648
18891TIP3    H178088   5.171   3.463  13.122  1.0227  1.0451 -0.6653
18891TIP3    H278089   5.317   3.473  13.159  0.3205  0.2767  2.7047
18892TIP3   OH278090   3.127   4.230   4.508  0.4031 -0.0737 -0.5721
18892TIP3    H178091   3.213   4.222   4.468 -0.1163  2.4535 -2.4667
18892TIP3    H278092   3.131   4.313   4.557 -0.3932 -0.8663  0.9007
18893TIP3   OH278093   4.124   5.405  11.512  0.2563  0.4420  0.3013
18893TIP3    H178094   4.116   5.331  11.452  0.1852 -0.7039  1.6773
18893TIP3    H278095   4.190   5.461  11.471  0.3542 -0.3937 -0.7414
18894TIP3   OH278096   2.989   2.296   3.953  0.0916  0.1153  0.2866
18894TIP3    H178097   2.925   2.232   3.921  1.1581 -0.7630 -0.1173
18894TIP3    H278098   3.027   2.255   4.031  1.8102 -0.3984 -0.7925
18895TIP3   OH278099   1.623   5.458   3.888  1.0191 -0.3220 -0.0296
18895TIP3    H178100   1.547   5.405   3.910  0.5236  0.1970 -0.4463
18895TIP3    H278101   1.683   5.448   3.962 -0.5912  1.3970  1.6179
18896TIP3   OH278102   2.395   6.731   5.922  0.4460 -0.3980  0.3128
18896TIP3    H178103   2.436   6.652   5.959  0.5265 -0.7651 -0.5297
18896TIP3    H278104   2.468   6.792   5.909  0.7226 -0.9870 -1.0250
18897TIP3   OH278105   3.229   2.158   2.886  0.2811  0.5367 -0.4590
18897TIP3    H178106   3.190   2.171   2.973  0.9679 -2.0858  0.3215
18897TIP3    H278107   3.154   2.144   2.829 -0.1626  1.9658 -0.2839
18898TIP3   OH278108   4.079   5.887   2.145 -0.0283  0.0988 -0.2815
18898TIP3    H178109   4.030   5.917   2.222  2.3582  1.3277  0.8864
18898TIP3    H278110   4.103   5.797   2.166  0.1818  0.2600  0.1915
18899TIP3   OH278111   0.651   1.024  11.044 -0.2634 -0.4069 -0.0179
18899TIP3    H178112   0.743   1.003  11.058 -0.6649 -1.5919  1.0945
18899TIP3    H278113   0.610   0.939  11.022 -0.7080  0.4516 -3.0052
18900TIP3   OH278114   6.455   6.506  11.139 -0.7301 -0.1707 -0.1159
18900TIP3    H178115   6.427   6.430  11.088 -3.6151 -0.3882  1.5787
18900TIP3    H278116   6.461   6.577  11.074  0.2716 -1.4080 -1.4368
18901TIP3   OH278117   1.741   5.345   6.297  0.1730 -1.0866 -0.3912
18901TIP3    H178118   1.678   5.283   6.332  0.8485 -0.3248  2.4651
18901TIP3    H278119   1.820   5.331   6.349  1.7442 -0.6762 -2.5339
18902TIP3   OH278120   0.578   5.218   5.818 -0.1297  0.2828  0.2751
18902TIP3    H178121   0.527   5.144   5.851  3.1913 -2.5835 -0.4744
18902TIP3    H278122   0.555   5.224   5.725  0.9250 -1.1761 -0.1252
18903TIP3   OH278123   6.741   0.053  12.031 -0.4418 -0.4903  0.2307
18903TIP3    H178124   6.654   0.021  12.054 -0.2573 -1.0496  0.1729
18903TIP3    H278125   6.754   0.023  11.941  0.2148 -1.3223  0.5818
18904TIP3   OH278126   5.536   4.778  15.558  0.1957  0.1454  0.0399
18904TIP3    H178127   5.525   4.818  15.644  0.8803  1.1832 -0.3255
18904TIP3    H278128   5.500   4.690  15.567 -1.3333  0.8240  0.8913
18905TIP3   OH278129   3.510   2.772  13.223  0.2232 -0.3824  0.1072
18905TIP3    H178130   3.477   2.850  13.267 -1.1553 -0.6430 -0.4228
18905TIP3    H278131   3.494   2.701  13.285 -0.2606 -0.5160 -0.1690
18906TIP3   OH278132   1.130   5.964   3.869 -0.1442 -0.0205  0.0837
18906TIP3    H178133   1.078   6.022   3.813  1.7327  0.0038 -1.7279
18906TIP3    H278134   1.105   5.876   3.841  1.9594 -0.0162 -2.0473
18907TIP3   OH278135   6.332   2.868  16.762 -0.1334 -0.1457  0.0036
18907TIP3    H178136   6.247   2.891  16.798  0.0859  1.0732 -0.2139
18907TIP3    H278137   6.392   2.873  16.837  0.0896  1.0437 -0.2427
18908TIP3   OH278138   2.854   1.436   5.003 -0.6553 -0.1983  0.5346
18908TIP3    H178139   2.875   1.353   5.045 -1.5457 -0.3826  0.6388
18908TIP3    H278140   2.784   1.414   4.940 -0.4494  0.3553  0.1021
18909TIP3   OH278141   6.486   0.311  15.093 -0.1393 -0.7187  0.0059
18909TIP3    H178142   6.442   0.226  15.095 -1.0351 -0.2867 -0.6125
18909TIP3    H278143   6.476   0.345  15.182 -2.8107  0.2045 -0.5377
18910TIP3   OH278144   4.527   4.151   3.354 -0.2403 -0.3720  0.4775
18910TIP3    H178145   4.558   4.066   3.384  0.8139 -0.4448 -0.7128
18910TIP3    H278146   4.456   4.130   3.293 -0.7492 -0.3367  1.0524
18911TIP3   OH278147   6.297   4.243   1.546 -0.0261 -0.6075 -0.1400
18911TIP3    H178148   6.351   4.311   1.586  0.4865 -1.4238  0.6024
18911TIP3    H278149   6.284   4.179   1.616  1.5864 -2.5062 -1.4576
18912TIP3   OH278150   3.336   3.713   1.751 -0.0648  0.7668  0.5614
18912TIP3    H178151   3.306   3.775   1.816  2.9083  2.3211  0.6251
18912TIP3    H278152   3.404   3.662   1.795 -0.2450 -0.4027 -0.4334
18913TIP3   OH278153   5.735   5.014  14.505 -0.0815 -0.3732  0.1496
18913TIP3    H178154   5.755   4.999  14.412 -1.0951 -0.4139 -0.0690
18913TIP3    H278155   5.670   5.084  14.505  2.2736  2.0237  1.0053
18914TIP3   OH278156   1.238   2.481   6.269 -0.0315 -0.4426  0.1959
18914TIP3    H178157   1.226   2.519   6.182  2.0194  0.1874  0.1332
18914TIP3    H278158   1.172   2.412   6.275 -1.3645  0.6532 -1.1537
18915TIP3   OH278159   3.439   1.290   5.323 -0.1717 -0.2316  0.2541
18915TIP3    H178160   3.449   1.367   5.380  1.5378  0.7238 -1.2082
18915TIP3    H278161   3.442   1.215   5.382 -2.1943  0.8060  1.7564
18916TIP3   OH278162   4.593   5.662   5.236  0.0977 -0.3848 -0.2958
18916TIP3    H178163   4.689   5.661   5.239  0.1427  1.6167  0.5477
18916TIP3    H278164   4.571   5.597   5.169  2.0191 -1.0778 -0.3298
18917TIP3   OH278165   6.126   3.979  12.194  0.8259  0.3737  0.2036
18917TIP3    H178166   6.104   3.912  12.259  2.8827 -0.0321  0.5633
18917TIP3    H278167   6.093   4.060  12.230  1.8252  0.1333  1.7449
18918TIP3   OH278168   3.334   6.134   3.122 -0.2707 -0.4642  0.1042
18918TIP3    H178169   3.372   6.090   3.046  1.8280 -0.0902  0.8622
18918TIP3    H278170   3.335   6.227   3.099 -0.3914 -0.4189  0.2809
18919TIP3   OH278171   6.549   1.147  13.779 -0.4092 -0.3256  0.4472
18919TIP3    H178172   6.565   1.076  13.841 -0.3637 -0.4087  0.3397
18919TIP3    H278173   6.636   1.172  13.749 -0.4368 -0.3270  0.3681
18920TIP3   OH278174   5.095   5.215  15.177  0.4830 -0.5032 -0.4234
18920TIP3    H178175   5.003   5.194  15.166  0.1291  0.7969 -0.1070
18920TIP3    H278176   5.123   5.161  15.252 -0.1093 -0.6175 -0.2812
18921TIP3   OH278177   3.209   5.699  15.801 -0.0808  0.3256 -0.1681
18921TIP3    H178178   3.289   5.746  15.826 -1.2303  2.8385 -0.9103
18921TIP3    H278179   3.150   5.768  15.769 -1.7587 -1.7027 -1.6935
18922TIP3   OH278180   2.639   3.141  15.871  0.4067 -0.2430  0.3336
18922TIP3    H178181   2.564   3.141  15.811 -0.2657  1.2845  1.1370
18922TIP3    H278182   2.622   3.068  15.930  0.3552 -0.8661 -0.4323
18923TIP3   OH278183   0.898   1.997   2.810  0.5359 -0.0665 -0.0685
18923TIP3    H178184   0.831   2.061   2.835  1.1521  0.2091  0.8899
18923TIP3    H278185   0.963   2.001   2.879  0.2696 -2.2168  0.3728
18924TIP3   OH278186   0.256   1.813   0.025 -0.9869 -0.1964  0.0827
18924TIP3    H178187   0.275   1.840  -0.065 -2.0143 -0.0930 -0.1146
18924TIP3    H278188   0.201   1.883   0.060 -1.8843 -0.9773  0.2785
18925TIP3   OH278189   0.315   4.698  10.628 -0.2128 -0.1085 -0.3128
18925TIP3    H178190   0.305   4.604  10.642  0.0568 -0.0728  0.1083
18925TIP3    H278191   0.225   4.731  10.625 -0.3404 -0.4928 -1.2760
18926TIP3   OH278192   2.519   2.779  10.695  0.9534  0.7626 -0.4320
18926TIP3    H178193   2.613   2.762  10.695  1.4878  3.1634 -1.6954
18926TIP3    H278194   2.509   2.856  10.639 -1.5104  1.9340  1.4194
18927TIP3   OH278195   1.437   1.019  17.192 -0.1841  0.3984  0.0214
18927TIP3    H178196   1.516   1.053  17.152 -0.2519  0.7606  0.1890
18927TIP3    H278197   1.375   1.091  17.188 -1.3189 -0.6100 -2.2774
18928TIP3   OH278198   1.311   1.608   6.054 -0.0567 -0.2637 -0.4219
18928TIP3    H178199   1.278   1.528   6.013  0.7968 -0.1721 -1.3024
18928TIP3    H278200   1.351   1.658   5.983  0.2230  0.5369  0.2752
18929TIP3   OH278201   2.665   3.476   2.984  0.3726  0.6634  0.0642
18929TIP3    H178202   2.593   3.457   2.923  1.9992 -0.6765 -1.5484
18929TIP3    H278203   2.625   3.469   3.071 -1.5878  0.6480 -0.7885
18930TIP3   OH278204   6.007   5.512   4.426 -0.3034  0.2422 -0.3525
18930TIP3    H178205   6.032   5.594   4.382  1.0069 -0.3685 -0.7757
18930TIP3    H278206   6.077   5.451   4.405 -1.7544 -1.3096 -0.8674
18931TIP3   OH278207   2.975   0.078  13.538  0.0803  0.4504  0.2067
18931TIP3    H178208   2.959   0.171  13.554  0.9267  0.8470 -1.1054
18931TIP3    H278209   2.896   0.034  13.569 -0.2725  1.5792  0.9729
18932TIP3   OH278210   0.120   4.158   5.686 -0.2840  0.6849  0.2894
18932TIP3    H178211   0.128   4.195   5.774  1.0226 -0.2411  0.5930
18932TIP3    H278212   0.167   4.075   5.691  0.3161  0.8818 -1.4487
18933TIP3   OH278213   2.361   1.267   4.350 -0.5736 -0.3728 -0.1559
18933TIP3    H178214   2.348   1.279   4.256 -1.3510 -0.6493 -0.0955
18933TIP3    H278215   2.283   1.218   4.379 -0.8215  0.5557  0.8037
18934TIP3   OH278216   1.898   4.117  15.992  0.1150  0.7154 -0.0297
18934TIP3    H178217   1.970   4.116  15.929  0.0540 -0.6808 -0.1130
18934TIP3    H278218   1.840   4.187  15.962  0.1380  0.1402 -1.4824
18935TIP3   OH278219   5.706   6.772  12.300 -0.2425  0.3945 -0.0420
18935TIP3    H178220   5.764   6.767  12.376 -0.3340 -0.4086 -0.0074
18935TIP3    H278221   5.757   6.735  12.228 -0.9997 -1.2298  0.1965
18936TIP3   OH278222   6.520   1.714   5.284  0.1216  0.1570 -0.0863
18936TIP3    H178223   6.491   1.692   5.195  0.3941 -1.6966  0.2348
18936TIP3    H278224   6.439   1.734   5.331 -0.2136 -0.5523 -0.3405
18937TIP3   OH278225   2.155   2.540   1.930 -0.0476  0.0265 -0.1387
18937TIP3    H178226   2.111   2.623   1.948  0.9050  0.3522  0.7801
18937TIP3    H278227   2.149   2.530   1.834 -1.7980  0.2018 -0.0879
18938TIP3   OH278228   5.868   5.764  16.292  0.6580  0.1662 -0.2874
18938TIP3    H178229   5.812   5.694  16.258  0.1653 -0.4190  1.5942
18938TIP3    H278230   5.808   5.820  16.343  1.7845 -0.7689  2.2084
18939TIP3   OH278231   1.709   1.833   2.520 -0.1275  0.4477 -0.1883
18939TIP3    H178232   1.685   1.741   2.531 -0.9708  0.7872  1.0234
18939TIP3    H278233   1.641   1.869   2.463 -0.7256  0.6733  0.6472
18940TIP3   OH278234   5.590   1.606   3.001 -0.4571  0.2247  0.0013
18940TIP3    H178235   5.558   1.693   2.978 -0.6371 -0.0768 -0.9214
18940TIP3    H278236   5.533   1.578   3.072 -2.2063 -0.2412 -1.5019
18941TIP3   OH278237   4.723   3.101  12.825 -0.3820  0.4921  0.3458
18941TIP3    H178238   4.668   3.050  12.884  0.0547 -0.2111  0.1549
18941TIP3    H278239   4.722   3.189  12.862  0.1369 -0.0071  1.5871
18942TIP3   OH278240   3.793   0.141   6.552 -0.0133  0.7342  0.1725
18942TIP3    H178241   3.852   0.150   6.627 -0.8364 -0.0547  0.9505
18942TIP3    H278242   3.844   0.092   6.487  0.4037  0.6240  0.5802
18943TIP3   OH278243   2.309   1.701   4.522  0.1626  0.1517  0.4191
18943TIP3    H178244   2.218   1.719   4.499  0.2937 -0.1555 -0.3546
18943TIP3    H278245   2.313   1.606   4.532  0.3686  0.1783  0.5936
18944TIP3   OH278246   1.443   3.389  14.385 -0.0297  0.3298  0.1661
18944TIP3    H178247   1.498   3.315  14.360  1.7960  1.6566 -0.0113
18944TIP3    H278248   1.354   3.361  14.368  0.6795 -1.4699 -0.7829
18945TIP3   OH278249   3.899   5.505  15.880 -0.4950  0.5609 -0.1857
18945TIP3    H178250   3.870   5.527  15.792  0.4815  0.1372 -0.6240
18945TIP3    H278251   3.992   5.483  15.870 -1.1472 -2.9177  0.3335
18946TIP3   OH278252   0.081   3.701   5.866 -0.5874  0.1084  0.4664
18946TIP3    H178253   0.011   3.707   5.930 -0.1227  1.6505  0.8744
18946TIP3    H278254   0.161   3.716   5.916  0.0880 -1.7904  0.0400
18947TIP3   OH278255   6.457   0.172   2.884 -0.1968 -0.1920  0.2293
18947TIP3    H178256   6.524   0.143   2.945  1.5464  1.1959 -0.9229
18947TIP3    H278257   6.388   0.209   2.939  0.0789 -1.3831  1.4269
18948TIP3   OH278258   0.069   3.446  11.461 -0.2488  0.2720 -0.0413
18948TIP3    H178259   0.109   3.533  11.456  1.4593 -0.4648 -0.0344
18948TIP3    H278260   0.048   3.435  11.554  3.2079 -0.7894  0.7655
18949TIP3   OH278261   1.514   0.346  13.348  0.1243 -0.4498 -0.1267
18949TIP3    H178262   1.560   0.385  13.422 -1.8292  1.2541  0.2570
18949TIP3    H278263   1.583   0.302  13.297  1.8946  0.6211  1.2552
18950TIP3   OH278264   4.045   4.266   1.649  0.2438 -0.2167  0.9728
18950TIP3    H178265   3.995   4.187   1.627  0.0759 -0.4196  2.0654
18950TIP3    H278266   4.137   4.239   1.640  0.1826 -0.1293 -0.0303
18951TIP3   OH278267   5.397   2.827  13.204  1.0405 -0.3208  0.0306
18951TIP3    H178268   5.377   2.911  13.244 -0.7798  0.8295 -2.9666
18951TIP3    H278269   5.486   2.837  13.170  0.2100  1.1412 -1.8638
18952TIP3   OH278270   5.591   4.821  12.091 -0.2139 -0.2312  0.3473
18952TIP3    H178271   5.549   4.736  12.080  0.4592 -0.7580  1.5845
18952TIP3    H278272   5.648   4.831  12.014  1.1901 -1.8243  1.1032
18953TIP3   OH278273   1.243   6.731   6.712 -0.6909  0.2592  0.3034
18953TIP3    H178274   1.219   6.707   6.801 -0.3236  1.2729  0.6866
18953TIP3    H278275   1.334   6.703   6.703  0.9913  4.3382  1.9479
18954TIP3   OH278276   5.744   2.965  15.861  0.4743  0.5494  0.0693
18954TIP3    H178277   5.765   2.960  15.954  0.3935 -0.6141  0.0352
18954TIP3    H278278   5.812   2.914  15.817  2.0058  3.1426 -0.7917
18955TIP3   OH278279   3.712   3.854   4.421 -0.1689 -0.2449 -0.3141
18955TIP3    H178280   3.622   3.886   4.409 -0.5431 -0.9698  0.4639
18955TIP3    H278281   3.723   3.849   4.516  1.4095  1.7832 -0.3089
18956TIP3   OH278282   0.447   0.599   4.737 -0.4073 -0.2320 -0.4895
18956TIP3    H178283   0.359   0.590   4.774 -0.6747 -0.3095 -1.1307
18956TIP3    H278284   0.493   0.520   4.764 -0.6804 -0.4093 -0.5340
18957TIP3   OH278285   2.685   2.417   1.342  0.1373  0.1582  0.0244
18957TIP3    H178286   2.659   2.510   1.338  0.8481  0.3205 -1.0597
18957TIP3    H278287   2.681   2.396   1.436 -2.7704  0.4769  0.0850
18958TIP3   OH278288   3.114   1.846  11.382 -0.6566 -0.0876 -0.2476
18958TIP3    H178289   3.128   1.940  11.372 -1.9793  0.0714 -0.7123
18958TIP3    H278290   3.059   1.822  11.308 -1.4576 -0.9716  0.6119
18959TIP3   OH278291   5.027   1.466  12.218 -0.1819  0.0806 -0.0460
18959TIP3    H178292   5.023   1.427  12.305 -1.7775  0.4771  0.0736
18959TIP3    H278293   5.117   1.450  12.189  0.3959 -0.0061  1.6867
18960TIP3   OH278294   5.694   2.713  15.433  0.0777  0.1030 -0.7718
18960TIP3    H178295   5.727   2.656  15.502  0.7317 -0.2900 -1.3877
18960TIP3    H278296   5.679   2.654  15.359 -1.1493  0.4258 -0.7942
18961TIP3   OH278297   2.952   0.541   3.295  0.0056  0.2343 -0.0261
18961TIP3    H178298   2.969   0.467   3.353  0.7641  0.7969  0.4856
18961TIP3    H278299   3.019   0.534   3.227 -0.5428 -0.1123 -0.5382
18962TIP3   OH278300   1.081   2.811  12.647 -0.0278 -0.1526 -0.1699
18962TIP3    H178301   1.051   2.722  12.630 -1.8205  0.4953 -0.6159
18962TIP3    H278302   1.175   2.803  12.662 -0.4001 -2.3456  1.4413
18963TIP3   OH278303   6.184   0.466  12.420  0.2066 -0.1564 -0.2852
18963TIP3    H178304   6.106   0.495  12.467  1.1992 -0.3802  1.5905
18963TIP3    H278305   6.200   0.377  12.453  1.2827 -0.0984 -0.6130
18964TIP3   OH278306   1.304   6.128  16.301  0.4045  0.0739 -0.6049
18964TIP3    H178307   1.308   6.084  16.386 -1.7720  1.1593  0.1505
18964TIP3    H278308   1.353   6.210  16.314  0.4018  0.0590 -0.4933
18965TIP3   OH278309   6.133   2.803   3.855 -0.3994  0.5098 -0.1061
18965TIP3    H178310   6.045   2.808   3.819 -0.1722 -0.5797 -0.8457
18965TIP3    H278311   6.163   2.894   3.860 -0.3162  0.7095 -2.9780
18966TIP3   OH278312   4.670   3.262   4.107 -0.0246 -0.1633 -0.3185
18966TIP3    H178313   4.667   3.268   4.011 -0.9819 -0.5807 -0.3318
18966TIP3    H278314   4.702   3.173   4.125 -0.4031 -0.2955 -0.2700
18967TIP3   OH278315   2.870   1.892  15.489 -0.1913  0.1302 -0.5749
18967TIP3    H178316   2.846   1.950  15.417  0.0829  2.1896  0.9059
18967TIP3    H278317   2.965   1.886  15.484 -0.0892  0.9727  0.0745
18968TIP3   OH278318   1.743   0.509  13.801 -0.3437  0.4917 -0.2833
18968TIP3    H178319   1.745   0.416  13.779 -1.3816  0.2736  0.4619
18968TIP3    H278320   1.812   0.520  13.866  2.7356  1.1346 -3.3496
18969TIP3   OH278321   5.380   1.317  13.459 -0.4157 -0.1695 -0.0397
18969TIP3    H178322   5.370   1.342  13.551 -0.5909  0.9303 -0.3420
18969TIP3    H278323   5.333   1.234  13.452 -2.4183  0.8715  0.3686
18970TIP3   OH278324   3.158   1.544   6.324  0.1009  0.6732 -0.2798
18970TIP3    H178325   3.240   1.589   6.342  0.8983  0.1517 -2.2791
18970TIP3    H278326   3.092   1.613   6.325  0.5863  1.1380  1.0973
18971TIP3   OH278327   2.317   3.228   0.976  0.1320 -0.1128  0.4621
18971TIP3    H178328   2.289   3.142   1.007  0.0224 -0.4102 -0.4171
18971TIP3    H278329   2.412   3.221   0.968  0.0735 -0.3197 -0.0816
18972TIP3   OH278330   2.311   2.435   0.330  0.0711  0.2713 -0.1171
18972TIP3    H178331   2.370   2.420   0.404 -1.2580 -1.1345  0.7318
18972TIP3    H278332   2.257   2.509   0.358 -0.9616 -0.7565  0.7268
18973TIP3   OH278333   4.705   6.252  10.867 -0.3801  0.6630  0.2805
18973TIP3    H178334   4.714   6.161  10.893 -3.2882 -0.0597 -0.8482
18973TIP3    H278335   4.694   6.249  10.772  0.3935  2.2962  0.0996
18974TIP3   OH278336   4.857   6.473   1.335  0.1333 -0.0273  1.0762
18974TIP3    H178337   4.871   6.567   1.330 -0.3388  0.0234  0.5357
18974TIP3    H278338   4.851   6.445   1.243 -0.4740 -0.4643  1.2394
18975TIP3   OH278339   2.678   2.962   1.150  0.4604  0.5257  0.2930
18975TIP3    H178340   2.642   2.969   1.062  3.3668  0.3054 -1.0443
18975TIP3    H278341   2.660   3.048   1.190 -1.7381  0.3045 -0.0776
18976TIP3   OH278342   0.350   3.982  10.548 -0.6339  0.1683  0.1088
18976TIP3    H178343   0.299   3.928  10.487 -1.8048  0.5511  0.7208
18976TIP3    H278344   0.408   3.920  10.592  1.2047  0.0603 -2.2841
18977TIP3   OH278345   4.762   5.444  14.422  0.3809  0.0481 -0.2106
18977TIP3    H178346   4.750   5.387  14.345  2.4932  2.5063 -2.5628
18977TIP3    H278347   4.819   5.394  14.480  0.5265 -1.0593 -1.2557
18978TIP3   OH278348   3.249   4.692  17.220 -0.1966  0.1348 -0.4158
18978TIP3    H178349   3.185   4.626  17.248 -0.9916  1.5544  1.3440
18978TIP3    H278350   3.233   4.766  17.279  0.5056  1.9835 -2.4396
18979TIP3   OH278351   2.497   5.079  11.950  0.6369  0.6024 -0.4284
18979TIP3    H178352   2.494   5.102  12.042 -0.0951  0.5477 -0.4295
18979TIP3    H278353   2.537   5.154  11.907  0.4526  0.8684 -0.1377
18980TIP3   OH278354   2.762   0.721  13.773  0.1154  0.4235 -0.2233
18980TIP3    H178355   2.845   0.767  13.779 -0.1118  0.8671 -0.4284
18980TIP3    H278356   2.738   0.701  13.864 -0.3222  1.6888 -0.0469
18981TIP3   OH278357   4.312   5.242  13.955  0.5263 -0.3927  0.1350
18981TIP3    H178358   4.319   5.318  14.012 -2.7734 -0.5637  0.9496
18981TIP3    H278359   4.240   5.262  13.895  0.5976 -2.2440 -0.6581
18982TIP3   OH278360   3.215   5.265  11.717  0.0507 -0.7134  0.4569
18982TIP3    H178361   3.141   5.206  11.726  0.0719 -0.6492  1.0899
18982TIP3    H278362   3.289   5.208  11.697  0.1284 -0.9391  1.3519
18983TIP3   OH278363   5.133   1.277   0.887 -0.3930 -0.3163 -0.0515
18983TIP3    H178364   5.215   1.227   0.888  0.0009  0.2158 -1.8698
18983TIP3    H278365   5.089   1.249   0.807 -1.7510 -0.1707  0.6181
18984TIP3   OH278366   5.512   5.547   3.105 -0.4594 -0.2218  0.5562
18984TIP3    H178367   5.578   5.478   3.100 -1.4201 -1.0771 -2.5636
18984TIP3    H278368   5.518   5.580   3.195  0.1280 -4.2477  2.2057
18985TIP3   OH278369   6.273   6.793   6.474  0.1956 -0.1299  0.3407
18985TIP3    H178370   6.243   6.788   6.565  1.1621  0.0743  0.6806
18985TIP3    H278371   6.355   6.842   6.478  0.5151 -0.5596 -0.5752
18986TIP3   OH278372   5.620   2.873  12.182  0.6771 -0.3321  0.7202
18986TIP3    H178373   5.531   2.861  12.215  0.7314  0.2910  1.1202
18986TIP3    H278374   5.609   2.931  12.106  0.5106 -2.0594 -0.6238
18987TIP3   OH278375   4.168   1.697  17.244 -0.0848  0.1209 -0.0182
18987TIP3    H178376   4.146   1.611  17.280  0.4495  0.2579  0.6673
18987TIP3    H278377   4.102   1.713  17.176 -0.4317 -0.6484  0.1307
18988TIP3   OH278378   1.505   1.673   1.443  0.0225  0.0411  0.3057
18988TIP3    H178379   1.600   1.687   1.452  0.5472 -1.8090 -1.4991
18988TIP3    H278380   1.470   1.760   1.426  1.2176  0.9202  1.9667
18989TIP3   OH278381   0.804   5.632  15.829 -0.2099  0.0788  0.2091
18989TIP3    H178382   0.843   5.581  15.758 -0.2564 -1.1394  1.0151
18989TIP3    H278383   0.834   5.721  15.815 -0.9047  0.0311 -1.8157
18990TIP3   OH278384   1.334   4.712  13.408  0.3701  0.0003 -0.3463
18990TIP3    H178385   1.370   4.668  13.485 -1.8254  0.5142  1.0694
18990TIP3    H278386   1.362   4.803  13.417  1.3830 -0.2419 -0.9919
18991TIP3   OH278387   3.645   5.428   5.133  0.0892 -0.1153  0.2484
18991TIP3    H178388   3.610   5.349   5.174 -1.1208  0.6254  0.6954
18991TIP3    H278389   3.638   5.412   5.039 -2.7846  0.4924  0.2575
18992TIP3   OH278390   5.136   2.520   4.239 -0.3538  0.6232  0.4623
18992TIP3    H178391   5.103   2.609   4.226  0.4925  0.8070 -0.5148
18992TIP3    H278392   5.231   2.531   4.246 -0.0916 -0.3352 -1.1678
18993TIP3   OH278393   4.974   4.379  11.887  0.4076  0.5275 -0.2180
18993TIP3    H178394   4.908   4.447  11.901  0.3549  0.2544  0.9831
18993TIP3    H278395   4.988   4.378  11.793 -1.4760  0.4405 -0.5246
18994TIP3   OH278396   4.013   2.760  13.523  0.0996  0.2022  0.5784
18994TIP3    H178397   4.007   2.756  13.618  0.3446 -0.0067  0.5855
18994TIP3    H278398   3.926   2.738  13.492  0.4304 -1.3881  0.7097
18995TIP3   OH278399   0.534   0.223  12.096 -0.2655 -0.1011  0.1839
18995TIP3    H178400   0.623   0.245  12.123  0.6080 -2.8821 -0.0540
18995TIP3    H278401   0.518   0.278  12.019  0.7498  1.3453  0.9712
18996TIP3   OH278402   6.240   2.138   2.031  0.3973  0.3708  0.0865
18996TIP3    H178403   6.323   2.089   2.033  0.8931  1.1150  2.8556
18996TIP3    H278404   6.173   2.070   2.031  1.0447 -0.2925  0.3094
18997TIP3   OH278405   5.739   2.482   3.522 -0.3614  0.2021 -1.1892
18997TIP3    H178406   5.782   2.417   3.578 -0.9002  0.6816 -0.1922
18997TIP3    H278407   5.809   2.519   3.470  0.1238 -0.4038 -0.9776
18998TIP3   OH278408   6.359   3.840   4.048  0.3038 -0.0519  0.6269
18998TIP3    H178409   6.405   3.799   3.974  0.5902  2.4238 -0.6653
18998TIP3    H278410   6.428   3.866   4.108  0.3024  0.4111  0.4304
18999TIP3   OH278411   3.836   0.648   0.669  0.2009 -0.6991 -0.1685
18999TIP3    H178412   3.765   0.658   0.732  0.7645  0.4154  0.3154
18999TIP3    H278413   3.915   0.642   0.722  0.5783 -0.8736 -0.7378
19000TIP3   OH278414   6.292   1.748  16.351 -0.6270 -0.0678 -0.1107
19000TIP3    H178415   6.339   1.669  16.324 -0.0975  0.0850  0.3434
19000TIP3    H278416   6.352   1.820  16.330 -0.9022  0.1745 -0.0693
19001TIP3   OH278417   0.046   0.342   5.662 -0.2896 -0.0737  0.2775
19001TIP3    H178418  -0.009   0.268   5.688 -0.5810  0.9024  2.7095
19001TIP3    H278419   0.074   0.320   5.573 -1.6988 -2.2939  0.2794
19002TIP3   OH278420   3.917   4.306  14.589  0.0718  0.4871 -0.2885
19002TIP3    H178421   3.884   4.226  14.631  1.2875 -0.2281 -0.6607
19002TIP3    H278422   3.863   4.316  14.511 -0.6059  0.4812  0.1661
19003TIP3   OH278423   1.282   2.676   2.133 -0.0061 -0.0638  0.5371
19003TIP3    H178424   1.273   2.613   2.061 -0.4000  0.4256  0.1520
19003TIP3    H278425   1.231   2.638   2.204 -1.8750  0.7358 -0.3217
19004TIP3   OH278426   2.518   4.186   6.351 -0.1337 -0.0040  0.3258
19004TIP3    H178427   2.607   4.197   6.316  0.1031 -0.2595  0.8258
19004TIP3    H278428   2.485   4.107   6.309 -0.2111  0.2126 -0.0273
19005TIP3   OH278429   4.268   1.012   5.846 -0.9480  0.3237  0.1338
19005TIP3    H178430   4.224   1.077   5.790 -2.9613 -0.7983  0.3076
19005TIP3    H278431   4.261   1.048   5.934  1.4744  1.6875 -0.1482
19006TIP3   OH278432   3.128   3.572   6.492 -0.4312 -0.2036  0.2939
19006TIP3    H178433   3.194   3.597   6.557  0.3178  1.0758 -0.9153
19006TIP3    H278434   3.140   3.477   6.482  1.4684  0.0392 -0.1196
19007TIP3   OH278435   0.121   3.521  11.043  0.7326 -0.2996  0.2118
19007TIP3    H178436   0.128   3.614  11.019  0.9698  0.0159  1.4377
19007TIP3    H278437   0.052   3.487  10.986 -1.3072  1.3035  1.5519
19008TIP3   OH278438   5.290   4.891   1.012 -0.2901 -0.2897 -0.0453
19008TIP3    H178439   5.222   4.844   0.966 -0.0482 -0.1625 -0.5364
19008TIP3    H278440   5.317   4.831   1.083 -0.3703 -0.6575 -0.3235
19009TIP3   OH278441   2.783   2.228  16.814  0.7131  0.2980  0.2211
19009TIP3    H178442   2.765   2.261  16.902  1.0849 -0.2331  0.4996
19009TIP3    H278443   2.851   2.163  16.826 -0.9180 -1.5821 -0.1324
19010TIP3   OH278444   0.067   3.212  14.093  0.5149 -0.2487  0.0870
19010TIP3    H178445   0.070   3.159  14.172  0.5900 -1.4861 -0.7102
19010TIP3    H278446   0.124   3.286  14.111  2.3288 -1.6562  0.4021
19011TIP3   OH278447   3.454   6.225  11.738  0.4709 -0.6199 -0.0289
19011TIP3    H178448   3.543   6.244  11.707 -0.0348 -1.3301 -2.0747
19011TIP3    H278449   3.403   6.303  11.718  0.2495 -0.8825 -0.4876
19012TIP3   OH278450   1.221   1.285   5.316 -0.5045 -0.5799  0.1573
19012TIP3    H178451   1.159   1.232   5.267 -1.6654  0.2287  0.6980
19012TIP3    H278452   1.250   1.229   5.388 -0.4837 -1.0089 -0.1839
19013TIP3   OH278453   2.425   2.119  15.024 -0.0539  0.0408 -0.4407
19013TIP3    H178454   2.417   2.214  15.017  0.2255  0.0902 -0.1199
19013TIP3    H278455   2.345   2.091  15.068  1.2913  0.5017  2.5497
19014TIP3   OH278456   4.056   1.453   6.217  0.7949 -0.1091  0.2359
19014TIP3    H178457   4.108   1.377   6.193  1.0547  0.3807 -0.7952
19014TIP3    H278458   4.042   1.500   6.135 -1.0491 -0.0866  0.5169
19015TIP3   OH278459   1.798   5.423   1.156 -0.7374 -0.1165  0.2595
19015TIP3    H178460   1.795   5.328   1.164 -1.2658 -0.1452 -0.1791
19015TIP3    H278461   1.888   5.447   1.178 -1.2135 -0.4713  2.8849
19016TIP3   OH278462   3.126   5.362  16.477  0.0392  0.0882 -0.0966
19016TIP3    H178463   3.091   5.335  16.562  0.4637 -0.2400 -0.0248
19016TIP3    H278464   3.118   5.284  16.422  1.4938 -0.2698  0.1767
19017TIP3   OH278465   6.002   2.606   0.103  0.1623  0.3593  0.2659
19017TIP3    H178466   6.009   2.562   0.188  0.0132  1.3338  0.7873
19017TIP3    H278467   6.076   2.666   0.101  0.5104 -0.0900 -0.5529
19018TIP3   OH278468   0.683   0.288   1.979 -0.2812 -0.0680  0.0484
19018TIP3    H178469   0.634   0.369   1.993  0.7579  0.7465 -0.8534
19018TIP3    H278470   0.693   0.282   1.884  1.8179  0.0922  0.2193
19019TIP3   OH278471   1.664   0.876   3.179  0.2319 -0.4898 -0.3845
19019TIP3    H178472   1.693   0.963   3.152 -2.7803  1.1935  1.2974
19019TIP3    H278473   1.701   0.817   3.113  1.0235  2.2370 -2.5616
19020TIP3   OH278474   0.627   5.847  12.415 -0.1024  0.2169 -1.1901
19020TIP3    H178475   0.652   5.790  12.488  0.3005 -1.6662 -2.7211
19020TIP3    H278476   0.532   5.859  12.425 -0.7371 -3.0428 -2.3080
19021TIP3   OH278477   1.445   4.833  14.571 -0.0233 -0.0772 -0.3553
19021TIP3    H178478   1.430   4.753  14.622 -2.3541 -0.0561 -0.9213
19021TIP3    H278479   1.427   4.904  14.631  3.7681  0.2410  0.7046
19022TIP3   OH278480   3.741   1.365  14.814  0.0525  0.2214 -0.0120
19022TIP3    H178481   3.701   1.284  14.782  0.6639 -0.7365  1.5614
19022TIP3    H278482   3.795   1.395  14.741  0.2953 -1.1201 -0.4100
19023TIP3   OH278483   3.091   0.636   3.955  0.3221  0.2687 -0.2006
19023TIP3    H178484   3.046   0.697   3.896 -0.7871  0.1344  0.4729
19023TIP3    H278485   3.143   0.580   3.896  0.4780  1.1441 -0.9124
19024TIP3   OH278486   1.295   2.803  11.081  0.0833 -0.0183 -0.3303
19024TIP3    H178487   1.320   2.772  10.995 -0.1406  1.6413 -1.0436
19024TIP3    H278488   1.203   2.781  11.090 -0.7463  2.3997 -1.8462
19025TIP3   OH278489   0.889   0.829   5.573  0.0792  0.3674  0.6279
19025TIP3    H178490   0.829   0.822   5.499  0.3757 -1.9483  0.5224
19025TIP3    H278491   0.836   0.869   5.643 -1.4537 -1.0539  0.3537
19026TIP3   OH278492   6.090   4.986  11.139 -0.0122  0.4249  0.4278
19026TIP3    H178493   6.000   5.013  11.154 -0.2121 -0.4694  0.8771
19026TIP3    H278494   6.111   4.929  11.212  0.5476 -0.2567 -0.2453
19027TIP3   OH278495   4.850   2.963  14.306 -0.8360  0.6987 -0.5421
19027TIP3    H178496   4.825   3.055  14.301  0.3512  1.0373 -0.6683
19027TIP3    H278497   4.922   2.954  14.243 -2.6252 -0.9330 -2.5092
19028TIP3   OH278498   5.723   3.341   5.257 -0.0939  0.6829  0.2841
19028TIP3    H178499   5.673   3.339   5.339  0.9040 -1.3425  0.8984
19028TIP3    H278500   5.775   3.261   5.258 -0.8954 -0.0243 -2.9035
19029TIP3   OH278501   4.574   1.733   6.120  0.0413  0.0778 -0.3721
19029TIP3    H178502   4.616   1.807   6.165  0.5687  1.0326 -2.3323
19029TIP3    H278503   4.633   1.714   6.046 -0.3595 -1.9830 -0.2010
19030TIP3   OH278504   3.466   3.234  10.741 -0.2931  0.1776 -0.0661
19030TIP3    H178505   3.535   3.300  10.735 -0.0733  0.0079  0.5070
19030TIP3    H278506   3.388   3.283  10.770  0.0243  0.0882  0.9539
19031TIP3   OH278507   3.018   3.187  15.552 -0.0299  0.0725 -0.6007
19031TIP3    H178508   3.079   3.245  15.597  0.2665 -0.2069 -0.6361
19031TIP3    H278509   2.976   3.137  15.622  0.5888 -0.5158 -0.6390
19032TIP3   OH278510   4.838   2.257  11.824  0.4031 -0.0631  0.8184
19032TIP3    H178511   4.802   2.257  11.735  1.1434  1.8087  0.4733
19032TIP3    H278512   4.777   2.309  11.876  0.1493 -0.8673  1.3406
19033TIP3   OH278513   4.073   4.294  14.025  0.5693  0.2327  0.4799
19033TIP3    H178514   4.036   4.372  13.983  2.0412  1.0698  0.6687
19033TIP3    H278515   4.006   4.267  14.088  0.1597  1.5276  0.6279
19034TIP3   OH278516   4.534   1.289   5.308 -0.2835 -0.5955  0.1310
19034TIP3    H178517   4.482   1.366   5.287 -0.0164 -0.0125  1.4884
19034TIP3    H278518   4.478   1.236   5.364  0.0297 -0.7169  0.3323
19035TIP3   OH278519   4.123   5.125  10.597  0.2918  0.1567 -0.6081
19035TIP3    H178520   4.180   5.064  10.644 -0.9770 -0.5233  0.1306
19035TIP3    H278521   4.180   5.196  10.570  1.4126 -0.3269  0.3921
19036TIP3   OH278522   1.307   1.315   1.389  0.3866  0.5191 -0.2414
19036TIP3    H178523   1.239   1.319   1.457 -0.1813  1.1441 -0.8312
19036TIP3    H278524   1.389   1.324   1.437 -0.0590  2.4337  0.2457
19037TIP3   OH278525   3.336   1.247   3.601  0.1491 -0.2968  0.5691
19037TIP3    H178526   3.301   1.330   3.633  1.8540  0.2085  1.2389
19037TIP3    H278527   3.428   1.266   3.580 -0.5433 -0.7475 -4.0444
19038TIP3   OH278528   0.271   1.890  12.672 -0.0168  0.4344 -0.2270
19038TIP3    H178529   0.321   1.814  12.700  0.4171  1.4202  1.9019
19038TIP3    H278530   0.212   1.909  12.744 -0.6283  1.6945 -1.0072
19039TIP3   OH278531   0.565   1.599  11.769 -0.0608 -0.0410  0.5972
19039TIP3    H178532   0.522   1.658  11.831 -0.2566  0.4815 -0.0222
19039TIP3    H278533   0.502   1.590  11.698  0.6982  0.4657 -0.1690
19040TIP3   OH278534   6.398   6.660  14.889  0.2908  0.0087 -0.0002
19040TIP3    H178535   6.309   6.671  14.855 -0.9646  0.2867  3.0548
19040TIP3    H278536   6.428   6.577  14.853 -0.9134  0.2594 -1.6629
19041TIP3   OH278537   0.644   6.365  14.578 -0.3969  0.2686  0.4719
19041TIP3    H178538   0.737   6.388  14.575 -0.1232 -0.7984  0.4106
19041TIP3    H278539   0.629   6.337  14.668 -0.0911 -1.7513 -0.0590
19042TIP3   OH278540   1.701   2.421  13.450  0.0867 -0.1731  0.1474
19042TIP3    H178541   1.676   2.513  13.454  2.5872  0.5919  0.1660
19042TIP3    H278542   1.690   2.396  13.358  1.4991  0.8654 -0.3416
19043TIP3   OH278543   3.585   2.154   3.305 -0.5798 -0.0101  0.4972
19043TIP3    H178544   3.591   2.117   3.217  0.1927 -4.1511  2.0786
19043TIP3    H278545   3.652   2.223   3.306 -0.3466 -0.0974 -1.9829
19044TIP3   OH278546   4.346   1.635   3.596  0.2128  0.0094  0.2800
19044TIP3    H178547   4.330   1.548   3.630 -0.7379  0.2655  0.5205
19044TIP3    H278548   4.306   1.635   3.509  1.8585 -0.3631 -0.5329
19045TIP3   OH278549   6.472   2.657   3.411 -0.0661 -0.2580 -0.8237
19045TIP3    H178550   6.426   2.682   3.491  0.2816 -1.6877 -0.1406
19045TIP3    H278551   6.531   2.731   3.393  0.5088 -0.2897  0.7648
19046TIP3   OH278552   0.944   1.733   6.401  0.2845 -0.4756 -0.4123
19046TIP3    H178553   0.934   1.640   6.420  1.1007 -0.6749 -0.9037
19046TIP3    H278554   0.982   1.736   6.313  1.9034  0.2502  0.2696
19047TIP3   OH278555   3.342   4.605  16.241 -0.0312  0.1906  0.0128
19047TIP3    H178556   3.433   4.577  16.244  0.0141 -0.4350 -3.2655
19047TIP3    H278557   3.295   4.538  16.290  1.2248  0.4630  1.6487
19048TIP3   OH278558   4.190   2.067  10.619  0.3518 -0.3195 -0.1088
19048TIP3    H178559   4.168   2.133  10.684 -1.8913 -2.6829  1.7677
19048TIP3    H278560   4.266   2.021  10.657  0.2033 -0.5187 -0.0476
19049TIP3   OH278561   2.915   6.140   1.236  0.3860  0.1020  0.5455
19049TIP3    H178562   3.007   6.150   1.211 -0.1026  0.5252 -1.1992
19049TIP3    H278563   2.866   6.170   1.160 -1.2114 -0.4355  1.3197
19050TIP3   OH278564   5.258   2.425  16.028 -0.3012  0.1289  0.1125
19050TIP3    H178565   5.236   2.481  16.102 -0.1515  0.7177 -0.2885
19050TIP3    H278566   5.353   2.420  16.028 -0.2709  0.7066 -0.4664
19051TIP3   OH278567   4.365   6.266  11.781 -0.0798  0.0625  0.0199
19051TIP3    H178568   4.438   6.208  11.757  0.5481  0.6400  0.5001
19051TIP3    H278569   4.286   6.214  11.763  0.2977  0.4524 -3.3861
19052TIP3   OH278570   5.333   4.269   0.716 -0.8190 -0.0561 -0.4980
19052TIP3    H178571   5.248   4.280   0.675 -1.3059  1.0912  0.7302
19052TIP3    H278572   5.326   4.316   0.799  0.8166 -0.4564 -0.0867
19053TIP3   OH278573   5.917   1.928  13.665  0.3136  0.5825  0.1041
19053TIP3    H178574   5.965   1.997  13.711 -0.0952  1.2735 -0.4734
19053TIP3    H278575   5.846   1.975  13.620 -0.6830 -0.3709  0.6496
19054TIP3   OH278576   0.720   5.744  12.891  0.9081  0.2020 -0.1807
19054TIP3    H178577   0.653   5.810  12.907  1.0994  0.3177  0.1678
19054TIP3    H278578   0.744   5.714  12.979  1.5971  0.4528 -0.2772
19055TIP3   OH278579   2.301   3.914   0.770 -0.1558  0.2271 -0.4770
19055TIP3    H178580   2.283   3.864   0.849  2.1969 -0.0433 -0.0323
19055TIP3    H278581   2.227   3.974   0.762 -0.9660 -0.4546  1.3247
19056TIP3   OH278582   2.099   3.413   5.554 -0.1751 -0.0647  0.1862
19056TIP3    H178583   2.092   3.448   5.465 -2.5637 -1.1152 -0.1086
19056TIP3    H278584   2.129   3.323   5.543  0.3984  0.0829  0.5141
19057TIP3   OH278585   5.770   3.753   3.353  0.1415 -0.2080  0.1728
19057TIP3    H178586   5.787   3.834   3.304  0.2674 -1.2565 -1.6168
19057TIP3    H278587   5.686   3.768   3.395  0.2615  0.9309  0.0381
19058TIP3   OH278588   2.200   2.568  11.191 -0.2239  0.6784 -0.2015
19058TIP3    H178589   2.277   2.573  11.248  0.3008  1.2705 -0.9290
19058TIP3    H278590   2.230   2.518  11.115 -0.9489 -0.2079  0.0828
19059TIP3   OH278591   0.029   2.651  17.128 -0.2005  0.5593 -0.0631
19059TIP3    H178592   0.081   2.708  17.185 -0.6525 -0.2181  1.1787
19059TIP3    H278593  -0.046   2.627  17.182 -0.8907  0.1571 -1.1704
19060TIP3   OH278594   4.234   2.015  12.221  0.0648  0.4627 -0.3854
19060TIP3    H178595   4.149   1.980  12.245 -0.1160  1.1519  0.0100
19060TIP3    H278596   4.245   2.092  12.277  1.6156 -0.4738  0.6552
19061TIP3   OH278597   0.178   3.265   2.774  0.4779  0.5564 -0.8672
19061TIP3    H178598   0.163   3.188   2.718  0.0908 -1.1768  1.4730
19061TIP3    H278599   0.093   3.308   2.778  0.0755 -0.2585 -0.3282
19062TIP3   OH278600   2.932   5.930   4.281 -0.0091 -0.6927  0.2827
19062TIP3    H178601   2.847   5.958   4.249  0.3911 -0.1258 -0.2954
19062TIP3    H278602   2.984   5.915   4.202  0.0937 -2.1242  0.5907
19063TIP3   OH278603   0.476   2.701   2.209 -0.2832 -0.2300  0.0530
19063TIP3    H178604   0.517   2.615   2.212  1.0365  0.4044  1.2169
19063TIP3    H278605   0.477   2.725   2.116  2.3435 -0.1061  0.0556
19064TIP3   OH278606   3.634   1.967   3.493  0.8811 -0.2834 -0.1642
19064TIP3    H178607   3.622   2.033   3.425  1.9264 -0.5909 -0.6727
19064TIP3    H278608   3.719   1.928   3.474  1.4615 -0.0212  1.6351
19065TIP3   OH278609   1.267   5.143   1.439  0.2530  0.5094 -0.4294
19065TIP3    H178610   1.314   5.197   1.502 -0.0102 -0.1106  0.3129
19065TIP3    H278611   1.215   5.205   1.387  0.6772  1.0463 -0.2146
19066TIP3   OH278612   6.366   4.975  16.337  0.7222 -0.1398 -0.2990
19066TIP3    H178613   6.444   4.921  16.329 -0.4495 -2.0307  0.5017
19066TIP3    H278614   6.293   4.915  16.322 -0.7215  0.6871  2.7297
19067TIP3   OH278615   6.213   5.566  13.769 -1.1249  0.1197  1.0413
19067TIP3    H178616   6.187   5.657  13.763  0.6850  0.6291  0.2463
19067TIP3    H278617   6.219   5.536  13.679  0.0320 -0.2398  1.2219
19068TIP3   OH278618   6.665   5.885   0.378 -0.1007  0.2015 -0.1441
19068TIP3    H178619   6.715   5.828   0.320  0.1887  0.3606 -0.0549
19068TIP3    H278620   6.721   5.898   0.454  1.1961  3.0105 -1.4188
19069TIP3   OH278621   6.313   5.546  14.046 -0.1182  0.6159 -0.1049
19069TIP3    H178622   6.289   5.453  14.049 -0.6804  0.7664  0.3186
19069TIP3    H278623   6.252   5.585  13.984  1.2966  0.3872 -1.6925
19070TIP3   OH278624   1.391   2.879  11.784 -0.2623 -0.0625  0.5138
19070TIP3    H178625   1.447   2.949  11.816  0.8578  0.1475 -1.7327
19070TIP3    H278626   1.434   2.848  11.704 -1.7272 -2.0308  0.4075
19071TIP3   OH278627   0.008   6.254   4.390  0.0315 -0.0489  0.2508
19071TIP3    H178628  -0.033   6.174   4.358 -0.1161 -0.1923  0.8013
19071TIP3    H278629   0.022   6.307   4.311  0.0758 -0.5885 -0.1043
19072TIP3   OH278630   0.822   1.930   5.680  0.0823 -0.0910  0.7235
19072TIP3    H178631   0.780   1.949   5.596 -0.8897  2.3924  1.6708
19072TIP3    H278632   0.797   1.839   5.698 -0.4001 -0.4126 -1.2429
19073TIP3   OH278633   3.749   2.543  11.257 -0.4991  0.6887  0.3165
19073TIP3    H178634   3.842   2.566  11.258  0.2382 -1.8718 -0.3434
19073TIP3    H278635   3.747   2.451  11.285 -2.8933  0.8010  0.7396
19074TIP3   OH278636   4.609   0.301   3.954  0.0363 -0.3244  0.0163
19074TIP3    H178637   4.619   0.292   3.859 -0.5758 -0.1745 -0.0665
19074TIP3    H278638   4.621   0.394   3.970  0.4155 -0.3903  0.1232
19075TIP3   OH278639   3.627   0.511   5.886  0.0453 -0.3066  0.3949
19075TIP3    H178640   3.570   0.463   5.946  1.4162  0.4086  2.3548
19075TIP3    H278641   3.658   0.586   5.937  0.4969  0.8921 -1.5419
19076TIP3   OH278642   5.647   6.762  12.027  0.0513  0.0862  0.3500
19076TIP3    H178643   5.605   6.677  12.014  0.0453  0.2865 -1.1087
19076TIP3    H278644   5.583   6.814  12.074 -0.0848 -0.6056  0.9410
19077TIP3   OH278645   0.298   6.058   2.655 -0.6816 -0.1715  0.0908
19077TIP3    H178646   0.390   6.035   2.643  0.0770  1.7482  1.7054
19077TIP3    H278647   0.250   5.989   2.609  1.5376 -1.3055 -0.6694
19078TIP3   OH278648   6.230   5.954  15.316  0.2907 -0.0956 -0.4221
19078TIP3    H178649   6.202   5.864  15.335 -0.9231  0.0868 -1.2732
19078TIP3    H278650   6.248   5.955  15.222 -0.4457  0.7298 -0.5718
19079TIP3   OH278651   0.106   2.281  15.159  0.3838  0.0254 -0.0488
19079TIP3    H178652   0.055   2.278  15.078  0.6529 -1.0496 -0.1846
19079TIP3    H278653   0.140   2.371  15.161  0.8221 -0.0806 -1.4042
19080TIP3   OH278654   5.014   3.867  14.912  0.5510 -0.2601  0.2009
19080TIP3    H178655   5.007   3.852  14.818  1.1704  0.6699 -0.0079
19080TIP3    H278656   5.056   3.789  14.946  0.7881 -0.3839 -0.3724
19081TIP3   OH278657   0.163   1.480  11.701 -0.0270  0.5118 -0.0184
19081TIP3    H178658   0.159   1.388  11.726  1.2221  0.3219 -0.4308
19081TIP3    H278659   0.250   1.491  11.663  0.1501  2.0465  0.7520
19082TIP3   OH278660   5.987   1.878  12.586 -0.3555 -0.1832 -0.6228
19082TIP3    H178661   6.002   1.807  12.523 -1.9583  0.4919 -1.8372
19082TIP3    H278662   5.955   1.951  12.533  0.9196  1.3732  0.6358
19083TIP3   OH278663   1.948   0.319   1.866  0.0759  0.3843  1.0277
19083TIP3    H178664   1.879   0.386   1.872 -0.6137 -0.3373  1.3440
19083TIP3    H278665   1.947   0.276   1.951 -1.3005 -1.7339  0.0381
19084TIP3   OH278666   3.940   6.561   1.712 -1.0329  0.1832 -0.4286
19084TIP3    H178667   3.853   6.542   1.746 -0.9738  0.1133 -0.3137
19084TIP3    H278668   3.991   6.584   1.790 -1.5486  2.6342 -0.7270
19085TIP3   OH278669   2.069   3.330  13.117  0.4973  0.7436  0.5156
19085TIP3    H178670   2.006   3.269  13.155 -1.1647  2.2554  0.2915
19085TIP3    H278671   2.152   3.281  13.115 -0.7691 -1.4895  0.2827
19086TIP3   OH278672   2.729   6.201   4.480  0.2604  0.0087  0.3707
19086TIP3    H178673   2.640   6.170   4.496 -0.6471  2.1493 -0.1028
19086TIP3    H278674   2.717   6.282   4.429  2.3702  1.4641  2.0071
19087TIP3   OH278675   5.622   6.499  13.061 -0.3696 -0.2928  0.3742
19087TIP3    H178676   5.543   6.484  13.008  0.2832  1.4188 -1.1862
19087TIP3    H278677   5.682   6.544  13.002  0.7019  1.0350  2.3584
19088TIP3   OH278678   2.213   5.831   2.225 -0.3826 -0.2577 -0.4925
19088TIP3    H178679   2.170   5.915   2.240  1.0396  0.6662 -1.3998
19088TIP3    H278680   2.171   5.771   2.287 -1.6430  1.0376 -0.0567
19089TIP3   OH278681   4.067   2.579  16.812 -0.1120  0.6779  0.1170
19089TIP3    H178682   4.122   2.655  16.827 -1.0081  1.2772  0.4691
19089TIP3    H278683   3.982   2.603  16.848 -0.0972 -0.9545  1.3582
19090TIP3   OH278684   0.598   2.814  15.541  0.0920 -0.0018 -0.0235
19090TIP3    H178685   0.573   2.873  15.612 -0.5592 -1.4882  1.0363
19090TIP3    H278686   0.536   2.834  15.471 -0.9092 -0.2348  0.7722
19091TIP3   OH278687   2.933   3.121   5.423 -0.1348  0.0623  0.2146
19091TIP3    H178688   2.864   3.177   5.458  0.0976 -0.3593  1.3889
19091TIP3    H278689   2.917   3.119   5.329  0.5059  3.0111 -0.0699
19092TIP3   OH278690   2.068   1.183   1.893 -0.1496  0.1873 -0.2747
19092TIP3    H178691   2.045   1.175   1.800  0.1364  1.0690 -0.4304
19092TIP3    H278692   2.014   1.116   1.936 -0.7317  0.1687 -0.9994
19093TIP3   OH278693   6.133   1.507   4.265  0.1221  0.2900 -0.3823
19093TIP3    H178694   6.071   1.468   4.204  0.2360  1.7812 -1.5252
19093TIP3    H278695   6.176   1.433   4.307 -1.1845 -0.7665 -0.8588
19094TIP3   OH278696   5.286   4.750  17.229  0.7130 -0.3529 -0.0209
19094TIP3    H178697   5.199   4.790  17.239 -0.3486 -1.6714 -2.8994
19094TIP3    H278698   5.342   4.819  17.196 -0.4448 -0.4975 -2.4632
19095TIP3   OH278699   3.860   0.233   2.400  0.4817  0.1528  0.0644
19095TIP3    H178700   3.894   0.318   2.372 -2.3941  1.0949 -0.8639
19095TIP3    H278701   3.791   0.213   2.338 -0.0070 -2.1269  1.2390
19096TIP3   OH278702   0.745   0.058   3.234  0.2490 -0.4892 -0.1494
19096TIP3    H178703   0.751   0.140   3.185 -1.0308 -1.1183 -1.4205
19096TIP3    H278704   0.678   0.075   3.301 -0.4965 -0.6732 -0.8312
19097TIP3   OH278705   5.772   5.238  14.857 -0.3505  0.3817  0.3401
19097TIP3    H178706   5.790   5.291  14.780 -3.4698 -0.0147 -0.7832
19097TIP3    H278707   5.742   5.300  14.923  0.3978  0.4927  0.5847
19098TIP3   OH278708   4.993   2.818   1.960 -0.1781 -0.0823  0.0600
19098TIP3    H178709   5.072   2.870   1.943  0.7168 -1.1801  0.7231
19098TIP3    H278710   4.942   2.871   2.020 -0.2934  0.9510 -0.9160
19099TIP3   OH278711   3.866   1.987  13.220 -0.6873 -0.3714 -0.2915
19099TIP3    H178712   3.792   1.966  13.278 -0.3858  0.1320  0.2878
19099TIP3    H278713   3.932   2.025  13.278 -1.4235  2.7792 -1.3046
19100TIP3   OH278714   2.232   1.593  13.808  0.1557 -0.5185  0.0556
19100TIP3    H178715   2.180   1.608  13.887  2.7943  2.6358  1.3981
19100TIP3    H278716   2.199   1.657  13.745  1.1941  0.2791  0.3042
19101TIP3   OH278717   2.617   3.567   0.327 -0.1881  0.0593 -0.0887
19101TIP3    H178718   2.543   3.536   0.378  0.3317 -0.2205  0.5076
19101TIP3    H278719   2.614   3.517   0.246 -0.8305  0.2730 -0.2001
19102TIP3   OH278720   4.412   6.091  15.865 -0.0674  0.7427 -0.0272
19102TIP3    H178721   4.331   6.138  15.887 -0.2250 -0.0916  1.3126
19102TIP3    H278722   4.395   6.001  15.893  0.5412  0.0629 -1.7501
19103TIP3   OH278723   0.857   0.554   5.763 -0.5440  0.7200 -0.3340
19103TIP3    H178724   0.913   0.524   5.835 -0.5699  0.4709 -0.4171
19103TIP3    H278725   0.918   0.594   5.701 -0.4351  0.2901 -0.5068
19104TIP3   OH278726   2.637   3.824   3.123  0.0527 -0.2394 -0.1491
19104TIP3    H178727   2.642   3.836   3.218 -0.2633 -1.6489  0.0644
19104TIP3    H278728   2.555   3.778   3.109  1.1757 -2.1765 -0.8397
19105TIP3   OH278729   5.896   0.569  13.715 -0.5336 -0.2664  0.2046
19105TIP3    H178730   5.915   0.529  13.630  0.2378  1.4013 -0.4624
19105TIP3    H278731   5.806   0.543  13.734 -0.5638 -1.0560 -0.9065
19106TIP3   OH278732   1.068   1.206   2.475 -0.2358 -0.0995 -0.3628
19106TIP3    H178733   1.148   1.207   2.527 -0.0944  0.4940 -0.5899
19106TIP3    H278734   1.002   1.249   2.530  0.1660  1.4828 -1.0520
19107TIP3   OH278735   2.002   3.998  13.007  0.2465 -0.4393 -0.1507
19107TIP3    H178736   1.919   3.950  13.003  0.6826 -1.1884 -0.4358
19107TIP3    H278737   2.012   4.037  12.920  0.5442 -0.9548 -0.3491
19108TIP3   OH278738   5.538   5.933  12.171 -0.3759 -0.0410  0.4168
19108TIP3    H178739   5.588   6.012  12.147  2.2774 -1.5440  0.5346
19108TIP3    H278740   5.599   5.861  12.155 -2.7753 -2.1357  0.0815
19109TIP3   OH278741   1.390   1.735   0.108 -0.0673  0.3728  0.4157
19109TIP3    H178742   1.300   1.739   0.075  0.0630 -1.0548 -0.1414
19109TIP3    H278743   1.438   1.684   0.043  0.9317  0.2920  1.1898
19110TIP3   OH278744   3.900   1.238   5.743 -0.1583 -0.3303 -0.2835
19110TIP3    H178745   3.937   1.234   5.831 -0.0318 -0.9001 -0.3584
19110TIP3    H278746   3.813   1.201   5.752 -0.4860  0.4337 -0.2301
19111TIP3   OH278747   0.085   1.021   4.603  0.0169 -0.3384  0.0298
19111TIP3    H178748   0.056   1.005   4.513  0.2882 -0.5386 -0.0254
19111TIP3    H278749   0.136   1.102   4.598  1.5133 -1.2638 -0.3345
19112TIP3   OH278750   2.156   2.188  12.428 -0.5541  0.2514 -0.9016
19112TIP3    H178751   2.210   2.225  12.358  1.9949 -0.9952  0.2820
19112TIP3    H278752   2.181   2.237  12.506 -2.0578  0.4300 -0.5004
19113TIP3   OH278753   1.298   6.155  15.007 -0.2431  0.3430  0.3523
19113TIP3    H178754   1.238   6.091  14.969  1.5415 -0.7293 -0.7659
19113TIP3    H278755   1.271   6.239  14.968  0.4260 -0.4669 -1.9978
19114TIP3   OH278756   0.252   6.401   5.971 -0.5345 -0.4214  0.3957
19114TIP3    H178757   0.311   6.410   6.045  0.4440 -0.3221 -0.3709
19114TIP3    H278758   0.301   6.436   5.897 -2.0127  0.8217 -0.0670
19115TIP3   OH278759   5.012   2.449   5.162  1.0027  0.5970  0.0166
19115TIP3    H178760   5.092   2.451   5.214  0.9760 -0.1271  0.0977
19115TIP3    H278761   5.008   2.360   5.128 -0.4602  0.2119  1.0946
19116TIP3   OH278762   5.440   3.162  12.328  0.6846  0.2318 -0.0811
19116TIP3    H178763   5.446   3.194  12.238  0.7891  1.7094  0.4181
19116TIP3    H278764   5.429   3.068  12.319  0.1888  0.4000 -1.6542
19117TIP3   OH278765   3.686   1.214  17.120 -0.2042 -0.8572 -0.1407
19117TIP3    H178766   3.762   1.261  17.086 -0.1273  0.1635  1.3634
19117TIP3    H278767   3.629   1.203  17.044  1.3801 -1.5720 -1.2863
19118TIP3   OH278768   4.599   0.445  12.456  0.4126  0.0439  0.4403
19118TIP3    H178769   4.648   0.447  12.539  1.2555 -1.1248 -0.0002
19118TIP3    H278770   4.509   0.427  12.482  0.8230 -1.2796  1.0797
19119TIP3   OH278771   3.364   5.899  15.553 -0.1619 -0.0388  0.0661
19119TIP3    H178772   3.436   5.962  15.547  0.8264 -1.1964 -0.4999
19119TIP3    H278773   3.324   5.917  15.638  1.7705 -0.3881  1.1001
19120TIP3   OH278774   5.608   3.031  12.641  0.9932  0.0984  0.5172
19120TIP3    H178775   5.564   3.089  12.703  0.0622 -0.1395  0.1071
19120TIP3    H278776   5.650   3.089  12.579  0.2191  0.3473  0.2149
19121TIP3   OH278777   3.127   1.518  16.183  0.0181  0.1469  0.2419
19121TIP3    H178778   3.070   1.485  16.114  0.4719 -0.8105  0.2970
19121TIP3    H278779   3.075   1.583  16.229 -0.7525 -0.1580 -0.1873
19122TIP3   OH278780   3.870   0.483   0.451 -0.1249  0.6171 -0.4541
19122TIP3    H178781   3.869   0.544   0.525 -1.3488  1.4807 -1.1408
19122TIP3    H278782   3.779   0.452   0.444  0.1691 -0.1696 -1.0284
19123TIP3   OH278783   2.342   2.376  15.053 -0.7039 -0.4042  0.0116
19123TIP3    H178784   2.301   2.402  15.135 -2.0874  0.0211 -0.7891
19123TIP3    H278785   2.271   2.342  14.999 -0.3461  1.7660 -2.0079
19124TIP3   OH278786   4.235   1.182   3.117 -0.0817 -0.1794 -0.6127
19124TIP3    H178787   4.242   1.240   3.042  0.4477 -0.8095 -1.0584
19124TIP3    H278788   4.257   1.095   3.083  1.4098 -0.2827  0.5134
19125TIP3   OH278789   4.137   5.060  15.876 -0.5981  0.3886 -0.2282
19125TIP3    H178790   4.093   4.992  15.928 -0.8017  0.5725 -0.1608
19125TIP3    H278791   4.094   5.058  15.791 -1.2909  1.1217  0.0941
19126TIP3   OH278792   5.219   1.614   0.273  0.0035 -0.3931 -0.1889
19126TIP3    H178793   5.164   1.590   0.348  1.0603  0.1704  0.8029
19126TIP3    H278794   5.240   1.531   0.231  0.5252 -0.8611  0.9674
19127TIP3   OH278795   3.792   4.437  15.326  0.2588  0.6207  0.2371
19127TIP3    H178796   3.700   4.462  15.342  0.9586  1.9321  2.8248
19127TIP3    H278797   3.808   4.366  15.388  0.8294 -0.0934 -0.7113
19128TIP3   OH278798   3.998   3.839   3.376 -0.1974 -0.4718 -0.1984
19128TIP3    H178799   3.928   3.794   3.328 -0.0201 -0.2775 -0.6400
19128TIP3    H278800   3.957   3.866   3.459 -1.7950  2.8865 -1.8648
19129TIP3   OH278801   1.121   0.998   4.796  0.1833 -0.2722 -0.0833
19129TIP3    H178802   1.079   0.912   4.795 -1.8009  0.3703  4.4988
19129TIP3    H278803   1.079   1.046   4.725 -3.9246 -1.0598  1.5381
19130TIP3   OH278804   6.483   1.123   5.934 -0.0118 -0.0433 -0.0046
19130TIP3    H178805   6.537   1.201   5.941 -1.2641  0.9121 -0.6442
19130TIP3    H278806   6.397   1.155   5.907 -0.2945 -1.7322 -1.2947
19131TIP3   OH278807   5.022   2.984  12.296  0.3208  0.0271  0.2944
19131TIP3    H178808   4.933   3.019  12.298  0.1983 -0.1550 -0.9862
19131TIP3    H278809   5.029   2.931  12.375 -0.8252 -0.2150  0.2548
19132TIP3   OH278810   3.398   0.505  15.363 -0.1943 -0.2512 -0.2256
19132TIP3    H178811   3.433   0.577  15.416  0.3124 -0.7525  0.1392
19132TIP3    H278812   3.315   0.539  15.328 -1.5299 -0.5568  2.4130
19133TIP3   OH278813   5.652   3.694   4.457  0.0268 -0.3506 -0.5531
19133TIP3    H178814   5.736   3.721   4.421  1.0248 -2.5832 -0.1058
19133TIP3    H278815   5.589   3.757   4.422  1.4822 -0.1802 -3.1098
19134TIP3   OH278816   5.910   4.623  12.723 -0.2938  0.1645 -0.5158
19134TIP3    H178817   5.993   4.616  12.769  0.0330  2.0706 -0.7229
19134TIP3    H278818   5.873   4.535  12.725  0.0330 -0.0088  2.7404
19135TIP3   OH278819   6.494   1.358   0.326  0.0574  0.1699 -0.2775
19135TIP3    H178820   6.531   1.412   0.256 -0.0247  0.2627 -0.2491
19135TIP3    H278821   6.400   1.375   0.322  0.0320  0.0363 -0.2625
19136TIP3   OH278822   2.888   4.205   0.979  0.0497 -0.1844  0.0834
19136TIP3    H178823   2.872   4.276   0.917 -1.3651 -0.4294  0.1308
19136TIP3    H278824   2.891   4.126   0.925 -2.3263 -0.5506  0.3420
19137TIP3   OH278825   0.799   3.495  16.854  0.3880  0.4202 -0.0122
19137TIP3    H178826   0.824   3.447  16.933 -0.6974  1.1388  0.8110
19137TIP3    H278827   0.862   3.566  16.848  0.1160  0.7233  0.5819
19138TIP3   OH278828   6.270   5.229   1.211  0.1809  0.0841 -0.1001
19138TIP3    H178829   6.289   5.146   1.167 -0.4580  1.2731 -2.7457
19138TIP3    H278830   6.177   5.223   1.233  0.4896 -0.4904  1.2183
19139TIP3   OH278831   4.307   0.429   1.643  0.7507  0.8594  0.3921
19139TIP3    H178832   4.331   0.397   1.730  1.8608 -0.0210 -0.2165
19139TIP3    H278833   4.219   0.466   1.654 -0.1391 -1.4010  1.3619
19140TIP3   OH278834   0.587   5.620   4.587  0.1232 -0.4125  0.0867
19140TIP3    H178835   0.638   5.588   4.661 -0.9384  0.6763  1.3288
19140TIP3    H278836   0.496   5.609   4.613 -0.2693  0.6581 -0.7330
19141TIP3   OH278837   2.149   0.188   3.318  0.1370 -0.1928 -0.1192
19141TIP3    H178838   2.089   0.122   3.352  0.0830 -0.2345 -0.3002
19141TIP3    H278839   2.202   0.141   3.254  0.7825 -0.3169  0.4845
19142TIP3   OH278840   5.718   4.437  10.737  0.0803 -0.2668 -0.0535
19142TIP3    H178841   5.757   4.359  10.776 -0.6012 -0.1615  0.8757
19142TIP3    H278842   5.788   4.502  10.739  0.6503 -0.8331 -0.8262
19143TIP3   OH278843   0.877   1.635  14.754  0.1485 -0.3146 -0.6595
19143TIP3    H178844   0.810   1.593  14.808 -0.5655 -0.4628 -1.6180
19143TIP3    H278845   0.909   1.565  14.697  0.6146 -0.0819 -0.6890
19144TIP3   OH278846   4.740   0.218  11.422 -0.5959  0.5425  0.7240
19144TIP3    H178847   4.744   0.123  11.411 -1.5822  0.6729 -1.1251
19144TIP3    H278848   4.763   0.232  11.514 -2.2343 -1.6167  1.5577
19145TIP3   OH278849   6.299   1.027   3.456  0.1522 -0.9289 -0.4756
19145TIP3    H178850   6.239   1.073   3.398 -0.2850  0.3346  0.9405
19145TIP3    H278851   6.370   1.089   3.472  0.1748 -1.1809  0.4766
19146TIP3   OH278852   3.005   1.545   3.221  0.1899  0.1878  0.1365
19146TIP3    H178853   2.997   1.639   3.239  1.4805  0.7330 -1.7392
19146TIP3    H278854   3.097   1.534   3.193 -0.3137 -1.3405 -1.0711
19147TIP3   OH278855   3.691   2.005   5.629  0.1602  0.6806 -0.6045
19147TIP3    H178856   3.725   2.061   5.559  0.1582 -0.1285 -1.2717
19147TIP3    H278857   3.734   1.921   5.615 -0.2114  0.3713  0.0768
19148TIP3   OH278858   1.583   1.943  14.964  0.4099  0.1429  0.1612
19148TIP3    H178859   1.603   2.036  14.965 -0.1068  0.2636  2.0988
19148TIP3    H278860   1.668   1.900  14.972  0.5866  0.4619  0.0062
19149TIP3   OH278861   2.331   3.975   4.531 -0.0976 -0.0465  0.2020
19149TIP3    H178862   2.404   4.003   4.587  0.8088 -0.1086 -0.9057
19149TIP3    H278863   2.297   4.056   4.494  1.3636 -0.1651 -1.5893
19150TIP3   OH278864   4.652   0.326   0.581 -0.6256  0.5062 -0.1359
19150TIP3    H178865   4.738   0.361   0.556  0.0686 -0.1573  1.2371
19150TIP3    H278866   4.645   0.345   0.675 -1.8774  0.3119 -0.1732
19151TIP3   OH278867   6.379   2.934  15.499 -0.1088  0.7815  0.5495
19151TIP3    H178868   6.442   2.884  15.551  0.4579  0.3137 -0.5622
19151TIP3    H278869   6.306   2.874  15.484 -0.0563  0.7553  0.3985
19152TIP3   OH278870   2.964   1.845  11.127  0.6684  0.2685 -0.4818
19152TIP3    H178871   2.950   1.751  11.135  0.6210  0.4242  2.6779
19152TIP3    H278872   3.007   1.856  11.042  0.2331 -2.5175 -1.1657
19153TIP3   OH278873   1.551   2.817  11.560  1.2012 -0.0424 -0.1251
19153TIP3    H178874   1.490   2.780  11.497  1.4154 -0.5689 -0.0297
19153TIP3    H278875   1.617   2.749  11.573  1.9583  0.6055 -0.4213
19154TIP3   OH278876   5.158   3.464  13.947  0.0595 -0.4519 -0.1735
19154TIP3    H178877   5.081   3.414  13.919  0.4913 -0.7708 -0.8301
19154TIP3    H278878   5.230   3.426  13.896  0.8162 -0.7922  1.1069
19155TIP3   OH278879   0.345   2.071  16.531 -0.2368 -0.2860  0.1973
19155TIP3    H178880   0.404   2.124  16.584 -0.0052 -2.0675  1.7923
19155TIP3    H278881   0.359   2.103  16.441  0.3281  1.8839  0.9990
19156TIP3   OH278882   5.519   1.912  13.829 -0.1140 -0.2681 -0.4325
19156TIP3    H178883   5.526   1.866  13.913  0.6990  0.0620 -0.3140
19156TIP3    H278884   5.434   1.885  13.795  0.1558 -1.5304 -0.1702
19157TIP3   OH278885   2.660   6.249   1.823 -0.0023  0.2130 -0.2442
19157TIP3    H178886   2.653   6.189   1.898 -0.0277 -0.9173 -1.1273
19157TIP3    H278887   2.621   6.200   1.750 -0.2574  1.4210 -0.9309
19158TIP3   OH278888   4.748   3.047   1.452 -0.5138  0.1647  0.5195
19158TIP3    H178889   4.817   3.106   1.423  3.0610 -3.2800  1.1145
19158TIP3    H278890   4.742   2.981   1.382 -0.3355 -1.7232  2.2036
19159TIP3   OH278891   3.874   6.629  10.979 -0.1414 -0.0147 -0.1137
19159TIP3    H178892   3.902   6.546  10.941  1.7200 -0.3890  1.8861
19159TIP3    H278893   3.913   6.630  11.066 -1.4335  2.2776  0.5301
19160TIP3   OH278894   1.042   5.586  13.756 -0.3055  0.2617  0.2249
19160TIP3    H178895   0.976   5.552  13.695 -1.4031 -0.0646  1.5448
19160TIP3    H278896   1.011   5.674  13.776  0.3669  0.5814 -0.1105
19161TIP3   OH278897   1.814   3.571   3.562  0.0302 -0.3756  0.4537
19161TIP3    H178898   1.875   3.497   3.562 -0.4255 -0.7602 -0.4077
19161TIP3    H278899   1.740   3.541   3.510  0.8963  1.5191 -2.0389
19162TIP3   OH278900   1.114   4.538   4.656  0.1466  0.3268 -0.5046
19162TIP3    H178901   1.072   4.623   4.645 -0.2910  0.0447 -1.0938
19162TIP3    H278902   1.121   4.503   4.567  1.4727  0.2841 -0.4040
19163TIP3   OH278903   6.165   4.694   5.730 -0.3060  0.4728 -1.0036
19163TIP3    H178904   6.198   4.732   5.811  1.1599 -1.7501 -0.4664
19163TIP3    H278905   6.147   4.769   5.673 -1.4680  2.0978  1.3474
19164TIP3   OH278906   4.568   0.878   3.490 -0.0172  0.5787  0.0606
19164TIP3    H178907   4.548   0.905   3.400 -1.4554  1.6010  0.6546
19164TIP3    H278908   4.632   0.807   3.480 -2.3116 -1.3713 -1.8864
19165TIP3   OH278909   2.916   4.694   2.708 -0.3763 -0.1946 -0.1726
19165TIP3    H178910   2.885   4.743   2.631 -1.2170 -0.4762 -0.0293
19165TIP3    H278911   2.995   4.649   2.678 -0.4249  0.0797 -0.7333
19166TIP3   OH278912   5.286   2.915  16.453 -0.6540  0.3425  0.0998
19166TIP3    H178913   5.295   2.824  16.424 -2.1002  0.0404  0.4970
19166TIP3    H278914   5.236   2.910  16.535  1.6396  1.3275  1.6520
19167TIP3   OH278915   6.295   2.893   4.517 -0.2613  0.2943 -0.1215
19167TIP3    H178916   6.358   2.947   4.566 -1.0478  1.5352 -0.4173
19167TIP3    H278917   6.268   2.949   4.444 -0.3869 -0.8899 -1.0096
19168TIP3   OH278918   4.698   5.353   2.575 -0.1621  0.4857 -0.0497
19168TIP3    H178919   4.759   5.337   2.502  0.5488  0.8653  0.4529
19168TIP3    H278920   4.753   5.353   2.653 -1.2278 -2.5928  0.8561
19169TIP3   OH278921   2.125   4.526  10.384 -0.4265  0.0349  0.3557
19169TIP3    H178922   2.035   4.515  10.351 -0.6164  0.4992  0.7083
19169TIP3    H278923   2.176   4.462  10.334 -0.9893 -0.3894  0.3063
19170TIP3   OH278924   1.270   1.130  11.867 -0.5304  0.3365  0.2302
19170TIP3    H178925   1.315   1.072  11.806 -1.2033 -3.3272  2.8296
19170TIP3    H278926   1.336   1.151  11.933 -1.6381 -3.0478  2.7301
19171TIP3   OH278927   6.349   2.635   4.549  0.2551 -0.2071 -0.6353
19171TIP3    H178928   6.411   2.628   4.622  1.8881  0.2395 -1.9042
19171TIP3    H278929   6.320   2.726   4.550 -1.9910 -0.8482  1.1317
19172TIP3   OH278930   0.993   1.178   1.966  0.1374  0.6415  0.3305
19172TIP3    H178931   0.997   1.207   2.057 -0.1022 -0.3567  0.6730
19172TIP3    H278932   0.921   1.228   1.928  0.1919  1.0125  0.7055
19173TIP3   OH278933   0.738   2.700  14.067 -0.0027  0.3178  0.3526
19173TIP3    H178934   0.673   2.647  14.021 -0.8606  0.4415  1.3834
19173TIP3    H278935   0.733   2.670  14.158  1.3868  0.3352  0.4613
19174TIP3   OH278936   3.794   5.467  14.321 -0.4352 -0.1474 -0.1045
19174TIP3    H178937   3.746   5.540  14.361 -1.3003 -0.3742 -0.6887
19174TIP3    H278938   3.825   5.502  14.238 -0.2898 -0.2444 -0.0911
19175TIP3   OH278939   5.411   6.502  15.464 -0.0561 -0.4755 -0.3439
19175TIP3    H178940   5.436   6.574  15.406 -0.9965 -0.3306 -0.5819
19175TIP3    H278941   5.415   6.539  15.552 -1.9237  0.3206 -0.5509
19176TIP3   OH278942   3.129   2.938  11.908  0.2496  0.3454  0.5187
19176TIP3    H178943   3.220   2.916  11.927 -0.0047 -0.6554  0.6022
19176TIP3    H278944   3.096   2.865  11.856 -0.1839  1.2472 -0.5165
19177TIP3   OH278945   4.685   5.811  15.280 -0.3653 -0.1221 -0.2527
19177TIP3    H178946   4.780   5.808  15.266 -0.3609  1.9043 -1.1371
19177TIP3    H278947   4.649   5.753  15.214  0.2337 -0.0602 -0.6421
19178TIP3   OH278948   4.671   1.893   5.261 -0.2885  0.4916  0.0467
19178TIP3    H178949   4.595   1.873   5.316 -1.0571  2.5948 -0.1664
19178TIP3    H278950   4.691   1.984   5.279  0.9133  0.5717 -1.4485
19179TIP3   OH278951   2.986   0.151   3.158 -0.1417  0.3938 -0.4418
19179TIP3    H178952   3.040   0.194   3.092 -0.2825  0.5651 -0.4456
19179TIP3    H278953   3.008   0.196   3.240  0.2132  0.0204 -0.3265
19180TIP3   OH278954   6.521   1.051   0.679  0.0182  0.3886  0.0009
19180TIP3    H178955   6.611   1.029   0.704  0.6697  1.8983 -0.9076
19180TIP3    H278956   6.519   1.146   0.676 -2.2165  0.5061  2.0655
19181TIP3   OH278957   6.805   2.620  12.748 -0.2340 -0.3383 -0.1376
19181TIP3    H178958   6.848   2.567  12.815  2.5365  0.2394 -1.2946
19181TIP3    H278959   6.757   2.557  12.694  1.1963 -1.4109 -0.2190
19182TIP3   OH278960   3.860   4.913  11.115 -0.3501  0.0552 -0.6106
19182TIP3    H178961   3.779   4.927  11.065 -0.6068 -2.6732 -1.0807
19182TIP3    H278962   3.831   4.870  11.196  0.6982 -2.4715 -1.4962
19183TIP3   OH278963   4.599   5.685  11.228  0.1050  0.8411 -0.3713
19183TIP3    H178964   4.524   5.637  11.192 -0.4290  0.2446  1.3955
19183TIP3    H278965   4.676   5.638  11.196 -0.3329  0.3933 -0.7829
19184TIP3   OH278966   1.602   1.699  17.129 -0.2219  0.3153 -0.2861
19184TIP3    H178967   1.573   1.636  17.063 -1.3865 -1.4035  1.7500
19184TIP3    H278968   1.663   1.650  17.184  0.7581  1.7167 -0.0530
19185TIP3   OH278969   3.377   5.026  16.104  0.2417  0.4146 -0.9901
19185TIP3    H178970   3.464   4.987  16.106 -0.6793 -1.7583 -0.0263
19185TIP3    H278971   3.338   5.000  16.188 -1.2503  1.5517 -1.2984
19186TIP3   OH278972   1.726   5.312   0.820 -0.3589  0.0755  0.4333
19186TIP3    H178973   1.728   5.220   0.845 -2.4096 -0.1336 -0.0184
19186TIP3    H278974   1.656   5.350   0.872  0.4664  1.4133  0.6256
19187TIP3   OH278975   4.808   5.457   3.927 -0.3937 -0.2064 -0.0459
19187TIP3    H178976   4.826   5.363   3.938 -1.7334 -0.2909  1.8627
19187TIP3    H278977   4.713   5.462   3.913 -0.4275  0.8971  0.4661
19188TIP3   OH278978   2.968   0.958  16.660  0.7019 -0.3147 -0.6606
19188TIP3    H178979   3.045   1.009  16.686 -0.0741 -0.0068  1.2194
19188TIP3    H278980   2.945   0.991  16.573  3.5961 -1.5531 -2.0385
19189TIP3   OH278981   1.487   3.542  15.896  1.0008  0.8812  0.2781
19189TIP3    H178982   1.443   3.625  15.915 -0.0661  0.3432  0.2223
19189TIP3    H278983   1.457   3.518  15.808  0.1803 -0.2598  0.8547
19190TIP3   OH278984   6.526   5.789   0.836 -0.3132 -0.1742  0.0597
19190TIP3    H178985   6.536   5.884   0.830 -0.0435 -0.2485 -0.6406
19190TIP3    H278986   6.518   5.772   0.930  2.3264  0.2758  0.4398
19191TIP3   OH278987   1.657   0.401  16.026  0.3410  0.5107  0.3399
19191TIP3    H178988   1.740   0.441  16.003  0.1529  1.3358  1.0467
19191TIP3    H278989   1.632   0.351  15.948  2.1421 -0.8691  0.5985
19192TIP3   OH278990   5.591   1.858   4.787 -0.4530 -0.1275 -0.0197
19192TIP3    H178991   5.643   1.807   4.725 -0.8588 -1.4896  0.7171
19192TIP3    H278992   5.609   1.818   4.872 -0.1231  1.5313  0.7334
19193TIP3   OH278993   4.277   1.712   2.967  0.1180  0.6424 -0.1836
19193TIP3    H178994   4.293   1.786   2.908  0.4947  0.8623  0.1864
19193TIP3    H278995   4.298   1.746   3.054 -0.1215  0.2261  0.0400
19194TIP3   OH278996   2.378   2.105   1.479  0.3252 -0.5966  0.0652
19194TIP3    H178997   2.308   2.163   1.511  1.0916  0.7650 -0.6535
19194TIP3    H278998   2.444   2.107   1.548  1.0060  0.6092 -0.5779
19195TIP3   OH278999   2.753   5.217   0.043  0.0533 -0.1494 -0.2677
19195TIP3    H179000   2.676   5.267   0.016 -0.5569 -0.8521  0.1176
19195TIP3    H279001   2.812   5.282   0.081 -0.6691  0.2966  0.1257
19196TIP3   OH279002   0.313   0.359   2.303  0.0302  0.4273 -0.4646
19196TIP3    H179003   0.241   0.405   2.346  0.1278  1.5760 -1.4880
19196TIP3    H279004   0.284   0.346   2.213  1.1514  1.0673 -0.9491
19197TIP3   OH279005   0.436   3.054   2.925  0.4785 -0.5168  0.4670
19197TIP3    H179006   0.462   3.114   2.855 -0.4332 -2.2173 -1.4057
19197TIP3    H279007   0.448   2.967   2.889 -0.5392 -1.4634  2.2475
19198TIP3   OH279008   4.568   1.922   1.418  0.0355 -0.7988 -0.1631
19198TIP3    H179009   4.520   1.876   1.487  1.4602 -1.3923  0.4807
19198TIP3    H279010   4.653   1.877   1.414  0.5113  0.1599 -1.2970
19199TIP3   OH279011   3.746   0.878  11.479  0.3836  0.7322  0.4833
19199TIP3    H179012   3.686   0.953  11.489  0.9618  1.2377  0.2511
19199TIP3    H279013   3.760   0.871  11.385 -0.9596 -0.7264  0.3671
19200TIP3   OH279014   1.770   6.069  11.339  0.3358  0.1934 -0.1350
19200TIP3    H179015   1.779   5.977  11.364  1.7079  0.3046 -0.1779
19200TIP3    H279016   1.773   6.069  11.244 -1.2870  0.1478 -0.2233
19201TIP3   OH279017   5.715   1.020   5.370 -0.1854  0.3677  0.0506
19201TIP3    H179018   5.671   1.102   5.396  1.3676  1.3622 -0.3256
19201TIP3    H279019   5.738   0.978   5.453  2.2266  2.1352  0.3686
19202TIP3   OH279020   5.616   3.404  13.203 -0.1184  0.6082 -0.0442
19202TIP3    H179021   5.556   3.388  13.130  0.9319 -1.2164 -0.5669
19202TIP3    H279022   5.568   3.375  13.281  0.8063 -3.1475 -0.6990
19203TIP3   OH279023   1.116   4.825   3.381  0.1740 -0.4366  0.3896
19203TIP3    H179024   1.120   4.889   3.311  1.6281 -0.2040  0.6676
19203TIP3    H279025   1.033   4.843   3.425  0.0676  0.5422 -0.1934
19204TIP3   OH279026   0.677   4.750   3.459 -0.5008  0.1394  0.4869
19204TIP3    H179027   0.646   4.837   3.436 -0.2563  0.1256  0.1088
19204TIP3    H279028   0.664   4.698   3.380  0.2199  0.0571  0.4231
19205TIP3   OH279029   0.578   4.980   4.569  0.3274 -0.0942  0.7553
19205TIP3    H179030   0.598   5.073   4.559 -0.8695  0.0166 -1.1240
19205TIP3    H279031   0.632   4.936   4.503 -1.8203 -0.2736 -1.0065
19206TIP3   OH279032   4.444   5.409  12.164  0.3706 -0.3184 -0.2439
19206TIP3    H179033   4.387   5.352  12.215 -0.4246 -1.1205 -1.9429
19206TIP3    H279034   4.424   5.497  12.196 -1.2021 -0.6562 -0.1966
19207TIP3   OH279035   2.070   0.018  13.392  0.1757 -0.5574 -0.1921
19207TIP3    H179036   2.116   0.067  13.324  0.2418 -1.1497 -0.5860
19207TIP3    H279037   2.023   0.084  13.442  0.6619 -0.0463 -0.3994
19208TIP3   OH279038   1.482   5.980   3.166 -0.2958 -0.4306 -0.3452
19208TIP3    H179039   1.463   5.894   3.204  1.0610 -0.6089 -0.0127
19208TIP3    H279040   1.471   5.967   3.072  2.1216 -1.6526 -0.5439
19209TIP3   OH279041   6.089   6.625   3.334  0.4255  0.0143 -0.3297
19209TIP3    H179042   6.098   6.566   3.259 -0.4684  1.1258 -1.3443
19209TIP3    H279043   6.153   6.694   3.317  0.9413 -0.2562  0.4707
19210TIP3   OH279044   5.819   3.019   3.205 -0.3917 -0.1504 -0.2494
19210TIP3    H179045   5.797   3.104   3.166  1.5430  0.1394 -0.7948
19210TIP3    H279046   5.795   2.955   3.138  1.2036  0.2218 -1.2180
19211TIP3   OH279047   4.300   4.804   2.493 -0.5901 -0.3598 -0.5556
19211TIP3    H179048   4.375   4.851   2.530 -1.2891 -0.1155  0.6084
19211TIP3    H279049   4.323   4.790   2.401  1.0960 -0.7472 -0.0967
19212TIP3   OH279050   3.719   2.611   4.991 -0.1464 -0.4688 -0.2528
19212TIP3    H179051   3.793   2.552   4.975  0.0861 -0.4221  0.5794
19212TIP3    H279052   3.662   2.600   4.915  0.1178 -1.4278 -0.3196
19213TIP3   OH279053   5.027   1.651  14.409 -0.2000  0.1713  0.6028
19213TIP3    H179054   5.016   1.682  14.499 -1.4816 -1.2643  0.9764
19213TIP3    H279055   4.990   1.563  14.409  0.4357 -0.1431 -1.1748
19214TIP3   OH279056   1.415   4.810  14.032 -0.2791 -0.0775  0.2534
19214TIP3    H179057   1.364   4.731  14.052 -1.0424 -0.0412 -1.3640
19214TIP3    H279058   1.403   4.866  14.108 -2.6559 -0.0956 -0.0187
19215TIP3   OH279059   6.198   5.065  13.300 -0.1839 -0.1430  0.0490
19215TIP3    H179060   6.269   5.010  13.334 -1.1946 -0.5505  1.6357
19215TIP3    H279061   6.180   5.030  13.213  0.8164 -0.7502  0.0758
19216TIP3   OH279062   2.723   1.637  12.649  0.1494  0.2504 -0.2409
19216TIP3    H179063   2.765   1.579  12.586 -1.0723 -0.7358 -0.1652
19216TIP3    H279064   2.668   1.695  12.597  2.1963  2.1591 -0.4307
19217TIP3   OH279065   4.505   0.392  15.059  0.1512 -0.0752  0.1359
19217TIP3    H179066   4.549   0.468  15.021 -0.6800  0.2260 -0.2485
19217TIP3    H279067   4.442   0.364  14.993  0.0654 -0.7702  0.4932
19218TIP3   OH279068   3.882   5.821  13.936 -0.8365  0.0333 -0.3909
19218TIP3    H179069   3.971   5.788  13.928 -0.5259  0.2762  1.6388
19218TIP3    H279070   3.882   5.873  14.015 -3.3829 -2.0393  1.1641
19219TIP3   OH279071   6.519   4.319   2.924 -0.2172  0.0671 -0.0140
19219TIP3    H179072   6.589   4.326   2.990 -1.3954 -1.9007  1.5486
19219TIP3    H279073   6.493   4.410   2.909  1.7202  0.7565  0.3902
19220TIP3   OH279074   4.726   2.660   3.634 -0.1517  0.4701 -0.5488
19220TIP3    H179075   4.747   2.753   3.629 -0.0260  0.5412  0.8681
19220TIP3    H279076   4.633   2.655   3.613 -0.7560  1.2458  1.6206
19221TIP3   OH279077   6.725   5.164   1.265 -0.0979  0.2422 -0.2229
19221TIP3    H179078   6.721   5.210   1.181  0.5291 -0.2769 -0.5354
19221TIP3    H279079   6.808   5.191   1.304  0.2106 -0.5239 -0.3444
19222TIP3   OH279080   0.111   3.917  13.331  0.1502 -0.3033 -0.1063
19222TIP3    H179081   0.103   3.963  13.415 -2.3377  1.8545 -1.3776
19222TIP3    H279082   0.084   3.827  13.350 -0.9723  0.2930  1.3112
19223TIP3   OH279083   6.063   2.271   6.267 -0.4892 -0.1587  0.5688
19223TIP3    H179084   6.077   2.177   6.254  0.9113 -0.3123  2.6988
19223TIP3    H279085   5.988   2.276   6.326 -1.3522  0.1498 -0.5189
19224TIP3   OH279086   0.422   5.055  13.228  0.9439 -0.4534  0.5362
19224TIP3    H179087   0.362   5.070  13.301 -0.0304  0.1835 -0.3615
19224TIP3    H279088   0.462   4.970  13.246  1.7311  0.2716  2.4835
19225TIP3   OH279089   1.857   1.179   6.012 -0.0767  0.0840  0.1926
19225TIP3    H179090   1.780   1.132   5.980 -1.4838  0.7613  2.3458
19225TIP3    H279091   1.845   1.269   5.982  1.0951 -0.2432 -1.3899
19226TIP3   OH279092   1.550   2.497  10.932  0.4164 -0.9644  0.2930
19226TIP3    H179093   1.542   2.505  10.837 -1.1290 -1.6075  0.3311
19226TIP3    H279094   1.533   2.585  10.965  0.7868 -0.7738 -0.0196
19227TIP3   OH279095   4.457   5.801  13.345  0.0784  0.2143 -0.3598
19227TIP3    H179096   4.405   5.796  13.264  1.1991 -0.8470 -1.0469
19227TIP3    H279097   4.524   5.866  13.325  1.3557 -1.2281 -0.9101
19228TIP3   OH279098   6.781   1.361   3.183 -0.3316  0.2289  0.2081
19228TIP3    H179099   6.851   1.365   3.248  2.1126  1.1447 -2.2513
19228TIP3    H279100   6.705   1.400   3.227  1.3352  1.3249  2.3182
19229TIP3   OH279101   4.201   2.265   1.268  0.1037  0.7284 -0.8402
19229TIP3    H179102   4.257   2.342   1.263  1.8878 -0.4000  0.5928
19229TIP3    H279103   4.247   2.205   1.326 -1.3222 -1.3601 -1.7263
19230TIP3   OH279104   3.826   0.091  13.075  0.3514 -0.1456  0.5924
19230TIP3    H179105   3.746   0.080  13.126  0.0572 -3.2260 -0.3600
19230TIP3    H279106   3.886   0.137  13.133 -1.0414 -0.6292  2.5005
19231TIP3   OH279107   3.483   3.522   5.416 -0.0946 -0.1627  0.3737
19231TIP3    H179108   3.463   3.455   5.481 -0.0742 -0.6346 -0.0980
19231TIP3    H279109   3.578   3.514   5.402 -0.0476  0.1402  0.5031
19232TIP3   OH279110   2.815   3.844  11.657 -0.1613  0.0586  0.3680
19232TIP3    H179111   2.876   3.915  11.679 -0.1541  0.2867 -0.3736
19232TIP3    H279112   2.822   3.783  11.731 -1.8930  1.9387  2.2260
19233TIP3   OH279113   2.622   2.242  12.713 -0.0157  0.1530  0.3566
19233TIP3    H179114   2.569   2.187  12.655  1.0743 -0.9199  0.3322
19233TIP3    H279115   2.710   2.204  12.709  1.2577  2.9352 -1.0318
19234TIP3   OH279116   0.570   5.928   5.867  0.3292  0.4883 -0.1052
19234TIP3    H179117   0.634   5.908   5.935  0.2865  1.3953  0.2171
19234TIP3    H279118   0.495   5.871   5.887  0.6052  0.2185  0.1708
19235TIP3   OH279119   6.468   4.852   1.293 -0.8682  0.6463 -0.2866
19235TIP3    H179120   6.389   4.880   1.245 -0.9144  0.2452 -0.4554
19235TIP3    H279121   6.436   4.828   1.380 -1.1041 -0.4804 -0.6699
19236TIP3   OH279122   4.026   5.307   4.917 -0.1098  0.1741  0.1472
19236TIP3    H179123   4.110   5.340   4.885  0.5540 -1.3272  0.2835
19236TIP3    H279124   3.966   5.318   4.843  0.6832 -0.5013 -0.6119
19237TIP3   OH279125   0.061   0.796  10.935 -0.2391 -0.2259 -0.4426
19237TIP3    H179126  -0.006   0.832  10.994 -0.4145  0.1455 -0.8609
19237TIP3    H279127   0.029   0.816  10.847 -0.4213 -1.5814 -0.7023
19238TIP3   OH279128   2.951   4.156  14.804  0.7435 -0.5632 -0.0214
19238TIP3    H179129   2.889   4.093  14.840 -0.3160  0.7963  0.6059
19238TIP3    H279130   2.992   4.110  14.731  0.8271 -2.3574  1.0966
19239TIP3   OH279131   1.807   0.858  13.597 -0.1982 -0.5162  0.2561
19239TIP3    H179132   1.744   0.814  13.539  0.8177 -0.7760 -0.6898
19239TIP3    H279133   1.891   0.817  13.575  0.5491  0.9126  0.3712
19240TIP3   OH279134   6.005   2.369   4.768 -0.1738  0.3716  0.6418
19240TIP3    H179135   6.033   2.389   4.679  0.6866 -0.4585  0.7127
19240TIP3    H279136   6.068   2.414   4.824  1.0996 -1.4903  0.7995
19241TIP3   OH279137   1.213   5.640  14.438 -0.0508  0.3422 -0.1037
19241TIP3    H179138   1.208   5.683  14.353  0.0154  0.9210  0.1831
19241TIP3    H279139   1.303   5.610  14.445 -0.4504 -1.1769 -0.9399
19242TIP3   OH279140   5.007   1.833  12.123  0.3952 -0.2727  0.7590
19242TIP3    H179141   5.049   1.891  12.187  0.0349 -0.1690  0.9070
19242TIP3    H279142   4.974   1.892  12.056 -0.9092 -0.1845  1.4385
19243TIP3   OH279143   3.979   0.414  13.040  0.2374  0.0442 -0.4367
19243TIP3    H179144   4.029   0.346  13.086 -0.7049 -0.4577 -0.0992
19243TIP3    H279145   3.902   0.367  13.007 -0.2375  0.8808 -0.5324
19244TIP3   OH279146   1.454   1.035  11.655  0.2078 -1.0383  0.4783
19244TIP3    H179147   1.470   0.982  11.577  2.4152  0.9757 -0.5698
19244TIP3    H279148   1.395   1.104  11.626  2.2712  0.6440  0.0473
19245TIP3   OH279149   0.070   1.899   5.717  0.6821  0.1048  0.1302
19245TIP3    H179150   0.151   1.855   5.741  0.3978 -0.4937  0.0229
19245TIP3    H279151   0.085   1.931   5.629  0.8484  0.1010  0.1582
19246TIP3   OH279152   3.839   6.090   1.291  0.2048  0.7939 -0.0356
19246TIP3    H179153   3.865   6.174   1.253 -0.5580  0.6157 -0.9949
19246TIP3    H279154   3.761   6.111   1.344 -0.0070  0.6866 -0.3048
19247TIP3   OH279155   2.399   2.467  17.161 -0.3077  0.0681 -0.0857
19247TIP3    H179156   2.336   2.412  17.114 -0.9840  0.8884 -0.1781
19247TIP3    H279157   2.402   2.549  17.110  0.2444  0.3306  0.3558
19248TIP3   OH279158   0.021   5.454  14.843 -0.3217 -0.0833  0.2110
19248TIP3    H179159  -0.055   5.511  14.847  0.3945  1.0225 -1.2943
19248TIP3    H279160   0.071   5.484  14.767  0.0710 -2.7321 -0.6981
19249TIP3   OH279161   1.124   0.490   5.641 -0.3916  0.0115 -0.0418
19249TIP3    H179162   1.127   0.577   5.679  0.2325 -0.0346  0.0222
19249TIP3    H279163   1.215   0.462   5.636 -0.6893 -1.5671  2.1042
19250TIP3   OH279164   4.813   4.640  14.720 -0.2492 -0.7382  0.4076
19250TIP3    H179165   4.908   4.638  14.704 -0.3865 -2.9224 -0.4150
19250TIP3    H279166   4.774   4.657  14.635 -0.6392  2.2381  1.0473
19251TIP3   OH279167   6.084   1.276  14.489  0.3855 -0.2566  0.7905
19251TIP3    H179168   6.100   1.299  14.580 -3.1780 -1.3717  1.8603
19251TIP3    H279169   6.022   1.342  14.458  0.9804 -0.3209 -0.6187
19252TIP3   OH279170   3.390   0.630  16.218 -0.5064 -0.3307 -0.0021
19252TIP3    H179171   3.463   0.569  16.205  0.7444  0.9195  0.8017
19252TIP3    H279172   3.376   0.670  16.132  0.3791  0.0595  0.0239
19253TIP3   OH279173   4.194   2.308   2.837 -0.2466 -0.5392  0.3789
19253TIP3    H179174   4.115   2.279   2.882 -1.0119 -0.3093 -0.7847
19253TIP3    H279175   4.232   2.228   2.801  0.0386 -0.6453  0.9100
19254TIP3   OH279176   1.243   4.653  16.605 -0.2747  0.2484  0.0517
19254TIP3    H179177   1.321   4.708  16.614  0.4835 -0.4739 -1.6891
19254TIP3    H279178   1.223   4.625  16.695  1.3378  0.6360  0.5616
19255TIP3   OH279179   6.068   1.104   5.449 -0.9225  0.4779 -0.6938
19255TIP3    H179180   6.114   1.147   5.521 -2.7439  1.5140 -0.0871
19255TIP3    H279181   6.091   1.156   5.372 -0.0327  0.1632 -0.6564
19256TIP3   OH279182   1.075   5.467   1.547 -0.8670  0.0330 -0.3432
19256TIP3    H179183   0.983   5.446   1.566 -0.5794  0.8269  2.2231
19256TIP3    H279184   1.112   5.492   1.631  2.0743 -1.4336 -1.0626
19257TIP3   OH279185   1.994   6.573  12.598  0.6367  0.2483  0.2180
19257TIP3    H179186   2.016   6.493  12.647  0.8432  1.4642  2.2156
19257TIP3    H279187   2.076   6.597  12.555  1.2294  0.6119  1.4945
19258TIP3   OH279188   3.769   0.751   2.012 -0.0993 -0.1714  0.6045
19258TIP3    H179189   3.749   0.658   2.003  0.1763 -0.1344 -0.5113
19258TIP3    H279190   3.834   0.768   1.944  1.6050  0.3251  2.2570
19259TIP3   OH279191   1.132   1.794  14.006  0.1893  0.1143 -0.8155
19259TIP3    H179192   1.154   1.792  13.912  1.8995 -0.6601 -0.4291
19259TIP3    H279193   1.192   1.858  14.044  0.7169 -0.8451  0.0149
19260TIP3   OH279194   4.684   2.022   5.946  0.0123 -0.4019 -0.0621
19260TIP3    H179195   4.680   2.090   5.879  1.1680 -3.0406 -3.0507
19260TIP3    H279196   4.773   2.027   5.981 -0.8837  1.6183  2.1669
19261TIP3   OH279197   3.208   2.848   2.631 -0.5136  0.3528 -0.1082
19261TIP3    H179198   3.232   2.940   2.618  4.6552 -0.7365 -0.2320
19261TIP3    H279199   3.203   2.837   2.726 -1.3933  0.7284 -0.0965
19262TIP3   OH279200   3.888   3.051   3.250  0.4071 -0.2926  0.3967
19262TIP3    H179201   3.957   3.078   3.310  1.0760 -1.5983  0.2525
19262TIP3    H279202   3.876   2.958   3.267 -0.7999 -0.2568 -0.1092
19263TIP3   OH279203   3.744   5.748  11.572  0.1563  0.1158 -0.3441
19263TIP3    H179204   3.750   5.841  11.595 -0.2724 -0.3231  1.8685
19263TIP3    H279205   3.827   5.711  11.601 -0.6084 -0.5690  1.0782
19264TIP3   OH279206   0.592   4.811  14.733 -0.5819 -0.0187  0.3057
19264TIP3    H179207   0.609   4.902  14.710 -0.0332 -0.3353 -0.5921
19264TIP3    H279208   0.613   4.805  14.826  0.8251  0.4487  0.0419
19265TIP3   OH279209   4.128   4.450   6.313 -0.0014 -0.1264 -0.1877
19265TIP3    H179210   4.076   4.371   6.297  0.9138 -1.2669  2.1461
19265TIP3    H279211   4.167   4.470   6.227 -1.1407 -1.5231 -1.0860
19266TIP3   OH279212   4.938   0.335   3.354 -0.1926 -0.4404 -0.5511
19266TIP3    H179213   4.978   0.250   3.335  1.0394 -0.1501  0.6224
19266TIP3    H279214   4.936   0.340   3.449 -0.8030  0.6025 -0.6075
19267TIP3   OH279215   3.887   6.463  14.529  0.0041  0.2374  0.4306
19267TIP3    H179216   3.900   6.512  14.448  0.9051 -1.0496 -0.2449
19267TIP3    H279217   3.923   6.519  14.597  0.5863  0.7132 -0.2559
19268TIP3   OH279218   5.056   5.121  11.565 -0.2427 -0.7793  0.4569
19268TIP3    H179219   4.992   5.079  11.508 -1.6325  0.0792  1.3045
19268TIP3    H279220   5.131   5.138  11.509 -1.0580 -1.1095 -0.7830
19269TIP3   OH279221   0.480   6.446   2.447  0.6031 -0.2389 -0.1544
19269TIP3    H179222   0.452   6.482   2.532 -0.7865 -0.9417 -0.2986
19269TIP3    H279223   0.480   6.521   2.388  0.9747  0.1369  0.3097
19270TIP3   OH279224   5.069   1.643  15.792 -0.3228  0.6369  0.3492
19270TIP3    H179225   5.092   1.706  15.724  0.9328 -0.9310 -0.7555
19270TIP3    H279226   4.983   1.610  15.767  0.8833 -1.2814 -1.6404
19271TIP3   OH279227   4.965   4.714   5.205  0.6162  0.4367 -0.3465
19271TIP3    H179228   5.000   4.786   5.257 -2.4434  1.2984  0.7879
19271TIP3    H279229   4.873   4.737   5.192  0.1070 -2.1145 -2.0967
19272TIP3   OH279230   1.846   3.790  16.594 -0.1847  0.6262  0.0352
19272TIP3    H179231   1.885   3.748  16.517  0.7668 -0.1552  0.9128
19272TIP3    H279232   1.918   3.838  16.634 -0.6359  0.8859  0.5492
19273TIP3   OH279233   2.171   2.787   1.255 -0.0840  0.0234 -0.1052
19273TIP3    H179234   2.219   2.840   1.192  0.9076 -1.6080 -0.7799
19273TIP3    H279235   2.189   2.829   1.339 -0.8100  1.7880 -0.7679
19274TIP3   OH279236   0.912   5.661  16.252  0.1764  0.1890 -0.3926
19274TIP3    H179237   0.976   5.672  16.182  0.4441  1.6808  0.0543
19274TIP3    H279238   0.949   5.592  16.308  0.4789 -0.2541 -1.1269
19275TIP3   OH279239   6.007   6.206  10.642 -0.9431 -0.1335  0.7657
19275TIP3    H179240   6.049   6.224  10.558  0.2549 -2.7321  0.6895
19275TIP3    H279241   5.974   6.291  10.672  1.3650  1.4306 -0.8188
19276TIP3   OH279242   0.967   2.480   5.886  0.0746  0.0885  0.1879
19276TIP3    H179243   0.933   2.560   5.926  2.6969 -0.2504  3.5137
19276TIP3    H279244   0.915   2.410   5.926  1.4527 -0.1249  1.7235
19277TIP3   OH279245   3.451   0.265  11.288 -0.6015 -0.3873  0.6112
19277TIP3    H179246   3.493   0.179  11.282  0.3050 -0.1970  2.8963
19277TIP3    H279247   3.375   0.259  11.230  0.5113 -2.0425 -0.7785
19278TIP3   OH279248   2.712   0.681  15.400 -0.1699  0.1322  0.3275
19278TIP3    H179249   2.780   0.748  15.393  0.8106 -0.7227  1.2922
19278TIP3    H279250   2.630   0.730  15.395  0.5096  1.2699 -0.1470
19279TIP3   OH279251   0.697   0.966   1.133 -0.1120  0.2406 -0.3566
19279TIP3    H179252   0.751   0.907   1.081 -0.4789 -1.5557  1.2075
19279TIP3    H279253   0.662   0.911   1.203 -1.5244  2.0445  0.4197
19280TIP3   OH279254   4.185   2.228   3.749  0.2448 -0.2442  0.4046
19280TIP3    H179255   4.151   2.233   3.839 -1.8864  1.7631 -0.4133
19280TIP3    H279256   4.110   2.199   3.697  1.2634 -0.7150 -0.8443
19281TIP3   OH279257   2.205   0.711   4.156 -0.4278 -0.1873  0.2912
19281TIP3    H179258   2.186   0.804   4.142 -2.4342 -0.3651  1.4908
19281TIP3    H279259   2.231   0.705   4.248  1.7094 -0.5814 -0.2763
19282TIP3   OH279260   4.514   3.086  15.995 -0.1284  0.3474  0.0268
19282TIP3    H179261   4.496   3.171  16.035 -0.2637  0.8916 -1.1596
19282TIP3    H279262   4.607   3.072  16.011  0.2074  1.3483 -0.8931
19283TIP3   OH279263   4.080   2.094   0.324  0.0050 -0.5294 -0.0136
19283TIP3    H179264   4.032   2.035   0.382  1.3023 -1.4337  0.1729
19283TIP3    H279265   4.152   2.041   0.290  1.0110  0.8561 -0.0997
19284TIP3   OH279266   4.224   4.388   4.912  0.2117 -0.8747 -0.2318
19284TIP3    H179267   4.133   4.375   4.887 -0.3861 -0.2891  1.5045
19284TIP3    H279268   4.254   4.301   4.938 -0.5105 -0.7471  1.1372
19285TIP3   OH279269   4.878   3.977   6.053  0.3339  0.0688 -0.3101
19285TIP3    H179270   4.896   4.042   5.985  0.2397  0.6442  0.2091
19285TIP3    H279271   4.920   4.012   6.131  2.5194 -1.7129 -0.5688
19286TIP3   OH279272   4.787   1.845  12.403 -0.5109  0.8208 -0.3524
19286TIP3    H179273   4.817   1.791  12.476 -1.8946  2.9900  1.9904
19286TIP3    H279274   4.725   1.790  12.356 -0.0042 -0.4526  0.4293
19287TIP3   OH279275   6.394   5.862  14.165 -0.1663 -0.5667 -0.0972
19287TIP3    H179276   6.365   5.816  14.245  1.1145 -3.8608 -1.3632
19287TIP3    H279277   6.489   5.868  14.174 -0.2345  1.3615 -0.3022
19288TIP3   OH279278   0.712   1.370   4.503 -0.8159 -0.1936  0.1725
19288TIP3    H179279   0.787   1.364   4.444 -1.4944  0.3826 -0.7864
19288TIP3    H279280   0.639   1.333   4.453 -0.9041 -2.1687  1.6427
19289TIP3   OH279281   5.387   4.972   2.586  0.2747  0.6933  0.3411
19289TIP3    H179282   5.476   4.992   2.613  0.4926  2.0037 -1.1707
19289TIP3    H279283   5.332   5.027   2.642  0.5862  1.6728 -0.2781
19290TIP3   OH279284   1.644   6.394   1.807 -0.0398 -0.0411  0.6781
19290TIP3    H179285   1.567   6.442   1.839  1.0974  1.1170  1.7624
19290TIP3    H279286   1.635   6.307   1.845 -0.9009  0.0152  0.6330
19291TIP3   OH279287   3.513   5.538  13.799 -0.5138 -0.3773 -0.3389
19291TIP3    H179288   3.490   5.559  13.709  0.7221 -0.6132 -0.7257
19291TIP3    H279289   3.530   5.623  13.840  0.8419 -0.3722 -0.8792
19292TIP3   OH279290   5.862   6.403   3.959  0.1947  0.5620 -0.1035
19292TIP3    H179291   5.775   6.365   3.947 -0.1138  1.0876  0.4309
19292TIP3    H279292   5.903   6.397   3.872  0.5904 -1.9933  0.1698
19293TIP3   OH279293   2.320   6.585   5.419  0.2680 -0.2958 -0.1703
19293TIP3    H179294   2.279   6.634   5.490  0.0048 -3.4447  2.0557
19293TIP3    H279295   2.247   6.558   5.363  0.1879  0.1414 -0.2803
19294TIP3   OH279296   1.101   0.599   1.136 -0.1464 -0.3414  0.3230
19294TIP3    H179297   1.073   0.581   1.046 -0.2694  1.7190 -0.0928
19294TIP3    H279298   1.034   0.656   1.171  0.4062 -0.3374  1.4096
19295TIP3   OH279299   5.605   4.120   1.752 -0.4872 -0.2856  0.3669
19295TIP3    H179300   5.532   4.163   1.795 -0.6695  0.5387 -0.7252
19295TIP3    H279301   5.656   4.081   1.823 -2.3212 -1.4395  1.1206
19296TIP3   OH279302   2.369   5.358   5.927 -0.1847 -0.4263  1.5307
19296TIP3    H179303   2.306   5.415   5.884  0.2618 -0.9887  0.0605
19296TIP3    H279304   2.359   5.376   6.020 -1.4223  0.6026  1.2184
19297TIP3   OH279305   1.261   2.245  12.381  0.1222 -0.8740  0.2320
19297TIP3    H179306   1.197   2.181  12.412 -0.8251  0.6060  1.5113
19297TIP3    H279307   1.223   2.279  12.300  0.2011 -1.3104  0.0105
19298TIP3   OH279308   6.636   0.085   5.074  0.2938 -0.0261  0.5258
19298TIP3    H179309   6.552   0.039   5.068  0.7091 -0.8102  0.7332
19298TIP3    H279310   6.655   0.088   5.168  1.8124 -2.2608  0.3531
19299TIP3   OH279311   2.024   6.010   3.885  0.1524 -0.5152  0.1162
19299TIP3    H179312   1.936   5.987   3.857  0.0215 -0.6620  0.6351
19299TIP3    H279313   2.075   5.930   3.874 -0.0399 -0.7455  0.8576
19300TIP3   OH279314   1.175   2.740   6.108 -0.1015 -0.3972 -0.3726
19300TIP3    H179315   1.085   2.758   6.082 -1.4376 -1.8907  2.7050
19300TIP3    H279316   1.214   2.826   6.122 -1.5837  0.2773 -0.2237
19301TIP3   OH279317   5.093   5.897  13.141 -1.1471  0.4671  0.0313
19301TIP3    H179318   5.141   5.871  13.063 -1.0538  0.6784  0.0179
19301TIP3    H279319   5.075   5.814  13.187 -1.4576  0.3147 -0.3552
19302TIP3   OH279320   3.761   5.729   3.385 -0.6142 -0.0317 -0.2928
19302TIP3    H179321   3.805   5.777   3.315  0.9651 -0.4580  0.3436
19302TIP3    H279322   3.734   5.647   3.344  0.1689 -0.2178 -0.4642
19303TIP3   OH279323   0.416   4.667  14.368  0.3644 -0.2347 -0.0926
19303TIP3    H179324   0.501   4.634  14.336  1.0427  1.6489 -0.3691
19303TIP3    H279325   0.367   4.686  14.288 -0.0198 -0.5472  0.0657
19304TIP3   OH279326   0.847   5.358  14.711  0.1549  0.2727  0.0969
19304TIP3    H179327   0.798   5.437  14.687 -0.2890  0.1267  0.4868
19304TIP3    H279328   0.933   5.390  14.739 -0.0680  0.6379  0.3783
19305TIP3   OH279329   5.284   0.442  10.747  0.0868  0.3621 -0.3704
19305TIP3    H179330   5.359   0.387  10.768 -2.2985 -3.5798 -1.2421
19305TIP3    H279331   5.295   0.462  10.654  0.1305 -0.0624 -0.4570
19306TIP3   OH279332   0.721   0.517   0.279  0.1605 -0.3717 -0.0556
19306TIP3    H179333   0.810   0.523   0.244  0.4153  1.0036  0.7498
19306TIP3    H279334   0.723   0.569   0.360 -1.6030  0.4846 -0.5000
19307TIP3   OH279335   6.170   4.469  14.838 -0.6080 -0.2674  0.2304
19307TIP3    H179336   6.198   4.384  14.804  0.4693 -0.1115  0.6683
19307TIP3    H279337   6.250   4.507  14.875 -1.5821 -0.1773  2.3942
19308TIP3   OH279338   6.423   1.998  14.827  0.2526 -0.7760 -0.0184
19308TIP3    H179339   6.437   1.910  14.793 -0.1324 -1.0500  0.5146
19308TIP3    H279340   6.334   1.996  14.863 -0.1452  0.1168 -0.8907
19309TIP3   OH279341   6.584   3.614   2.071  0.1827  0.0903  0.0155
19309TIP3    H179342   6.491   3.627   2.051 -0.9478 -3.5488  1.9155
19309TIP3    H279343   6.596   3.658   2.155 -0.4249 -0.9930  0.7040
19310TIP3   OH279344   1.113   0.086  15.672  0.2466  0.0400  0.0969
19310TIP3    H179345   1.120   0.182  15.673 -0.7522  0.1638 -1.1112
19310TIP3    H279346   1.114   0.064  15.579  2.4357 -1.3283  0.3802
19311TIP3   OH279347   5.979   5.770   4.559  0.5753 -0.4038  0.2197
19311TIP3    H179348   6.019   5.684   4.575 -0.2418 -0.6855  0.8478
19311TIP3    H279349   6.007   5.823   4.634  1.0074 -0.1465 -0.1226
19312TIP3   OH279350   2.138   6.154  17.130  0.1739  0.0740  0.2354
19312TIP3    H179351   2.227   6.184  17.109  0.2979 -0.9674 -0.8115
19312TIP3    H279352   2.147   6.059  17.140 -0.3551  0.2164  2.7029
19313TIP3   OH279353   2.693   0.437   0.262  0.1368 -0.7381  0.2431
19313TIP3    H179354   2.745   0.515   0.241  0.2495 -0.8364  0.1551
19313TIP3    H279355   2.744   0.364   0.227  1.4480 -1.1237  2.7066
19314TIP3   OH279356   2.132   4.341  16.739 -0.5155  0.5330 -0.0697
19314TIP3    H179357   2.173   4.292  16.667  0.7527 -0.4257  1.2289
19314TIP3    H279358   2.042   4.354  16.711  0.2931  1.5414 -2.4848
19315TIP3   OH279359   2.176   6.643   6.222 -0.6202  0.0898 -0.0841
19315TIP3    H179360   2.102   6.625   6.280 -1.0550  1.2716 -0.2290
19315TIP3    H279361   2.223   6.560   6.217 -0.6494 -0.1011  1.8286
19316TIP3   OH279362   2.604   4.867   0.810 -0.2395 -0.0347  0.3542
19316TIP3    H179363   2.619   4.820   0.728 -0.5483  1.4357 -0.5766
19316TIP3    H279364   2.540   4.813   0.856 -0.5177 -0.5803 -0.6306
19317TIP3   OH279365   5.905   2.174   0.190  0.3810 -0.0492  0.5189
19317TIP3    H179366   5.868   2.093   0.224 -0.1739 -0.2214 -0.4480
19317TIP3    H279367   5.879   2.175   0.098  0.0218  1.4231  0.6127
19318TIP3   OH279368   6.159   1.413  15.934 -0.4421 -0.2422  0.3307
19318TIP3    H179369   6.101   1.477  15.893 -0.7259 -0.8697 -0.2783
19318TIP3    H279370   6.135   1.413  16.026 -0.0832  0.8965  0.4345
19319TIP3   OH279371   4.315   6.222   4.407  0.0199 -0.0975  0.6794
19319TIP3    H179372   4.250   6.260   4.465 -0.4028  1.7264 -0.8616
19319TIP3    H279373   4.397   6.265   4.432 -0.1194  0.5109  0.1292
19320TIP3   OH279374   2.526   6.786  17.126 -0.3046  0.3042 -0.2342
19320TIP3    H179375   2.500   6.702  17.088 -0.2180 -0.0598  0.5116
19320TIP3    H279376   2.606   6.809  17.079  0.8844 -1.0802  1.0375
19321TIP3   OH279377   1.245   3.772  14.329 -0.1924 -1.1112  0.5431
19321TIP3    H179378   1.309   3.769  14.400 -0.8879  1.4907  1.3927
19321TIP3    H279379   1.162   3.749  14.371 -0.3256 -1.3002  0.1770
19322TIP3   OH279380   1.930   4.734   5.039  0.1082  0.2638 -0.1041
19322TIP3    H179381   1.846   4.713   5.079 -0.5029  0.9703 -0.9706
19322TIP3    H279382   1.991   4.740   5.112 -0.7092  0.3126  0.5894
19323TIP3   OH279383   5.240   0.517   4.674  0.7162 -0.8028  0.5535
19323TIP3    H179384   5.144   0.509   4.676  0.3536  2.3809  2.4265
19323TIP3    H279385   5.257   0.606   4.703  4.2230 -0.5051 -1.8275
19324TIP3   OH279386   2.685   2.994   3.825 -0.4135 -0.3141  0.0399
19324TIP3    H179387   2.728   3.067   3.869 -0.5154  1.1487 -2.1713
19324TIP3    H279388   2.754   2.927   3.817  0.5002  0.6445 -0.3779
19325TIP3   OH279389   2.776   6.488  14.670  0.5052  0.2365  0.5223
19325TIP3    H179390   2.683   6.485  14.649  0.3093  1.8645  0.9917
19325TIP3    H279391   2.818   6.512  14.587  0.2111  2.0363  0.8547
19326TIP3   OH279392   5.402   3.209   2.279 -0.3210 -0.2342 -0.2031
19326TIP3    H179393   5.427   3.204   2.187  0.6015 -3.1860  0.1126
19326TIP3    H279394   5.483   3.192   2.327 -0.7832  1.2846  1.2074
19327TIP3   OH279395   6.537   0.188  12.403  0.5602  0.0085 -0.0714
19327TIP3    H179396   6.495   0.115  12.357 -0.9302 -0.6412  2.1960
19327TIP3    H279397   6.509   0.266  12.355 -0.2540 -0.6953 -0.7746
19328TIP3   OH279398   3.710   4.049  16.900 -1.0417 -0.1289  0.1489
19328TIP3    H179399   3.689   4.023  16.989 -0.7840  0.1141  0.2809
19328TIP3    H279400   3.774   4.119  16.909 -0.6778 -0.4071 -0.2389
19329TIP3   OH279401   0.111   6.384   3.530 -0.7527 -0.0647  0.0382
19329TIP3    H179402   0.050   6.456   3.514  0.1118  1.2936  2.4643
19329TIP3    H279403   0.099   6.362   3.622  0.6755 -1.4502 -0.0657
19330TIP3   OH279404   0.032   4.839   0.553  0.7295 -0.2792  0.2915
19330TIP3    H179405   0.074   4.864   0.635  2.3100  0.5523 -0.7135
19330TIP3    H279406   0.105   4.824   0.493 -0.3959 -0.1205 -1.1684
19331TIP3   OH279407   4.626   5.107  13.540  0.0317  0.0159 -0.1296
19331TIP3    H179408   4.697   5.099  13.476  0.4597 -0.8264  0.4305
19331TIP3    H279409   4.604   5.016  13.562 -1.2339  0.2580 -0.2972
19332TIP3   OH279410   4.842   6.364   3.147 -0.1751 -0.1063  0.3445
19332TIP3    H179411   4.793   6.418   3.209 -0.0160  2.1154 -1.3699
19332TIP3    H279412   4.932   6.397   3.151 -0.1826  0.1573 -1.1285
19333TIP3   OH279413   2.281   1.078   1.582  0.0827  0.2659  0.1718
19333TIP3    H179414   2.234   1.011   1.532 -0.4863  0.0936  0.9196
19333TIP3    H279415   2.305   1.035   1.664 -0.7985  1.1203  0.9150
19334TIP3   OH279416   5.465   0.549  13.538 -0.5068  0.0501 -0.6387
19334TIP3    H179417   5.487   0.479  13.478  1.7900 -0.0499  0.2067
19334TIP3    H279418   5.406   0.606  13.489 -1.2117 -1.6462 -1.8508
19335TIP3   OH279419   4.771   4.109   1.479  0.1869 -0.6087  0.5752
19335TIP3    H179420   4.783   4.015   1.494  0.6527 -0.6492 -0.0155
19335TIP3    H279421   4.686   4.116   1.436  0.2536 -0.7813  0.4140
19336TIP3   OH279422   5.797   0.264   1.385 -0.1492 -0.7752  0.4972
19336TIP3    H179423   5.813   0.315   1.305  0.2699 -0.0087  1.0555
19336TIP3    H279424   5.884   0.249   1.422 -0.3811 -0.5987  1.1273
19337TIP3   OH279425   6.115   5.778  14.451 -0.6454 -0.0492  0.4455
19337TIP3    H179426   6.063   5.804  14.375  0.0137  0.4173  0.1443
19337TIP3    H279427   6.050   5.754  14.517 -1.2317 -0.1184 -0.1416
19338TIP3   OH279428   5.575   3.099   4.796 -0.3923  0.1858  0.5345
19338TIP3    H179429   5.636   3.113   4.869 -0.0936 -0.4793  0.4166
19338TIP3    H279430   5.619   3.140   4.721 -1.1928  1.8504  0.9243
19339TIP3   OH279431   0.110   3.979  14.764 -0.4009  0.1213  0.0790
19339TIP3    H179432   0.031   3.973  14.818 -0.1935  4.2655  1.1218
19339TIP3    H279433   0.099   3.910  14.699 -4.4329 -0.0966  0.7274
19340TIP3   OH279434   3.346   4.444   1.499 -0.6822 -0.2959 -0.3459
19340TIP3    H179435   3.416   4.402   1.448 -0.9903  0.9501 -1.8674
19340TIP3    H279436   3.276   4.379   1.502 -1.0677 -0.0525 -2.4840
19341TIP3   OH279437   4.839   2.610   0.432 -0.1668  0.4003  0.2517
19341TIP3    H179438   4.808   2.540   0.375  0.3677  0.6367 -0.3480
19341TIP3    H279439   4.761   2.662   0.451 -0.3855  0.2040 -0.1066
19342TIP3   OH279440   5.739   6.258   1.966 -0.2855  0.1250  0.2440
19342TIP3    H179441   5.741   6.164   1.949  0.0809  0.0780  0.5232
19342TIP3    H279442   5.822   6.290   1.930 -0.1262  0.2405  0.7041
19343TIP3   OH279443   0.465   5.529   2.447 -0.1771 -0.1335 -0.1936
19343TIP3    H179444   0.448   5.620   2.421 -1.5305 -0.6907 -1.4073
19343TIP3    H279445   0.379   5.487   2.442  0.2217 -1.2073  1.5490
19344TIP3   OH279446   6.683   1.373   5.276 -0.0767  0.5031 -0.0039
19344TIP3    H179447   6.778   1.380   5.277  0.0627 -0.9374 -0.7669
19344TIP3    H279448   6.655   1.438   5.211  0.1663  2.4835  1.7418
19345TIP3   OH279449   4.234   1.804  14.447 -0.5771  0.0478 -0.1210
19345TIP3    H179450   4.293   1.728  14.439 -0.9612 -0.2473 -0.1808
19345TIP3    H279451   4.283   1.867  14.500 -0.6160 -0.5964  0.6841
19346TIP3   OH279452   0.614   2.767  16.748 -0.3748 -0.1316 -0.4171
19346TIP3    H179453   0.627   2.859  16.725 -1.4424 -0.2307 -1.5432
19346TIP3    H279454   0.527   2.765  16.788 -0.8873 -0.8166 -1.5264
19347TIP3   OH279455   1.188   1.432  13.449  0.1816 -0.2657 -0.0403
19347TIP3    H179456   1.180   1.523  13.478 -1.7124 -0.0158 -1.1795
19347TIP3    H279457   1.272   1.403  13.483  0.6789  1.8148  0.6202
19348TIP3   OH279458   0.614   1.677  13.086  0.6358 -0.3965  0.5683
19348TIP3    H179459   0.702   1.712  13.080  1.0311 -1.6211 -2.1517
19348TIP3    H279460   0.560   1.739  13.036 -0.4096  1.0768  3.3017
19349TIP3   OH279461   0.728   1.489   2.536  0.1006 -0.3481  0.0481
19349TIP3    H179462   0.709   1.397   2.553  0.9832 -0.2128  2.1809
19349TIP3    H279463   0.686   1.536   2.608  0.2389  0.8518 -0.6244
19350TIP3   OH279464   6.287   3.621  11.904 -0.6941  0.5418  0.7871
19350TIP3    H179465   6.353   3.643  11.970 -0.8422  0.7091  0.8815
19350TIP3    H279466   6.310   3.676  11.829 -0.4592  0.2694  0.6579
19351TIP3   OH279467   2.209   1.697  11.209 -0.1499 -0.1394  0.7810
19351TIP3    H179468   2.268   1.648  11.152 -1.5973 -0.7215 -0.2851
19351TIP3    H279469   2.162   1.755  11.149  2.1706  3.4378  2.0531
19352TIP3   OH279470   2.287   0.072  11.516 -0.1878  0.4812  0.2732
19352TIP3    H179471   2.197   0.105  11.520  0.1346  1.6283 -1.0778
19352TIP3    H279472   2.278  -0.019  11.490 -0.9372  0.9458 -1.2107
19353TIP3   OH279473   4.629   4.509  15.784 -0.5106 -0.4692  0.7373
19353TIP3    H179474   4.678   4.586  15.755  1.0344 -0.9303  1.9769
19353TIP3    H279475   4.661   4.438  15.729 -1.1102 -0.4431  0.3487
19354TIP3   OH279476   3.563   5.096   1.234 -0.5761 -0.4342  0.0463
19354TIP3    H179477   3.525   5.067   1.151 -0.4353 -0.7647  0.0960
19354TIP3    H279478   3.525   5.182   1.249 -0.8493 -0.5108 -0.2015
19355TIP3   OH279479   2.213   0.139  12.790  0.0393  0.5933  0.3788
19355TIP3    H179480   2.257   0.065  12.831 -0.4622 -0.1872 -0.4664
19355TIP3    H279481   2.186   0.194  12.863 -0.8940 -0.7979  1.1384
19356TIP3   OH279482   2.772   0.438   2.212  0.5782  1.0256 -0.1532
19356TIP3    H179483   2.793   0.349   2.241 -0.7227  0.6133 -0.4029
19356TIP3    H279484   2.849   0.466   2.163 -0.3256 -1.3966 -3.3234
19357TIP3   OH279485   5.890   6.089   3.019  0.1539 -0.4102 -0.2539
19357TIP3    H179486   5.886   6.185   3.023  1.1297 -0.3512 -0.4866
19357TIP3    H279487   5.972   6.070   2.974 -0.2824 -1.3572 -0.6821
19358TIP3   OH279488   4.277   6.239  11.471  1.0335  0.1114 -0.3426
19358TIP3    H179489   4.253   6.147  11.462  0.4406  0.3199 -0.9435
19358TIP3    H279490   4.321   6.244  11.556  2.8319 -1.0899 -1.1449
19359TIP3   OH279491   3.123   2.122  11.390  0.3410 -0.0518  0.1076
19359TIP3    H179492   3.175   2.157  11.317 -0.2946  0.7976  0.0359
19359TIP3    H279493   3.088   2.200  11.433  0.7957 -0.5419  1.4045
19360TIP3   OH279494   4.753   0.733  15.429  0.0834  0.6896  0.5427
19360TIP3    H179495   4.765   0.754  15.521  1.5801 -0.2907  0.5991
19360TIP3    H279496   4.841   0.734  15.392 -0.6551  4.3617 -1.6806
19361TIP3   OH279497   5.565   2.704  13.715  0.0921  0.2672  0.2160
19361TIP3    H179498   5.520   2.705  13.799 -1.6393  2.7603 -0.6133
19361TIP3    H279499   5.645   2.755  13.730  0.3479 -0.2348  0.5891
19362TIP3   OH279500   1.937   5.270  14.960 -0.0924 -0.3927 -0.3842
19362TIP3    H179501   1.899   5.312  14.882 -2.8315 -1.0915  0.4860
19362TIP3    H279502   1.939   5.340  15.026 -0.4261 -0.4920 -0.2660
19363TIP3   OH279503   3.388   0.377   0.233  0.3149  0.1793 -0.2271
19363TIP3    H179504   3.305   0.330   0.244  0.8969 -0.4978  1.5207
19363TIP3    H279505   3.404   0.373   0.138 -1.8754  0.7757 -0.6970
19364TIP3   OH279506   4.175   0.218   1.074  0.0871  0.3091  0.0770
19364TIP3    H179507   4.099   0.213   1.131  1.0828  1.1681  1.5627
19364TIP3    H279508   4.171   0.139   1.020 -1.8623  0.3830  0.0588
19365TIP3   OH279509   2.816   4.194   1.878  0.0610 -0.4191 -0.7015
19365TIP3    H179510   2.775   4.111   1.853  1.2646 -1.2821  0.0816
19365TIP3    H279511   2.767   4.223   1.956  0.1884 -0.8489 -0.4588
19366TIP3   OH279512   5.426   0.632  13.953 -0.1547  0.0388  0.2324
19366TIP3    H179513   5.346   0.616  14.004  0.2738 -0.0882  0.8707
19366TIP3    H279514   5.495   0.642  14.018  0.6566 -1.4817 -0.3323
19367TIP3   OH279515   5.289   2.217   3.367 -0.7189 -0.0332  0.4280
19367TIP3    H179516   5.301   2.298   3.415  1.4861 -1.1007  1.8401
19367TIP3    H279517   5.197   2.217   3.343 -1.0458  2.3030  1.4253
19368TIP3   OH279518   1.964   4.113  13.336  0.5472  0.0086 -0.6705
19368TIP3    H179519   1.940   4.021  13.350  0.8937 -0.0933 -0.7384
19368TIP3    H279520   2.018   4.112  13.257  1.3976  0.1336 -0.1029
19369TIP3   OH279521   0.782   6.660   5.694 -0.2673 -0.1420  0.5459
19369TIP3    H179522   0.865   6.660   5.741  0.6247 -0.8201 -0.9419
19369TIP3    H279523   0.742   6.576   5.717 -0.1374 -0.1859  0.6163
19370TIP3   OH279524   4.062   0.931  12.226 -0.2751  0.3521 -0.1755
19370TIP3    H179525   4.033   0.847  12.264 -0.8706 -0.1179 -1.6181
19370TIP3    H279526   4.074   0.912  12.133  2.1684  1.2137 -0.1026
19371TIP3   OH279527   0.563   0.726   4.945  0.1777 -0.0766  0.2272
19371TIP3    H179528   0.645   0.679   4.959  1.5374  1.4792 -1.7386
19371TIP3    H279529   0.528   0.690   4.863 -0.5619 -0.0135  0.5063
19372TIP3   OH279530   5.630   0.460   2.980 -0.2199  0.1107  0.4923
19372TIP3    H179531   5.610   0.371   3.011  2.1838 -0.2031  1.3323
19372TIP3    H279532   5.631   0.514   3.059 -0.3034  0.6044  0.1631
19373TIP3   OH279533   1.796   1.251  14.440 -0.7725 -0.2665  0.3390
19373TIP3    H179534   1.714   1.218  14.403  0.0884 -0.9464 -1.0599
19373TIP3    H279535   1.773   1.337  14.476 -2.1116 -0.4898  0.0595
19374TIP3   OH279536   1.696   1.043  16.149  0.0912  0.4297 -0.4775
19374TIP3    H179537   1.740   1.116  16.105 -0.3646  1.0770  0.1260
19374TIP3    H279538   1.676   0.981  16.078  2.2199 -0.0274 -0.7383
19375TIP3   OH279539   2.847   3.576   4.488 -0.3647 -0.6181 -0.4271
19375TIP3    H179540   2.872   3.484   4.500 -1.9464 -1.3916 -2.6174
19375TIP3    H279541   2.851   3.613   4.577  0.7165 -2.6481  0.4453
19376TIP3   OH279542   4.146   5.078  14.153 -0.1636  0.0023  0.3793
19376TIP3    H179543   4.151   4.990  14.114 -1.4915 -0.5624  1.4065
19376TIP3    H279544   4.180   5.136  14.085 -0.0456 -1.2151 -0.6458
19377TIP3   OH279545   1.923   0.811  14.419 -0.3311 -0.1175  0.3606
19377TIP3    H179546   1.943   0.904  14.428 -1.2371  0.0021  1.4249
19377TIP3    H279547   1.992   0.766  14.469 -1.0283  0.1183  1.5722
19378TIP3   OH279548   3.251   6.195   1.613 -0.0873 -0.2041  0.3173
19378TIP3    H179549   3.273   6.105   1.640  2.5646  0.4667  0.6715
19378TIP3    H279550   3.288   6.202   1.525  1.1607  0.9906  0.9082
19379TIP3   OH279551   5.508   6.431   1.288 -0.1654 -0.4076 -0.3330
19379TIP3    H179552   5.433   6.383   1.252 -1.9720  1.9566 -0.0015
19379TIP3    H279553   5.473   6.473   1.367  1.2588  1.5133 -0.6641
19380TIP3   OH279554   3.195   5.668   3.899  0.0547  0.3333 -0.0050
19380TIP3    H179555   3.265   5.671   3.833  0.0891  1.5368  0.0565
19380TIP3    H279556   3.239   5.649   3.981  0.2683  0.7239 -0.0278
19381TIP3   OH279557   5.166   5.012  11.291  0.3693  0.4590  0.0546
19381TIP3    H179558   5.182   4.919  11.303  1.4554  0.2251 -2.5422
19381TIP3    H279559   5.222   5.054  11.357  0.5219 -0.6751  0.6851
19382TIP3   OH279560   0.381   1.749  14.673  0.5149  0.3450  0.3428
19382TIP3    H179561   0.324   1.778  14.603 -0.5472  2.1938  1.8760
19382TIP3    H279562   0.463   1.797  14.659  0.8683 -0.4660 -0.4688
19383TIP3   OH279563   1.224   4.038   3.646  0.3526  1.1678 -0.1857
19383TIP3    H179564   1.296   3.975   3.641  0.1447  1.0388 -1.9680
19383TIP3    H279565   1.180   4.017   3.729  2.3864  1.3045  1.0012
19384TIP3   OH279566   4.015   5.836  10.576  0.6554 -0.3919 -0.6415
19384TIP3    H179567   4.064   5.902  10.527 -0.8257  0.7904 -0.5974
19384TIP3    H279568   3.943   5.884  10.615  0.0878 -1.8803  0.2107
19385TIP3   OH279569   6.019   1.924  15.825  0.3292 -0.3383 -0.1205
19385TIP3    H179570   6.034   1.847  15.770 -1.6238  0.8586 -2.5303
19385TIP3    H279571   5.924   1.937  15.823  0.7186  4.3624 -3.2833
19386TIP3   OH279572   3.025   6.515   1.837 -0.2126 -0.4900  0.2072
19386TIP3    H179573   3.020   6.419   1.844  2.9502 -0.6682  1.6455
19386TIP3    H279574   2.978   6.547   1.914 -2.6148 -0.7265 -1.0627
19387TIP3   OH279575   5.829   3.703  12.416 -0.1528  0.8183  0.0572
19387TIP3    H179576   5.837   3.608  12.407 -1.6468  0.5896  0.7305
19387TIP3    H279577   5.876   3.723  12.497 -3.0931 -0.0080  2.1685
19388TIP3   OH279578   1.644   0.841   3.568 -0.2860  0.5768 -0.5926
19388TIP3    H179579   1.550   0.850   3.585 -0.5268  1.5230 -2.2594
19388TIP3    H279580   1.650   0.827   3.473  1.1809 -0.9722 -0.3203
19389TIP3   OH279581   2.684   2.580  16.536  0.4229  0.4477  0.6321
19389TIP3    H179582   2.773   2.598  16.505  1.0120  0.7383  2.3659
19389TIP3    H279583   2.652   2.666  16.565  0.1497  0.1123  1.3603
19390TIP3   OH279584   3.749   1.570  17.047  0.2370  0.4714 -0.1934
19390TIP3    H179585   3.667   1.619  17.047 -2.4923 -3.5317  1.6872
19390TIP3    H279586   3.751   1.527  16.962 -0.3166 -0.3943  0.2214
19391TIP3   OH279587   5.028   0.861  12.543  0.5383  0.2081  0.2148
19391TIP3    H179588   5.036   0.810  12.463 -0.5022  1.2062 -0.5660
19391TIP3    H279589   4.979   0.805  12.603  1.0098 -0.4061  0.0365
19392TIP3   OH279590   2.953   2.909   4.112  0.1637  0.2441 -0.2879
19392TIP3    H179591   2.921   2.823   4.140 -2.2338  0.1531 -2.9133
19392TIP3    H279592   2.890   2.970   4.151  0.5405  0.6269 -0.2863
19393TIP3   OH279593   4.917   5.832   2.791 -0.2442  0.0299  0.0372
19393TIP3    H179594   4.868   5.897   2.740  1.2169  1.6445  0.5605
19393TIP3    H279595   5.000   5.824   2.744  0.5338  0.3934  1.3096
19394TIP3   OH279596   2.909   3.731  16.743  0.8533  0.1925  0.4432
19394TIP3    H179597   2.845   3.666  16.715 -1.1695  0.6064  3.6769
19394TIP3    H279598   2.861   3.814  16.743  2.7733  1.4087 -1.4998
19395TIP3   OH279599   3.868   1.227  11.350 -0.2045  0.2788  0.8254
19395TIP3    H179600   3.792   1.209  11.295 -0.7440  0.9763  1.3140
19395TIP3    H279601   3.943   1.219  11.291 -0.7218  0.4018  0.1344
19396TIP3   OH279602   0.478   5.125  12.717  0.4105  0.0525  0.3585
19396TIP3    H179603   0.481   5.173  12.634  0.8412  0.7325  0.7537
19396TIP3    H279604   0.415   5.173  12.771  1.5257  0.7481  1.0858
19397TIP3   OH279605   2.491   0.989   0.653  0.2304 -0.3694 -0.2308
19397TIP3    H179606   2.483   0.895   0.637  1.0528 -0.8506  1.8717
19397TIP3    H279607   2.547   0.996   0.731  0.4825  1.8780 -0.5419
19398TIP3   OH279608   3.463   2.291  16.445  0.1389  0.2893  0.3610
19398TIP3    H179609   3.503   2.377  16.436 -1.1899  0.9022  0.0999
19398TIP3    H279610   3.513   2.235  16.386  1.3760  0.7390  0.9538
19399TIP3   OH279611   2.311   1.616   3.211 -0.0775 -0.2472  0.0903
19399TIP3    H179612   2.402   1.642   3.193 -0.5100 -1.0133 -4.1774
19399TIP3    H279613   2.317   1.563   3.291  3.4169 -1.1139 -0.5764
19400TIP3   OH279614   3.028   4.482  10.999 -0.3082 -0.0982 -0.0825
19400TIP3    H179615   3.045   4.515  10.911 -1.1086 -0.2767 -0.3117
19400TIP3    H279616   3.039   4.558  11.056 -0.8471  0.2610 -0.4563
19401TIP3   OH279617   4.769   2.748  15.386  0.0755  0.6002 -0.6403
19401TIP3    H179618   4.704   2.720  15.320  0.0479 -0.6921 -0.1075
19401TIP3    H279619   4.720   2.749  15.468  0.7992 -0.8019 -0.1653
19402TIP3   OH279620   3.138   1.068  14.447  0.2777 -0.1618  0.5630
19402TIP3    H179621   3.188   1.104  14.520 -0.2997 -0.6336  1.2081
19402TIP3    H279622   3.050   1.057  14.482  0.6450 -3.1509  0.7394
19403TIP3   OH279623   4.802   4.867   1.489 -0.2220  0.1212  0.0287
19403TIP3    H179624   4.713   4.834   1.491  0.0522 -0.6729 -0.2550
19403TIP3    H279625   4.854   4.800   1.534  0.2878  0.3753 -0.1639
19404TIP3   OH279626   0.160   1.235   1.105 -0.0928  0.3331 -0.0166
19404TIP3    H179627   0.160   1.316   1.054  0.2215  0.5053  0.2486
19404TIP3    H279628   0.090   1.248   1.169 -0.8995 -0.1365 -0.7869
19405TIP3   OH279629   4.135   6.302  13.773 -0.5078 -0.1261 -0.1345
19405TIP3    H179630   4.184   6.379  13.801 -1.5087  0.6620 -0.4743
19405TIP3    H279631   4.174   6.278  13.689  0.1263 -0.2937  0.2016
19406TIP3   OH279632   3.731   3.314  17.041  0.6812 -0.5323  0.1264
19406TIP3    H179633   3.724   3.409  17.038  0.8909 -0.5146  0.1897
19406TIP3    H279634   3.747   3.288  16.950 -1.2939 -0.6662 -0.2312
19407TIP3   OH279635   1.074   4.625  11.686  0.4072 -0.1352  0.1576
19407TIP3    H179636   1.044   4.598  11.599 -0.4844 -0.5017  0.5601
19407TIP3    H279637   1.017   4.698  11.710  0.0547 -0.6053  0.7909
19408TIP3   OH279638   5.880   6.580   1.277 -0.1163  0.5288 -0.4784
19408TIP3    H179639   5.970   6.609   1.290 -0.3749  0.7292  0.9675
19408TIP3    H279640   5.876   6.558   1.184  1.0164  1.9014 -0.8893
19409TIP3   OH279641   4.065   0.715  11.328 -0.3524  0.3149  0.4548
19409TIP3    H179642   4.159   0.713  11.309 -0.1293  0.5650  1.4423
19409TIP3    H279643   4.060   0.746  11.419 -1.2901 -1.3862  1.0245
19410TIP3   OH279644   3.706   2.476  12.861 -0.0928 -0.6617 -0.0290
19410TIP3    H179645   3.726   2.389  12.895  0.8919  0.1550  1.6449
19410TIP3    H279646   3.611   2.476  12.850 -0.6048 -0.9449  3.1958
19411TIP3   OH279647   6.418   4.504  13.922 -0.3729  0.4742 -0.4539
19411TIP3    H179648   6.333   4.464  13.904 -2.0754  2.6812  1.9276
19411TIP3    H279649   6.443   4.469  14.008  0.3782  0.9974 -0.4501
19412TIP3   OH279650   2.712   1.015  11.423  0.1318  0.1103  0.2349
19412TIP3    H179651   2.672   0.977  11.345 -2.2149 -2.1423  2.3453
19412TIP3    H279652   2.647   1.075  11.458  0.9781  0.7727  0.7298
19413TIP3   OH279653   0.673   1.191  13.693 -0.4108  0.3478 -0.4298
19413TIP3    H179654   0.707   1.206  13.782 -1.6198  2.1542 -0.2191
19413TIP3    H279655   0.609   1.121  13.704  0.7501 -0.7153 -0.2320
19414TIP3   OH279656   4.485   0.317  16.423 -0.3283  0.2654 -0.1004
19414TIP3    H179657   4.506   0.246  16.361 -0.5973  0.1974 -0.1118
19414TIP3    H279658   4.454   0.388  16.367  0.6371  0.6588 -0.1542
19415TIP3   OH279659   2.621   0.415   4.640  0.0564 -0.7221 -0.4335
19415TIP3    H179660   2.535   0.383   4.614 -0.3159 -0.6464  0.6613
19415TIP3    H279661   2.680   0.384   4.571 -0.6557 -1.8257 -0.5677
19416TIP3   OH279662   5.220   3.526  15.796  0.1645  0.6768  0.2820
19416TIP3    H179663   5.244   3.614  15.767  2.6448  0.1289  0.4791
19416TIP3    H279664   5.289   3.469  15.762 -0.2560 -0.9031  1.9079
19417TIP3   OH279665   1.548   2.356   3.337  0.1061 -0.0677  0.2712
19417TIP3    H179666   1.603   2.332   3.412 -1.3797 -0.6132  1.2251
19417TIP3    H279667   1.610   2.379   3.268  1.5851 -2.5003  0.6811
19418TIP3   OH279668   2.882   4.901  15.125  0.5167  0.6765  0.0769
19418TIP3    H179669   2.807   4.901  15.185  0.1762  3.0285 -0.2404
19418TIP3    H279670   2.958   4.890  15.182  0.1465  2.1487  0.9169
19419TIP3   OH279671   5.311   2.487  13.169  0.5178  0.4337 -0.4825
19419TIP3    H179672   5.270   2.572  13.154  2.3490  1.0459 -2.5546
19419TIP3    H279673   5.255   2.445  13.234 -0.4161  3.2257  0.6809
19420TIP3   OH279674   0.465   2.416  17.059 -0.0418  0.0144  0.0236
19420TIP3    H179675   0.387   2.382  17.016  1.2336 -0.9388 -1.6918
19420TIP3    H279676   0.469   2.370  17.142 -0.9665 -0.4086 -0.1612
19421TIP3   OH279677   1.491   2.902   5.932  0.7415  0.4729 -0.5163
19421TIP3    H179678   1.554   2.898   5.860 -0.8480 -0.9704 -1.9382
19421TIP3    H279679   1.409   2.930   5.889 -0.4237 -1.0968  0.5930
19422TIP3   OH279680   0.251   4.580   3.455 -0.0559  0.0435  0.1949
19422TIP3    H179681   0.270   4.664   3.495  1.5554  0.3121 -1.0528
19422TIP3    H279682   0.334   4.550   3.418 -0.5831 -2.0883  0.5688
19423TIP3   OH279683   6.707   5.463   2.134 -0.0474 -0.0988  0.2286
19423TIP3    H179684   6.680   5.379   2.173 -0.4244 -0.0051  0.1705
19423TIP3    H279685   6.648   5.527   2.173  0.3543  0.1654  0.4013
19424TIP3   OH279686   0.431   5.186   3.434 -0.3869  0.5014 -0.5398
19424TIP3    H179687   0.383   5.213   3.512 -1.4843 -0.8982 -0.6997
19424TIP3    H279688   0.363   5.154   3.374  0.6731 -0.8331 -1.0655
19425TIP3   OH279689   3.021   4.177   3.888  0.4950 -0.0970 -0.3615
19425TIP3    H179690   2.961   4.157   3.960 -0.1251 -0.5541 -0.9975
19425TIP3    H279691   3.076   4.247   3.922  0.2726 -0.3695  0.5939
19426TIP3   OH279692   6.673   3.519   0.736 -0.4784  0.6237 -0.2308
19426TIP3    H179693   6.725   3.496   0.659 -2.0899  0.3337 -1.2795
19426TIP3    H279694   6.684   3.613   0.746 -1.1246  0.8575 -1.5140
19427TIP3   OH279695   4.563   4.458  12.675  0.3535  0.3491 -0.0017
19427TIP3    H179696   4.541   4.461  12.769  1.8752  0.0834  0.3936
19427TIP3    H279697   4.517   4.381  12.642 -3.0350  2.2876 -0.3153
19428TIP3   OH279698   1.122   2.578   3.070 -0.1992  0.4162 -0.0827
19428TIP3    H179699   1.179   2.553   3.142 -0.4932  0.2235  0.0872
19428TIP3    H279700   1.150   2.524   2.996  0.2774  0.8030 -0.1914
19429TIP3   OH279701   3.723   2.629  10.889 -0.1615  0.5087 -0.1229
19429TIP3    H179702   3.808   2.584  10.882  0.0607  0.8172  0.4551
19429TIP3    H279703   3.723   2.691  10.816  0.3410  0.8707  0.1768
19430TIP3   OH279704   4.653   5.734   1.286  0.1745  0.1126  0.2825
19430TIP3    H179705   4.647   5.638   1.291 -0.2068  0.1527  0.5494
19430TIP3    H279706   4.575   5.761   1.237 -0.3846  0.3888  1.3095
19431TIP3   OH279707   0.788   3.836   0.600 -0.3279  0.0402 -0.5210
19431TIP3    H179708   0.856   3.776   0.568  0.8227  0.9652  0.1401
19431TIP3    H279709   0.740   3.862   0.521  0.3651 -0.2764 -1.0575
19432TIP3   OH279710   2.292   5.546  12.001 -0.4071  0.7066 -0.5764
19432TIP3    H179711   2.208   5.499  12.004 -0.3359  0.5872 -0.4268
19432TIP3    H279712   2.298   5.579  11.912  0.5839 -1.5260 -1.4349
19433TIP3   OH279713   5.703   3.757  11.585 -0.2719  0.0469  0.0096
19433TIP3    H179714   5.712   3.681  11.527 -1.3604  0.3049 -0.5194
19433TIP3    H279715   5.615   3.790  11.567 -0.4054  0.4824  1.3968
19434TIP3   OH279716   5.831   1.038  13.316  0.3588 -0.1510  0.2160
19434TIP3    H179717   5.778   1.117  13.318 -0.0750 -0.3732 -1.2186
19434TIP3    H279718   5.769   0.969  13.291  1.0921 -0.6114 -0.3590
19435TIP3   OH279719   3.956   2.844  15.375 -0.3126  0.0482 -0.1072
19435TIP3    H179720   3.962   2.839  15.279 -0.7990 -1.3884 -0.0790
19435TIP3    H279721   3.863   2.853  15.393 -0.1526  1.2217  0.2181
19436TIP3   OH279722   1.758   0.230  13.743  0.0362  0.5745  0.1847
19436TIP3    H179723   1.812   0.204  13.669  0.2826 -0.0449  0.5771
19436TIP3    H279724   1.671   0.196  13.722  0.3659 -0.6591  0.7161
19437TIP3   OH279725   1.160   0.965  11.285  0.0459  0.5884 -0.0504
19437TIP3    H179726   1.152   1.060  11.294 -0.9826  0.4620  0.4796
19437TIP3    H279727   1.206   0.952  11.202  2.4236  1.6099  1.0077
19438TIP3   OH279728   0.207   2.094  12.481 -0.0398 -0.1775  0.2770
19438TIP3    H179729   0.140   2.037  12.444  0.9596  0.1921 -2.3030
19438TIP3    H279730   0.251   2.040  12.548 -1.2849 -1.2316  0.2760
19439TIP3   OH279731   0.175   1.548  11.254 -0.6666  0.3285  0.9326
19439TIP3    H179732   0.127   1.571  11.175  1.6026 -0.3229 -0.7519
19439TIP3    H279733   0.260   1.591  11.244  0.7398 -2.0967  1.5639
19440TIP3   OH279734   2.213   4.059  14.968  0.3242  0.5257 -0.1181
19440TIP3    H179735   2.125   4.026  14.948  0.3208  0.8759 -0.7118
19440TIP3    H279736   2.199   4.146  15.004  0.3869  0.2764  0.5074
19441TIP3   OH279737   5.393   0.562   2.167 -0.2522  0.4303 -0.0993
19441TIP3    H179738   5.304   0.526   2.163 -0.3153  0.5431  0.2646
19441TIP3    H279739   5.447   0.496   2.124 -0.4802  0.2586 -0.1247
19442TIP3   OH279740   3.803   5.636   3.647 -0.3395 -0.0389  0.2754
19442TIP3    H179741   3.795   5.665   3.556 -0.1027 -0.2250  0.1962
19442TIP3    H279742   3.841   5.711   3.693 -0.2737 -0.0166  0.1840
19443TIP3   OH279743   1.750   0.625   2.852 -0.1185 -0.0418  0.2799
19443TIP3    H179744   1.793   0.563   2.793  2.5092  0.1331  1.8412
19443TIP3    H279745   1.816   0.694   2.867 -1.1860  0.6440  2.2808
19444TIP3   OH279746   4.410   2.248   4.090  0.1577  0.1822  0.4841
19444TIP3    H179747   4.440   2.242   3.999 -1.2945  0.1882 -0.0107
19444TIP3    H279748   4.318   2.272   4.084 -0.4206 -1.4580  1.9161
19445TIP3   OH279749   3.910   3.336  15.353  0.4838 -0.4121  0.0238
19445TIP3    H179750   3.916   3.380  15.268 -0.2748  0.9471  0.6435
19445TIP3    H279751   3.904   3.407  15.416 -1.0307 -1.4069  1.0492
19446TIP3   OH279752   4.605   1.094   5.100 -0.0372  0.5063  0.0305
19446TIP3    H179753   4.588   1.179   5.140  0.7678  0.2501  0.9783
19446TIP3    H279754   4.560   1.032   5.158 -2.2435  0.3887 -1.6985
19447TIP3   OH279755   1.540   1.449  15.615 -0.5841 -0.2289  0.1307
19447TIP3    H179756   1.446   1.468  15.615 -0.6397 -0.3681  1.9520
19447TIP3    H279757   1.574   1.502  15.543 -2.1318 -0.6819 -0.9886
19448TIP3   OH279758   0.792   4.059   2.522  0.2810  0.1821  0.5222
19448TIP3    H179759   0.886   4.043   2.530 -0.0994 -2.4740  0.7092
19448TIP3    H279760   0.778   4.079   2.429  1.0179  0.3598  0.4490
19449TIP3   OH279761   4.789   1.679   2.650 -0.4888  0.1696 -0.4644
19449TIP3    H179762   4.834   1.666   2.567  0.5829  3.8017 -0.6012
19449TIP3    H279763   4.858   1.695   2.714 -1.3142  3.0695 -0.1191
19450TIP3   OH279764   4.725   4.004   3.481  0.6290 -0.3684 -0.2637
19450TIP3    H179765   4.770   4.088   3.481 -0.8480  0.4348 -0.4657
19450TIP3    H279766   4.761   3.958   3.558  0.3342  1.0394  0.7409
19451TIP3   OH279767   5.768   2.777   2.083  0.2027 -0.4671 -0.7529
19451TIP3    H179768   5.687   2.729   2.102 -0.5982  1.5430  1.4816
19451TIP3    H279769   5.738   2.857   2.041  0.8049  0.9316  1.3183
19452TIP3   OH279770   4.612   0.632  14.969  0.4730 -0.3413 -0.1312
19452TIP3    H179771   4.649   0.659  14.885 -1.3073  3.7162  0.1546
19452TIP3    H279772   4.685   0.643  15.031  1.1954 -1.2891 -0.7772
19453TIP3   OH279773   1.476   6.786  12.400  0.2673 -0.3854  0.1774
19453TIP3    H179774   1.490   6.801  12.307  0.1086  0.1757  0.2408
19453TIP3    H279775   1.407   6.720  12.404 -0.1364  0.0211 -0.0975
19454TIP3   OH279776   5.842   1.998   4.867 -0.1882  0.2985 -0.3901
19454TIP3    H179777   5.798   1.916   4.886 -0.8843  0.6009 -0.6480
19454TIP3    H279778   5.847   2.043   4.951  0.6768 -0.2317 -0.1520
19455TIP3   OH279779   1.165   3.713   3.588  0.2309  0.0656 -0.0208
19455TIP3    H179780   1.141   3.720   3.496  0.1610  1.2486  0.0691
19455TIP3    H279781   1.092   3.753   3.636  0.4300 -0.2071  0.5296
19456TIP3   OH279782   1.869   3.733  11.340  0.0548  0.3409 -0.2104
19456TIP3    H179783   1.785   3.750  11.384 -0.5638 -0.9107 -0.8474
19456TIP3    H279784   1.918   3.678  11.401  0.4195  1.0612  0.1551
19457TIP3   OH279785   3.376   0.906  16.567  0.9595 -0.5586 -0.0773
19457TIP3    H179786   3.400   0.919  16.475 -2.1376  0.6880 -0.8450
19457TIP3    H279787   3.343   0.816  16.570 -0.9163  0.0649 -0.7605
19458TIP3   OH279788   1.331   5.807  11.798 -0.1436  0.1954 -0.1838
19458TIP3    H179789   1.242   5.843  11.798  0.3418  1.4723  0.3609
19458TIP3    H279790   1.337   5.756  11.717 -0.9216  1.3064 -0.9761
19459TIP3   OH279791   5.996   5.612  14.661 -0.2856 -0.0147  0.0331
19459TIP3    H179792   5.907   5.646  14.659 -0.0743  0.6803  1.1977
19459TIP3    H279793   6.004   5.569  14.746 -0.5459 -3.1498 -1.3929
19460TIP3   OH279794   6.798   0.717  14.420 -0.2654 -0.6572 -0.6929
19460TIP3    H179795   6.868   0.724  14.355 -1.0896 -1.3884 -1.6964
19460TIP3    H279796   6.717   0.723  14.369 -0.9365 -1.0871  0.2795
19461TIP3   OH279797   3.246   6.226   5.451  0.0247 -0.1860 -0.6018
19461TIP3    H179798   3.197   6.173   5.389 -2.0966  0.9711 -0.0129
19461TIP3    H279799   3.180   6.259   5.512  1.8067 -0.0083  1.3469
19462TIP3   OH279800   4.094   1.548   5.036 -0.1646 -0.1420 -0.2008
19462TIP3    H179801   4.082   1.643   5.028  0.0565 -0.1479 -0.6074
19462TIP3    H279802   4.007   1.516   5.059  0.3231  0.4562  2.8992
19463TIP3   OH279803   6.168   2.416  13.405 -0.1477  0.2863  0.0913
19463TIP3    H179804   6.107   2.343  13.414 -0.7226  0.8814  1.1073
19463TIP3    H279805   6.217   2.396  13.325 -0.3383 -1.1795  0.3160
19464TIP3   OH279806   0.378   4.158  11.995 -0.0037  0.3602  0.5545
19464TIP3    H179807   0.422   4.213  12.060 -0.1473  0.6151  0.4421
19464TIP3    H279808   0.319   4.103  12.046  1.6760 -1.2446  0.8996
19465TIP3   OH279809   1.834   5.168  15.259  0.0202 -0.7788 -0.1918
19465TIP3    H179810   1.756   5.120  15.287  0.5449 -0.9191  1.0987
19465TIP3    H279811   1.866   5.120  15.182 -0.5948 -1.3030 -0.1233
19466TIP3   OH279812   3.917   4.096   4.606 -0.1736 -0.0832  0.5047
19466TIP3    H179813   3.990   4.098   4.545  0.9550  0.5481  1.7972
19466TIP3    H279814   3.842   4.128   4.556  0.8196  0.8821 -0.4121
19467TIP3   OH279815   6.098   0.222  14.453 -0.7421 -0.0052 -0.7402
19467TIP3    H179816   6.139   0.179  14.528  0.7885  1.3810 -0.7294
19467TIP3    H279817   6.004   0.206  14.465 -0.5530  0.2495  1.5328
19468TIP3   OH279818   3.655   2.157  13.742  0.0453  0.1022 -0.5836
19468TIP3    H179819   3.634   2.239  13.696 -1.0152 -0.5941 -1.3710
19468TIP3    H279820   3.673   2.185  13.832  0.4009  1.2800 -0.9986
19469TIP3   OH279821   3.223   1.739  13.755 -0.2386  0.5976 -0.0844
19469TIP3    H179822   3.150   1.785  13.797 -1.6709 -0.9127 -0.7864
19469TIP3    H279823   3.250   1.673  13.820  0.3616  1.0037  0.0851
19470TIP3   OH279824   5.291   3.118   4.742 -0.3376  0.0264 -0.1445
19470TIP3    H179825   5.361   3.122   4.807 -0.1849 -2.7717  0.0136
19470TIP3    H279826   5.333   3.141   4.659  0.2353  0.5021  0.2741
19471TIP3   OH279827   5.575   6.014   3.984  0.3000 -0.0640  0.3420
19471TIP3    H179828   5.609   5.932   3.947 -0.7561  0.7397 -2.7552
19471TIP3    H279829   5.485   5.993   4.009 -0.3815  0.3523 -1.5889
19472TIP3   OH279830   1.162   5.813  15.968  0.4767 -0.3107 -0.3142
19472TIP3    H179831   1.166   5.729  16.015  2.2774 -0.1366 -0.0681
19472TIP3    H279832   1.114   5.871  16.027  0.4321 -0.7934  0.1357
19473TIP3   OH279833   2.741   2.646   4.486  0.7530  0.3120  0.0879
19473TIP3    H179834   2.669   2.586   4.507  0.0396  1.0233 -0.2940
19473TIP3    H279835   2.779   2.669   4.571 -1.9240  2.9457  0.7129
19474TIP3   OH279836   1.438   2.018  11.450  0.3630 -0.5883 -0.1122
19474TIP3    H179837   1.471   2.007  11.361 -0.6640 -0.2030 -0.5546
19474TIP3    H279838   1.457   1.934  11.493  1.2301 -0.6325 -0.5675
19475TIP3   OH279839   2.362   2.573   2.461 -0.2932 -0.7283  0.2191
19475TIP3    H179840   2.389   2.500   2.406 -0.0438 -1.4136  1.2260
19475TIP3    H279841   2.374   2.542   2.551  0.2750  0.6956  0.6798
19476TIP3   OH279842   5.828   5.865   5.126  0.1629 -0.2778  0.2963
19476TIP3    H179843   5.817   5.868   5.031  0.0763  1.7072  0.3128
19476TIP3    H279844   5.911   5.912   5.141 -0.2221  0.1189  1.2339
19477TIP3   OH279845   1.545   3.371   6.414  0.3417  0.6278  0.6405
19477TIP3    H179846   1.453   3.389   6.393  1.2526  2.3467 -2.3943
19477TIP3    H279847   1.579   3.454   6.447  1.4157  0.7901 -0.8094
19478TIP3   OH279848   4.372   1.935   4.962  0.2317 -0.3659  0.2765
19478TIP3    H179849   4.297   1.979   4.924 -0.1771  0.5128  1.9886
19478TIP3    H279850   4.407   1.997   5.025  1.7435 -1.1857  0.2837
19479TIP3   OH279851   5.698   4.758   2.561  0.0272  0.3503  0.1702
19479TIP3    H179852   5.686   4.731   2.470  0.2628  0.9539 -0.0406
19479TIP3    H279853   5.640   4.833   2.572 -0.9495 -0.4714  0.8790
19480TIP3   OH279854   5.033   6.133   0.302  0.4930  0.0397 -0.4186
19480TIP3    H179855   4.979   6.197   0.256  1.5427  0.0576 -1.6712
19480TIP3    H279856   5.042   6.168   0.390  0.5786  1.3389 -0.9319
19481TIP3   OH279857   6.513   2.620   2.232 -0.5284  0.4401 -0.3676
19481TIP3    H179858   6.460   2.691   2.197  0.1191  1.8687  1.3591
19481TIP3    H279859   6.491   2.617   2.325  0.6400 -0.5376 -0.0919
19482TIP3   OH279860   5.237   3.950   0.883 -0.0852  0.0678  0.1011
19482TIP3    H179861   5.323   3.911   0.897  0.5172  1.0365 -0.7095
19482TIP3    H279862   5.254   4.044   0.877 -1.0601  0.2045 -1.0456
19483TIP3   OH279863   0.487   6.444   2.029  0.0876 -0.1467  0.6700
19483TIP3    H179864   0.528   6.501   2.094  0.1774 -0.3176  0.7617
19483TIP3    H279865   0.470   6.502   1.954 -0.2351  0.1058  0.9328
19484TIP3   OH279866   1.057   3.600  13.431 -0.0456  0.2414 -0.3276
19484TIP3    H179867   1.033   3.625  13.342  1.8395  0.1178 -0.9297
19484TIP3    H279868   1.052   3.681  13.482  0.1495  0.5940 -0.8634
19485TIP3   OH279869   3.751   1.422   3.221 -0.7355 -0.3703  0.0731
19485TIP3    H179870   3.811   1.383   3.285 -1.3834  0.9259  1.5244
19485TIP3    H279871   3.722   1.348   3.168  0.2475 -1.4045  0.9219
19486TIP3   OH279872   3.899   5.064   0.759  0.7298  0.1125 -0.0350
19486TIP3    H179873   3.988   5.078   0.793 -0.2329  0.3589  2.5519
19486TIP3    H279874   3.856   5.009   0.824 -1.6750  1.7838 -0.0547
19487TIP3   OH279875   2.574   3.112  11.154  0.7003 -0.4409 -0.0044
19487TIP3    H179876   2.488   3.139  11.187  0.9962  1.3005 -0.5473
19487TIP3    H279877   2.612   3.193  11.119  2.8944 -1.0068  0.9387
19488TIP3   OH279878   1.402   0.122  11.256 -0.0368  0.1423 -0.7331
19488TIP3    H179879   1.415   0.093  11.347  0.3628 -1.0140 -1.1346
19488TIP3    H279880   1.465   0.070  11.206 -1.5786 -0.6736 -1.9193
19489TIP3   OH279881   4.406   6.108  14.658  0.4506  0.5572 -0.0009
19489TIP3    H179882   4.484   6.052  14.654  0.3443  0.3460  0.7198
19489TIP3    H279883   4.437   6.188  14.701  0.1711  0.2772  0.7501
19490TIP3   OH279884   1.488   4.172   3.889  0.7149 -0.2346 -0.1932
19490TIP3    H179885   1.426   4.245   3.891  1.1473  0.1554 -0.5615
19490TIP3    H279886   1.559   4.199   3.948 -0.1189 -1.3011  1.3593
19491TIP3   OH279887   1.197   2.219   3.513  0.0569 -0.3074 -0.0395
19491TIP3    H179888   1.151   2.303   3.504 -0.7152 -0.6107  0.9021
19491TIP3    H279889   1.280   2.242   3.556  0.4685  0.1448 -1.0537
19492TIP3   OH279890   4.901   3.704   0.479  0.3828  0.3908 -0.7749
19492TIP3    H179891   4.830   3.656   0.521  0.0092  2.0965  0.6617
19492TIP3    H279892   4.870   3.721   0.391  0.8951 -2.6737 -1.6634
19493TIP3   OH279893   4.536   0.618  15.672  0.4179 -0.0666 -0.1327
19493TIP3    H179894   4.630   0.597  15.675  0.5758  0.7212  1.8113
19493TIP3    H279895   4.513   0.638  15.762 -1.3374  1.0689 -0.7804
19494TIP3   OH279896   6.183   3.464  12.898 -0.4913 -0.1629  0.3155
19494TIP3    H179897   6.243   3.475  12.972 -1.1723 -1.3646  1.0874
19494TIP3    H279898   6.208   3.533  12.836  1.0207 -0.0105  1.0414
19495TIP3   OH279899   6.458   5.939   3.312 -0.1194  0.4796  0.5343
19495TIP3    H179900   6.407   5.920   3.391  1.9436 -1.5880  1.4812
19495TIP3    H279901   6.514   6.012   3.338  1.6829 -1.2021  1.6149
19496TIP3   OH279902   1.562   5.282  16.765 -0.0888  0.6196  0.0185
19496TIP3    H179903   1.504   5.245  16.833 -0.3153  0.3896 -0.2970
19496TIP3    H279904   1.630   5.216  16.753 -0.4134  0.3586 -0.4438
19497TIP3   OH279905   1.151   5.045  15.097 -0.0521  0.3313 -0.4218
19497TIP3    H179906   1.096   5.052  15.174  1.9079 -0.8011  1.1768
19497TIP3    H279907   1.190   4.958  15.103  1.7647  1.0101 -1.5650
19498TIP3   OH279908   3.064   5.413  13.293 -0.3543  0.4386 -0.1274
19498TIP3    H179909   2.977   5.441  13.319 -0.0802 -0.3918  1.7956
19498TIP3    H279910   3.120   5.434  13.368  0.5539 -1.6840 -0.1438
19499TIP3   OH279911   0.326   3.382  11.172 -0.1605  0.1129  0.0972
19499TIP3    H179912   0.255   3.437  11.140 -0.2196  0.8717  1.4628
19499TIP3    H279913   0.397   3.397  11.110 -0.9513 -0.1050 -0.8762
19500TIP3   OH279914   6.744   2.289   2.224  0.2786  0.2654 -0.1920
19500TIP3    H179915   6.813   2.267   2.287 -0.6008 -1.7624  0.1399
19500TIP3    H279916   6.662   2.278   2.272 -0.3407  2.0650 -0.7529
19501TIP3   OH279917   3.936   3.880  15.647  0.2282 -0.1870 -0.0166
19501TIP3    H179918   4.026   3.904  15.625  0.6315 -1.8251 -0.2408
19501TIP3    H279919   3.943   3.830  15.728 -0.6715  0.9854  0.8205
19502TIP3   OH279920   3.788   4.826  11.362  0.0019 -0.5776  0.0530
19502TIP3    H179921   3.811   4.916  11.387 -1.8802  0.1322 -0.5672
19502TIP3    H279922   3.814   4.773  11.436 -2.3294  1.0056  2.1867
19503TIP3   OH279923   5.004   0.493   1.384  0.5323  0.2312 -0.0986
19503TIP3    H179924   5.058   0.420   1.352 -0.9578 -0.9038 -0.1624
19503TIP3    H279925   4.988   0.472   1.476  0.4221  0.6891 -0.0127
19504TIP3   OH279926   4.646   6.600   5.012  0.1554  0.5251 -0.2626
19504TIP3    H179927   4.708   6.670   5.033  0.5676  0.2749 -0.6240
19504TIP3    H279928   4.655   6.589   4.917 -0.1274  0.1865 -0.2493
19505TIP3   OH279929   1.838   1.026  14.121 -0.1268 -0.8809  0.1179
19505TIP3    H179930   1.780   1.102  14.110  1.2473  0.1807  0.0239
19505TIP3    H279931   1.801   0.960  14.063 -0.8826 -0.0114 -0.4236
19506TIP3   OH279932   2.217   1.175  13.561 -0.2389 -0.2740  0.0158
19506TIP3    H179933   2.142   1.202  13.507  0.5376 -0.2766 -1.0903
19506TIP3    H279934   2.260   1.257  13.585  0.1450 -0.3367 -0.4471
19507TIP3   OH279935   5.581   6.639   5.552  0.3403 -0.0247 -1.0397
19507TIP3    H179936   5.576   6.666   5.460  0.1099  1.9161 -0.5014
19507TIP3    H279937   5.674   6.643   5.573  0.2027  2.4692 -0.4627
19508TIP3   OH279938   1.440   0.323   1.905  0.0094 -0.4399  0.0279
19508TIP3    H179939   1.432   0.273   1.824  0.1908 -1.2891  0.5251
19508TIP3    H279940   1.403   0.409   1.884 -0.1948 -0.7414 -0.8717
19509TIP3   OH279941   5.926   6.197  16.102  0.1703 -0.4953 -0.6271
19509TIP3    H179942   5.896   6.163  16.018  0.8658 -1.3489 -0.5474
19509TIP3    H279943   6.019   6.173  16.105  0.6724  1.2946 -0.4923
19510TIP3   OH279944   1.699   2.114   5.712  0.2406  0.4446  0.5151
19510TIP3    H179945   1.652   2.144   5.789  0.1684  0.9646  0.2756
19510TIP3    H279946   1.691   2.019   5.713  0.9087  0.3903  1.5779
19511TIP3   OH279947   0.312   5.032  10.242  0.3217  0.8138  0.7316
19511TIP3    H179948   0.358   5.046  10.158 -0.2768  2.5203  0.6674
19511TIP3    H279949   0.301   4.937  10.246 -1.2411  0.7553 -2.0209
19512TIP3   OH279950   4.477   5.425  15.423 -0.5863  0.5676 -0.5768
19512TIP3    H179951   4.515   5.510  15.445 -0.8751  0.3697  0.7947
19512TIP3    H279952   4.450   5.434  15.332  0.0798  1.6844 -0.6886
19513TIP3   OH279953   6.014   1.297   0.255 -0.1968 -0.0802  1.1654
19513TIP3    H179954   5.953   1.294   0.329  0.0674 -0.5021  1.3776
19513TIP3    H279955   6.020   1.205   0.227 -0.9728  0.1950  0.0489
19514TIP3   OH279956   3.616   6.264   0.746  0.3386 -0.8850  0.1530
19514TIP3    H179957   3.583   6.197   0.805  0.2135 -2.2651 -1.4056
19514TIP3    H279958   3.538   6.312   0.718  0.6619  1.9038  3.4131
19515TIP3   OH279959   3.705   1.188   0.136 -0.3742 -0.2630  0.2782
19515TIP3    H179960   3.674   1.255   0.197 -0.3816  0.4851 -0.5195
19515TIP3    H279961   3.684   1.223   0.050  0.4937 -0.8574 -0.1896
19516TIP3   OH279962   3.961   5.406  10.548  0.9254  0.3391  0.0362
19516TIP3    H179963   3.987   5.315  10.557  0.3145  0.0609 -0.9448
19516TIP3    H279964   3.875   5.411  10.591  0.9662  0.4653  0.1066
19517TIP3   OH279965   2.531   2.050  15.815 -0.0573 -0.6262  0.0021
19517TIP3    H179966   2.552   2.024  15.905  1.1562 -0.2495 -0.1532
19517TIP3    H279967   2.614   2.044  15.768 -0.2750  0.9006 -0.6602
19518TIP3   OH279968   5.501   2.201   1.164  0.3183  0.5876  0.2215
19518TIP3    H179969   5.584   2.159   1.143  1.3286  1.1074  2.7203
19518TIP3    H279970   5.473   2.159   1.245 -1.3988  1.0565 -0.0859
19519TIP3   OH279971   4.416   3.946  15.247 -0.4090  0.2458 -0.3652
19519TIP3    H179972   4.438   3.934  15.154 -0.4722  0.8738 -0.4619
19519TIP3    H279973   4.369   4.029  15.250 -0.5092  0.1674  0.2151
19520TIP3   OH279974   1.190   5.124   6.064 -0.8700  0.5107  0.5915
19520TIP3    H179975   1.191   5.106   6.158 -1.2462 -1.1926  0.3075
19520TIP3    H279976   1.134   5.056   6.028 -1.2075  1.5002 -0.8138
19521TIP3   OH279977   0.268   1.717  13.427  0.1266 -0.0579 -0.0502
19521TIP3    H179978   0.218   1.709  13.509  0.0920  0.2558 -0.0364
19521TIP3    H279979   0.232   1.648  13.370  0.3857 -0.4975  0.3147
19522TIP3   OH279980   1.186   3.635  15.988  0.2718  0.0058  0.1333
19522TIP3    H179981   1.143   3.670  16.065  1.6017  0.9506  0.4945
19522TIP3    H279982   1.240   3.708  15.955 -0.4576 -0.2770 -1.8506
19523TIP3   OH279983   5.651   4.028   0.804 -0.6363  0.3327 -0.1069
19523TIP3    H179984   5.745   4.040   0.799 -0.7327  0.6489 -3.7700
19523TIP3    H279985   5.637   3.935   0.785 -1.0693  0.0438  1.4689
19524TIP3   OH279986   6.688   4.311   3.908 -0.2553 -0.0677  0.6742
19524TIP3    H179987   6.606   4.355   3.885  0.3688  0.2523 -1.1321
19524TIP3    H279988   6.662   4.240   3.966 -2.0837 -1.0880 -1.2580
19525TIP3   OH279989   6.555   1.663   2.178 -0.2825 -0.2791  0.2765
19525TIP3    H179990   6.587   1.716   2.251  2.6211  0.3544 -1.3247
19525TIP3    H279991   6.615   1.589   2.173 -0.6567 -0.5151 -1.2152
19526TIP3   OH279992   3.816   1.429  16.801  0.0422 -0.0797 -0.0102
19526TIP3    H179993   3.794   1.404  16.711  2.4777  0.8189 -0.9382
19526TIP3    H279994   3.854   1.350  16.839 -1.3967 -0.5924  0.4200
19527TIP3   OH279995   1.938   0.502  13.995  0.6424 -0.3492 -0.7293
19527TIP3    H179996   2.003   0.459  14.050  1.0616  0.9704 -0.1447
19527TIP3    H279997   1.949   0.595  14.013 -0.7884 -0.0298 -1.3209
19528TIP3   OH279998   4.657   0.060   1.560  0.8072 -0.5445  0.1240
19528TIP3    H179999   4.701   0.076   1.476  1.6291 -1.9642  0.2470
19528TIP3    H280000   4.601  -0.016   1.543 -0.6648  0.4684  0.3127
19529TIP3   OH280001   5.274   1.285  16.412  0.2770  0.0998 -0.0466
19529TIP3    H180002   5.323   1.209  16.442 -0.7471 -0.4273  0.3501
19529TIP3    H280003   5.315   1.360  16.455  0.0254 -0.4450  1.1702
19530TIP3   OH280004   6.274   0.864  12.086  0.2192 -0.3107  0.1394
19530TIP3    H180005   6.221   0.787  12.106  0.7351 -0.4488  1.0563
19530TIP3    H280006   6.210   0.933  12.068 -0.2556 -0.7106  0.2783
19531TIP3   OH280007   3.802   2.110  11.514 -0.0227  0.0522  0.5355
19531TIP3    H180008   3.706   2.109  11.517 -0.0487 -1.6728 -0.0353
19531TIP3    H280009   3.826   2.024  11.480  1.6329  1.5956 -2.6076
19532TIP3   OH280010   0.659   6.057  11.809 -0.3033  0.0717  0.1773
19532TIP3    H180011   0.682   6.007  11.731 -1.6720 -1.3130  0.6252
19532TIP3    H280012   0.566   6.079  11.798 -0.4701  0.0292  1.3199
19533TIP3   OH280013   2.993   1.744   2.617  0.3172 -0.0452  0.3426
19533TIP3    H180014   2.955   1.813   2.671  0.7134  0.6439 -0.2385
19533TIP3    H280015   2.922   1.715   2.561 -0.0537 -0.6534  1.1196
19534TIP3   OH280016   4.068   3.296  14.529  0.0122  0.2087 -0.4306
19534TIP3    H180017   4.095   3.328  14.443 -0.8034  0.8983 -0.4522
19534TIP3    H280018   4.039   3.206  14.513  0.9433 -0.0654 -0.6524
19535TIP3   OH280019   5.164   2.460  15.759 -0.2516 -0.0440  0.7511
19535TIP3    H180020   5.169   2.457  15.854  0.1774  1.9446  0.8433
19535TIP3    H280021   5.224   2.392  15.729  1.8900  1.2128  1.9331
19536TIP3   OH280022   1.932   6.319  13.548 -0.0887 -0.5527 -0.2963
19536TIP3    H180023   1.960   6.275  13.467  2.2707  0.7066 -0.2364
19536TIP3    H280024   1.910   6.408  13.520 -2.1269 -0.8989  0.0389
19537TIP3   OH280025   0.190   1.276   4.705 -0.0858 -0.1123  0.2624
19537TIP3    H180026   0.262   1.290   4.644 -1.1913  0.7588 -0.9060
19537TIP3    H280027   0.193   1.352   4.763 -0.6140  0.4028 -0.3744
19538TIP3   OH280028   4.966   4.072  12.959 -0.0845 -0.3528 -0.1687
19538TIP3    H180029   4.942   3.994  12.911 -0.5222 -1.6689  2.0415
19538TIP3    H280030   5.040   4.109  12.910 -0.7890 -1.3235 -2.0357
19539TIP3   OH280031   6.223   6.478   3.700  0.0686  0.5563  0.0588
19539TIP3    H180032   6.159   6.438   3.641 -1.2381  0.5929  1.3987
19539TIP3    H280033   6.230   6.415   3.772 -0.7812  1.9583  1.4054
19540TIP3   OH280034   3.659   6.413   1.176  0.5831  0.3211 -0.3835
19540TIP3    H180035   3.745   6.400   1.216  0.1655  2.0582  1.2168
19540TIP3    H280036   3.609   6.462   1.242 -2.3635 -2.3966 -0.3628
19541TIP3   OH280037   0.687   5.434  15.439 -0.1874  0.1637 -0.0470
19541TIP3    H180038   0.700   5.342  15.465 -1.8002 -0.1993 -0.4158
19541TIP3    H280039   0.770   5.476  15.461  0.2248 -1.1535  1.1452
19542TIP3   OH280040   1.860   4.308   3.485  0.2645  0.3506  0.4317
19542TIP3    H180041   1.854   4.220   3.522 -0.2783  0.5440  0.8138
19542TIP3    H280042   1.769   4.335   3.472  0.4208  0.9908  0.6391
19543TIP3   OH280043   4.222   6.272  15.049  0.6448 -0.2495 -0.3880
19543TIP3    H180044   4.300   6.248  15.099 -0.0887 -0.0733  0.9053
19543TIP3    H280045   4.167   6.193  15.051 -0.1925  0.3228  0.7291
19544TIP3   OH280046   0.862   3.306  17.016 -0.3214 -0.4536  0.4545
19544TIP3    H180047   0.830   3.224  16.977  0.3829 -1.2123  1.4035
19544TIP3    H280048   0.821   3.308  17.102 -0.6123  0.3844  0.2967
19545TIP3   OH280049   1.434   1.602   0.347  0.0433 -0.1592 -0.0914
19545TIP3    H180050   1.431   1.648   0.263  0.0979 -0.3972 -0.2224
19545TIP3    H280051   1.402   1.667   0.410  0.3739  0.1506 -0.2373
19546TIP3   OH280052   3.257   2.057  17.103  0.0497 -0.4573  0.2201
19546TIP3    H180053   3.348   2.036  17.123  1.2160  2.3849 -1.4993
19546TIP3    H280054   3.229   1.987  17.044  1.7805 -0.4277 -0.7086
19547TIP3   OH280055   2.367   1.609  10.745 -0.8246  0.0989  0.2969
19547TIP3    H180056   2.389   1.519  10.769 -1.1324  0.4652  2.1362
19547TIP3    H280057   2.387   1.615  10.652  1.9463 -1.0447  0.7272
19548TIP3   OH280058   3.539   0.863   2.065 -0.4314 -0.0130  0.3145
19548TIP3    H180059   3.571   0.922   2.133 -0.5185 -0.2020  0.5207
19548TIP3    H280060   3.615   0.812   2.038 -0.6153 -0.6639  1.0087
19549TIP3   OH280061   0.661   1.653   6.507 -0.2541 -0.0735 -0.2757
19549TIP3    H180062   0.655   1.596   6.431 -1.1246  0.4212 -0.5888
19549TIP3    H280063   0.625   1.601   6.579 -0.3961 -0.1701 -0.4180
19550TIP3   OH280064   5.391   0.976  11.920 -0.2837 -0.3645  0.1221
19550TIP3    H180065   5.299   1.001  11.933 -0.2709 -0.0901 -0.3110
19550TIP3    H280066   5.391   0.931  11.835 -0.1610 -1.0985  0.5050
19551TIP3   OH280067   4.826   2.774   3.993  0.7080  0.1516 -0.4776
19551TIP3    H180068   4.875   2.845   3.952  0.2132  1.5295  1.1764
19551TIP3    H280069   4.752   2.818   4.034  1.3265 -1.0567  2.1071
19552TIP3   OH280070   2.195   1.999   6.378 -0.0540 -0.2404 -0.5073
19552TIP3    H180071   2.147   1.925   6.341  2.0859 -2.3774  0.6883
19552TIP3    H280072   2.286   1.968   6.382  0.4702  1.3842  2.6663
19553TIP3   OH280073   5.182   5.842   5.797  1.0915  0.5917 -1.0713
19553TIP3    H180074   5.172   5.748   5.807 -0.5786  0.9217  1.1859
19553TIP3    H280075   5.277   5.857   5.803  1.3949 -0.9315 -1.6722
19554TIP3   OH280076   1.406   0.229   2.888 -0.0556 -0.2756  0.0250
19554TIP3    H180077   1.319   0.255   2.919  0.0213  0.9788 -0.7442
19554TIP3    H280078   1.391   0.189   2.803  0.1559  0.4594 -0.3681
19555TIP3   OH280079   4.292   5.694   3.338  0.2606 -0.2652  0.2448
19555TIP3    H180080   4.230   5.706   3.411  1.1392 -0.0966  0.9762
19555TIP3    H280081   4.295   5.599   3.326  1.4773 -0.4335  1.6563
19556TIP3   OH280082   4.287   0.784  11.149  0.0792  0.0744  0.8303
19556TIP3    H180083   4.362   0.725  11.155 -1.0095 -1.2483  1.8890
19556TIP3    H280084   4.279   0.802  11.055  2.6336  1.5328  0.7934
19557TIP3   OH280085   3.982   1.528   5.711 -0.3469  0.1026 -0.0845
19557TIP3    H180086   3.984   1.540   5.616 -1.3081 -1.7956 -0.3865
19557TIP3    H280087   3.958   1.436   5.723 -2.8189  0.9015  2.0175
19558TIP3   OH280088   5.306   2.816   4.444 -0.2073  0.0813  0.1560
19558TIP3    H180089   5.338   2.876   4.377  2.0335  0.4748  1.4656
19558TIP3    H280090   5.316   2.729   4.405 -1.5154  0.4076 -0.9821
19559TIP3   OH280091   6.804   0.398   2.925  0.2679  0.6438 -0.2096
19559TIP3    H180092   6.846   0.477   2.959 -0.2014  0.5677  0.5816
19559TIP3    H280093   6.751   0.366   2.998  0.2277 -0.2445 -0.6125
19560TIP3   OH280094   4.754   4.009  11.745  0.2258 -0.5638  0.1897
19560TIP3    H180095   4.777   4.029  11.655  0.8183  0.8550  0.6292
19560TIP3    H280096   4.825   4.046  11.797  0.4636 -2.3367  1.1971
19561TIP3   OH280097   2.792   3.079  12.537  0.0846 -0.1670 -0.1785
19561TIP3    H180098   2.776   3.173  12.538 -0.3353 -0.2187  1.7930
19561TIP3    H280099   2.878   3.069  12.496  0.4112  1.1342  0.1611
19562TIP3   OH280100   4.961   6.443  12.465  0.3090 -0.1337  0.5198
19562TIP3    H180101   4.889   6.507  12.463 -0.7849 -1.3486 -0.1643
19562TIP3    H280102   4.983   6.429  12.373  1.0412 -0.2008  0.7018
19563TIP3   OH280103   2.439   3.551  12.608  0.0335 -0.1239  0.3263
19563TIP3    H180104   2.385   3.618  12.566  1.3546  0.3497 -0.6917
19563TIP3    H280105   2.410   3.550  12.700 -1.1793  0.6133 -0.0336
19564TIP3   OH280106   2.103   1.013   2.190 -0.4155  0.4566 -0.2727
19564TIP3    H180107   2.043   1.087   2.187 -1.1732 -0.1680 -1.1610
19564TIP3    H280108   2.189   1.052   2.207 -1.3000  1.2193  3.0752
19565TIP3   OH280109   1.809   6.632  15.214 -0.3752 -0.7331 -0.0196
19565TIP3    H180110   1.872   6.561  15.201 -2.2912 -2.6049  0.4323
19565TIP3    H280111   1.814   6.652  15.307  0.6404  0.2637 -0.2579
19566TIP3   OH280112   2.679   4.361  16.781 -0.1079 -0.3967  0.4691
19566TIP3    H180113   2.601   4.308  16.796 -1.5227  1.3083 -0.4629
19566TIP3    H280114   2.750   4.297  16.770 -1.4343 -2.0122  0.8968
19567TIP3   OH280115   2.037   1.783   6.175  0.3570 -0.2502  0.4448
19567TIP3    H180116   1.959   1.812   6.223  0.6022  0.6963  0.2927
19567TIP3    H280117   2.015   1.801   6.083  1.0465  0.7579  0.4642
19568TIP3   OH280118   6.057   6.432  14.402  0.0573 -0.8591 -0.1625
19568TIP3    H180119   6.151   6.439  14.384 -0.0331  0.6737 -0.2038
19568TIP3    H280120   6.040   6.503  14.464 -0.2392 -3.9146  3.6135
19569TIP3   OH280121   1.369   3.677   2.819  0.3219  0.4211 -0.0562
19569TIP3    H180122   1.389   3.584   2.832  1.1880  0.6217  0.1256
19569TIP3    H280123   1.274   3.683   2.830  0.1728 -0.5415 -0.7276
19570TIP3   OH280124   6.008   2.847   5.034  0.2383  0.6284  0.0344
19570TIP3    H180125   5.950   2.889   5.097  0.2518 -0.0717  0.5177
19570TIP3    H280126   6.069   2.917   5.008 -0.8838  1.4037 -0.5834
19571TIP3   OH280127   6.338   2.116  13.401  0.4204 -0.6984  0.0692
19571TIP3    H180128   6.243   2.111  13.417  0.3549  0.7875  0.2827
19571TIP3    H280129   6.372   2.168  13.474  1.0768  0.6081 -1.1203
19572TIP3   OH280130   1.187   6.488  11.493  0.2958  0.0530  0.3345
19572TIP3    H180131   1.218   6.398  11.493 -1.3799 -0.5502  0.4021
19572TIP3    H280132   1.120   6.491  11.424  0.2605  1.2271  0.3889
19573TIP3   OH280133   3.660   6.387   5.263  0.1049  0.2082 -0.1931
19573TIP3    H180134   3.605   6.336   5.323 -1.2346  0.2125 -1.3764
19573TIP3    H280135   3.609   6.466   5.245  0.5993  0.3282 -1.1107
19574TIP3   OH280136   0.679   4.457  14.147 -0.4875  0.6506 -0.6328
19574TIP3    H180137   0.616   4.442  14.075  1.4789 -0.4140 -2.2329
19574TIP3    H280138   0.660   4.388  14.210 -1.3413  0.7674 -0.7411
19575TIP3   OH280139   2.516   3.397   4.703  0.2555 -0.0394  0.8887
19575TIP3    H180140   2.439   3.353   4.667  0.4178  0.8326 -0.5854
19575TIP3    H280141   2.516   3.372   4.795 -0.2419 -2.2594  0.3395
19576TIP3   OH280142   6.640   3.556   5.002  0.2477  0.5379  0.0962
19576TIP3    H180143   6.631   3.650   5.020 -0.0175  0.1871  1.9856
19576TIP3    H280144   6.727   3.546   4.965  0.9529  1.3346  1.4813
19577TIP3   OH280145   2.428   2.451  14.034 -0.5853 -0.8352  0.1388
19577TIP3    H180146   2.496   2.409  13.983 -0.6478  1.2124 -1.7744
19577TIP3    H280147   2.461   2.449  14.124  1.4057 -1.0127 -0.5540
19578TIP3   OH280148   4.281   0.330   3.679 -0.6390 -0.4610 -0.2416
19578TIP3    H180149   4.372   0.349   3.657  0.3043 -1.7467  2.1629
19578TIP3    H280150   4.258   0.256   3.622 -0.0851 -0.3528 -0.6182
19579TIP3   OH280151   5.379   3.307   5.374 -0.2737  0.0681  0.0725
19579TIP3    H180152   5.375   3.255   5.295  2.4433  0.3833 -0.3520
19579TIP3    H280153   5.355   3.247   5.444 -1.7509 -0.4635 -0.8535
19580TIP3   OH280154   1.981   0.708   0.176  0.1264 -0.6312  0.0558
19580TIP3    H180155   1.980   0.772   0.105  0.2821 -0.4129  0.2471
19580TIP3    H280156   2.039   0.639   0.145  0.9107 -0.1178  0.3258
19581TIP3   OH280157   5.925   6.211   0.575  0.0449 -0.3402 -0.7369
19581TIP3    H180158   5.959   6.123   0.559  0.4304 -0.4998  0.7827
19581TIP3    H280159   5.830   6.200   0.576  0.0500 -0.5329 -1.5720
19582TIP3   OH280160   4.078   2.070   2.714 -0.1900  0.1577 -0.6688
19582TIP3    H180161   4.009   2.006   2.698 -0.4246  0.6198 -1.5863
19582TIP3    H280162   4.154   2.018   2.741 -0.5086 -0.4619 -0.9602
19583TIP3   OH280163   0.473   5.805  14.426  0.1473 -0.5997 -0.6284
19583TIP3    H180164   0.435   5.890  14.405 -2.3619 -1.9703 -1.9898
19583TIP3    H280165   0.560   5.807  14.386 -0.8333  0.4357 -2.8520
19584TIP3   OH280166   3.447   2.725   2.898 -0.4058 -0.0982  0.0319
19584TIP3    H180167   3.495   2.714   2.815 -0.2550  0.5315  0.0253
19584TIP3    H280168   3.516   2.744   2.962 -0.3963 -1.7378  0.5593
19585TIP3   OH280169   4.294   1.649   2.130 -0.5035  0.2607 -0.5316
19585TIP3    H180170   4.219   1.599   2.097 -0.7493  0.4545 -0.2668
19585TIP3    H280171   4.352   1.582   2.167 -0.7219  0.1459 -0.3938
19586TIP3   OH280172   3.628   3.332   3.261 -0.2753  0.1122  0.4649
19586TIP3    H180173   3.701   3.328   3.199  0.3721 -2.2705  1.2682
19586TIP3    H280174   3.577   3.408   3.234  2.1212  1.4610 -0.5471
19587TIP3   OH280175   4.729   0.015  15.097  0.3835  0.2140  0.0693
19587TIP3    H180176   4.639  -0.013  15.113  0.1417  1.6839  1.5098
19587TIP3    H280177   4.781  -0.064  15.111 -0.6980 -0.7929 -1.3379
19588TIP3   OH280178   4.313   2.990  11.200  0.0930  0.5839  0.1084
19588TIP3    H180179   4.356   2.915  11.240  0.2798  1.3742  1.4476
19588TIP3    H280180   4.379   3.026  11.141  1.0976  1.3741  1.6266
19589TIP3   OH280181   4.900   3.041  13.616 -0.5375  0.2583 -0.0100
19589TIP3    H180182   4.807   3.018  13.624 -0.3405 -0.1456  1.4118
19589TIP3    H280183   4.931   3.046  13.707  0.7623  0.6727 -0.4624
19590TIP3   OH280184   3.409   4.111  16.268 -0.2020  0.2855 -0.3446
19590TIP3    H180185   3.378   4.085  16.355 -0.1938  2.2405  0.2786
19590TIP3    H280186   3.487   4.057  16.253 -0.6997 -0.7017  0.4596
19591TIP3   OH280187   4.852   2.397  14.253 -0.1551 -0.3506 -0.0941
19591TIP3    H180188   4.759   2.420  14.245  0.9494  5.1072 -1.4553
19591TIP3    H280189   4.885   2.402  14.163  2.0976  2.1306  0.7629
19592TIP3   OH280190   1.462   1.400  17.169 -0.0086 -0.0408 -0.0027
19592TIP3    H180191   1.543   1.408  17.119  0.3096 -0.0718  0.4990
19592TIP3    H280192   1.491   1.396  17.261 -0.3786 -2.7335  0.0701
19593TIP3   OH280193   5.217   2.950   0.552  0.3537 -0.1358  0.2481
19593TIP3    H180194   5.218   2.906   0.637 -0.8072 -2.0414 -0.6672
19593TIP3    H280195   5.163   2.895   0.497 -0.6965  2.1540 -1.1775
19594TIP3   OH280196   0.622   3.993   0.402  0.5268  0.1563 -0.1925
19594TIP3    H180197   0.610   4.030   0.490 -0.4494  0.7567 -0.5570
19594TIP3    H280198   0.533   3.975   0.372  0.9059 -1.0411 -0.6595
19595TIP3   OH280199   2.143   1.380  10.542  0.4775 -0.0732 -0.3446
19595TIP3    H180200   2.161   1.310  10.479  1.1529  0.8503 -1.1895
19595TIP3    H280201   2.164   1.461  10.496 -0.6475  0.7351  0.4898
19596TIP3   OH280202   1.326   5.014  11.721  0.2692  0.1459  0.4018
19596TIP3    H180203   1.415   4.997  11.689  0.6511  0.8605  1.0567
19596TIP3    H280204   1.270   4.999  11.645  1.1570  1.8694 -0.6322
19597TIP3   OH280205   1.307   4.439   5.236 -0.0066  0.1855 -0.2360
19597TIP3    H180206   1.362   4.429   5.158  0.2528  0.7352 -0.1226
19597TIP3    H280207   1.312   4.354   5.279 -1.5517 -0.7450 -1.7194
19598TIP3   OH280208   4.953   2.839   5.159  0.0534  0.1158  0.2610
19598TIP3    H180209   4.971   2.759   5.208  1.2613  0.3895  0.2716
19598TIP3    H280210   4.861   2.859   5.179  0.1933 -0.4112  1.4783
19599TIP3   OH280211   4.208   2.557  13.583  0.4112  0.1990 -0.0287
19599TIP3    H180212   4.186   2.573  13.675 -0.3602  0.4125 -0.2442
19599TIP3    H280213   4.152   2.617  13.534  1.2294  0.5032 -0.6208
19600TIP3   OH280214   6.331   4.016   0.018 -0.3067 -0.3439  0.1464
19600TIP3    H180215   6.245   4.058   0.018 -0.8481 -1.3716 -1.1698
19600TIP3    H280216   6.391   4.084  -0.011 -1.0345 -0.2013 -1.1177
19601TIP3   OH280217   4.353   6.289   4.137  0.1362  0.2708 -0.5461
19601TIP3    H180218   4.440   6.324   4.120  0.0845  0.7535  0.1490
19601TIP3    H280219   4.350   6.277   4.232  0.6667 -3.0092 -0.8254
19602TIP3   OH280220   3.932   3.290   3.526  0.2591 -0.0799 -0.4035
19602TIP3    H180221   3.889   3.353   3.468 -0.1940  1.0676  1.1120
19602TIP3    H280222   3.872   3.282   3.600  1.1416 -0.9767  0.2323
19603TIP3   OH280223   4.255   3.148  12.500 -0.3581 -0.0012  0.2657
19603TIP3    H180224   4.241   3.099  12.581 -1.6920  0.9849  0.6537
19603TIP3    H280225   4.311   3.221  12.525 -3.7211  2.4449  1.1984
19604TIP3   OH280226   1.095   2.900  13.931  0.4490 -0.6516 -0.0804
19604TIP3    H180227   1.044   2.843  13.988 -1.6224  0.9351 -0.2267
19604TIP3    H280228   1.081   2.865  13.843 -3.6117  1.7236 -0.6515
19605TIP3   OH280229   4.140   4.588  13.560  0.0742 -0.5572 -0.2076
19605TIP3    H180230   4.200   4.543  13.619  2.6156  2.4558 -0.2245
19605TIP3    H280231   4.088   4.644  13.616 -0.5880 -0.8908 -0.4790
19606TIP3   OH280232   4.779   1.438  12.506 -0.4017 -0.6671 -0.0446
19606TIP3    H180233   4.844   1.458  12.574 -0.7028 -0.9642  0.3300
19606TIP3    H280234   4.695   1.452  12.548 -0.5885 -0.4224 -0.4926
19607TIP3   OH280235   4.818   6.732  15.852  0.3602  0.5677  0.0892
19607TIP3    H180236   4.890   6.759  15.909 -0.1132  1.1729  0.4025
19607TIP3    H280237   4.861   6.683  15.781  0.8114 -1.8192  1.8747
19608TIP3   OH280238   5.107   3.217  13.326 -0.0347 -0.5309  0.6442
19608TIP3    H180239   5.026   3.242  13.371 -0.3328 -0.9477  0.3487
19608TIP3    H280240   5.150   3.300  13.307 -0.3845 -0.3052  0.8250
19609TIP3   OH280241   0.218   0.316   0.817 -0.3617 -0.5499  0.2601
19609TIP3    H180242   0.154   0.254   0.853 -1.0802  0.3156  0.5245
19609TIP3    H280243   0.166   0.394   0.796  0.4936 -0.0973 -0.2200
19610TIP3   OH280244   6.055   0.071   4.242  0.0771  0.5713 -0.1674
19610TIP3    H180245   6.021   0.152   4.280 -2.4685 -1.1452  1.5250
19610TIP3    H280246   5.990   0.046   4.177 -0.4395 -1.2582  0.9808
19611TIP3   OH280247   0.755   3.497  14.614  0.9564 -0.4070 -0.2296
19611TIP3    H180248   0.782   3.405  14.613  1.0513 -0.4584  2.1391
19611TIP3    H280249   0.834   3.545  14.639  1.0758  0.4446 -2.0473
19612TIP3   OH280250   0.407   2.331   3.073 -0.1783 -0.6870  0.0845
19612TIP3    H180251   0.426   2.244   3.039 -0.7310 -0.6474 -0.3371
19612TIP3    H280252   0.341   2.316   3.142 -0.6472 -0.5613 -0.3292
19613TIP3   OH280253   3.870   5.480   4.432 -0.0226  0.4162  0.0137
19613TIP3    H180254   3.827   5.499   4.515 -0.0430 -0.9014  0.3389
19613TIP3    H280255   3.911   5.562   4.406  4.2718 -0.0906  3.8536
19614TIP3   OH280256   3.685   0.480   2.065 -0.1386 -0.6839 -0.1464
19614TIP3    H180257   3.751   0.416   2.094 -0.0146 -0.5043 -0.0288
19614TIP3    H280258   3.647   0.441   1.986  1.3667  0.0186 -1.2785
19615TIP3   OH280259   5.483   2.425   0.160 -0.5717 -0.4869 -0.2544
19615TIP3    H180260   5.469   2.447   0.068 -1.2695 -0.2400 -0.0955
19615TIP3    H280261   5.395   2.413   0.196 -0.4655  1.7934  0.9710
19616TIP3   OH280262   2.075   2.910   5.449  0.3473  0.3062 -0.3521
19616TIP3    H180263   2.010   2.941   5.513 -0.5447 -0.0900 -1.0429
19616TIP3    H280264   2.153   2.961   5.468  0.7189 -1.0671  2.2758
19617TIP3   OH280265   0.737   4.515   4.341  0.5351  0.0585 -0.4848
19617TIP3    H180266   0.670   4.449   4.323  2.3145 -1.9071 -0.3511
19617TIP3    H280267   0.689   4.590   4.375 -1.4154 -2.5161  3.1433
19618TIP3   OH280268   5.520   4.744  12.701 -0.1311  0.0403 -0.1236
19618TIP3    H180269   5.470   4.810  12.747 -1.6560 -0.9806 -0.2440
19618TIP3    H280270   5.525   4.670  12.761  2.3258  0.5094  0.3709
19619TIP3   OH280271   0.612   6.728   0.641  0.2909  0.0763  0.0430
19619TIP3    H180272   0.579   6.818   0.643  1.0474  0.3521  1.0343
19619TIP3    H280273   0.707   6.737   0.635  0.5279 -0.5923  1.9948
19620TIP3   OH280274   5.138   0.938   0.337  0.5506 -0.2106 -0.0662
19620TIP3    H180275   5.224   0.898   0.323  0.0519 -1.5445  0.5488
19620TIP3    H280276   5.076   0.875   0.302 -0.2347  0.2146  0.5352
19621TIP3   OH280277   1.327   5.597   1.179 -0.1549  0.7448 -0.2744
19621TIP3    H180278   1.290   5.566   1.096 -0.0462  2.7774 -1.1327
19621TIP3    H280279   1.418   5.615   1.160 -0.1472  1.3070  0.2699
19622TIP3   OH280280   5.804   2.519   0.515  0.1006  0.2414 -0.5292
19622TIP3    H180281   5.769   2.580   0.580 -0.0212 -1.1576  0.7753
19622TIP3    H280282   5.750   2.533   0.437 -1.6069  0.0591  0.5667
19623TIP3   OH280283   0.412   5.490   1.310  0.0917 -0.2877 -0.1455
19623TIP3    H180284   0.345   5.493   1.378  1.0411  4.0190  0.8477
19623TIP3    H280285   0.495   5.487   1.357  0.8095  3.7338 -0.8408
19624TIP3   OH280286   1.458   5.586  16.116  0.3254 -0.1903 -0.2749
19624TIP3    H180287   1.505   5.668  16.109 -1.2919  0.6401 -2.5974
19624TIP3    H280288   1.526   5.520  16.129  1.6457  1.4588  1.7640
19625TIP3   OH280289   5.381   3.325  13.852  0.1436  0.3862 -0.6565
19625TIP3    H180290   5.438   3.248  13.854  1.9576  1.5799  3.0044
19625TIP3    H280291   5.431   3.391  13.803  0.0771  0.2474 -0.9146
19626TIP3   OH280292   2.074   1.618   2.222  0.3833  0.1592  0.5093
19626TIP3    H180293   2.054   1.656   2.308  2.5563  2.7009  0.0215
19626TIP3    H280294   2.132   1.545   2.242 -0.8322 -0.6574  1.2555
19627TIP3   OH280295   1.948   3.252  16.935 -0.0410  0.0681  0.0854
19627TIP3    H180296   1.949   3.167  16.891  2.6508  0.0507  0.0713
19627TIP3    H280297   1.999   3.310  16.879 -0.3663  1.2587  0.9731
19628TIP3   OH280298   5.132   6.301   4.825  0.3738  0.5201 -0.0352
19628TIP3    H180299   5.080   6.242   4.879  0.8260 -1.2771 -1.4724
19628TIP3    H280300   5.168   6.365   4.887 -0.0736 -0.7513  1.5968
19629TIP3   OH280301   5.946   4.317  15.895 -0.1105 -0.2006  0.2189
19629TIP3    H180302   5.906   4.321  15.981  0.4773  0.3122  0.4754
19629TIP3    H280303   5.971   4.407  15.875 -0.4227 -0.2778 -0.5814
19630TIP3   OH280304   5.720   1.079  12.308 -0.3480 -0.3564  0.1618
19630TIP3    H180305   5.736   1.017  12.237  1.0568 -0.6068  0.6751
19630TIP3    H280306   5.658   1.035  12.366 -0.6834 -0.5671 -0.3436
19631TIP3   OH280307   3.248   1.210   3.326  0.2034 -0.0668 -0.1192
19631TIP3    H180308   3.304   1.134   3.311 -1.4206 -1.6546  1.3814
19631TIP3    H280309   3.254   1.226   3.420 -0.5145  0.8109 -0.2107
19632TIP3   OH280310   5.740   4.558  10.447 -0.1272  0.4495 -1.0675
19632TIP3    H180311   5.814   4.552  10.387  0.9728  1.8290  0.0618
19632TIP3    H280312   5.759   4.493  10.515 -0.3762  0.2133 -1.2283
19633TIP3   OH280313   4.449   0.344  12.122  0.3311 -0.3046  0.5683
19633TIP3    H180314   4.364   0.375  12.092  0.6065 -0.9574 -1.0007
19633TIP3    H280315   4.509   0.416  12.105 -0.0210  0.4532  2.4148
19634TIP3   OH280316   3.587   1.766   0.500 -0.8189  0.1513 -0.3436
19634TIP3    H180317   3.508   1.797   0.456 -0.2266  2.0797 -0.1133
19634TIP3    H280318   3.558   1.742   0.588 -1.1938  0.5401 -0.3612
19635TIP3   OH280319   3.492   1.470  11.630 -0.4486  0.3613  0.2975
19635TIP3    H180320   3.575   1.435  11.599 -1.2614 -1.0668 -0.4019
19635TIP3    H280321   3.436   1.471  11.553 -1.7360 -0.8357  1.1487
19636TIP3   OH280322   1.776   1.135  14.700  0.1084 -0.5833 -0.1281
19636TIP3    H180323   1.748   1.046  14.676 -1.1741 -0.7954  1.9432
19636TIP3    H280324   1.753   1.188  14.624 -1.6612 -1.5836 -0.3626
19637TIP3   OH280325   0.205   3.584  16.741 -0.0672 -0.1565  0.3404
19637TIP3    H180326   0.158   3.667  16.739  1.3673  0.7825  2.2370
19637TIP3    H280327   0.190   3.549  16.829  0.2080 -1.4072 -0.0794
19638TIP3   OH280328   5.379   6.740   1.279  0.2369 -0.3123  0.2181
19638TIP3    H180329   5.459   6.782   1.247 -1.1014  3.8484  1.7158
19638TIP3    H280330   5.315   6.756   1.210 -0.0512 -0.9405  0.3338
19639TIP3   OH280331   2.516   2.973   0.891  0.1198  0.2801 -0.1067
19639TIP3    H180332   2.543   3.053   0.848 -0.3954  0.3657 -0.2819
19639TIP3    H280333   2.564   2.903   0.846 -0.2756  0.3856 -0.7050
19640TIP3   OH280334   5.474   5.552  10.449  0.1930 -0.5082 -0.4579
19640TIP3    H180335   5.532   5.477  10.460 -0.2507 -0.6710  1.0136
19640TIP3    H280336   5.399   5.532  10.505 -0.1132  0.8516 -0.3512
19641TIP3   OH280337   5.459   6.646   0.874  0.1727 -0.3624  0.2142
19641TIP3    H180338   5.443   6.595   0.794  2.5481  0.5143 -0.8995
19641TIP3    H280339   5.448   6.737   0.848 -0.8578 -0.1244  1.3897
19642TIP3   OH280340   0.705   0.721  11.546 -0.2994 -0.1722 -0.4894
19642TIP3    H180341   0.743   0.692  11.629 -0.3138  0.6357 -0.1899
19642TIP3    H280342   0.611   0.718  11.559 -0.3453 -1.4586 -0.9822
19643TIP3   OH280343   1.561   0.361   0.514 -0.3085 -0.1009  0.2998
19643TIP3    H180344   1.560   0.330   0.424 -0.3895 -0.9511  0.5810
19643TIP3    H280345   1.649   0.395   0.527  0.2636 -1.5219  0.3888
19644TIP3   OH280346   2.651   2.759   2.290 -0.3261 -0.0522  0.2296
19644TIP3    H180347   2.622   2.834   2.238  1.3539  0.4243 -0.0678
19644TIP3    H280348   2.731   2.729   2.247 -1.3910 -2.5847 -0.1698
19645TIP3   OH280349   6.528   5.162  15.022 -0.2987 -0.0199 -0.1766
19645TIP3    H180350   6.475   5.241  15.030 -1.2496 -0.3325 -2.4913
19645TIP3    H280351   6.618   5.191  15.039 -0.9244  0.9759  1.5915
19646TIP3   OH280352   0.654   5.603   2.685 -0.2416 -0.2826 -0.6352
19646TIP3    H180353   0.625   5.556   2.607  0.4830 -1.0298 -0.4735
19646TIP3    H280354   0.739   5.640   2.660  0.8138 -1.9665  0.3122
19647TIP3   OH280355   1.557   0.822   2.232  0.0766 -0.5749  0.0479
19647TIP3    H180356   1.596   0.777   2.307  0.2379 -0.2496  0.1562
19647TIP3    H280357   1.465   0.793   2.233  0.4018 -1.7098 -0.4812
19648TIP3   OH280358   6.523   0.741   6.253  0.3697 -0.1029 -0.0160
19648TIP3    H180359   6.520   0.706   6.164  0.0109 -0.2016  0.0350
19648TIP3    H280360   6.616   0.761   6.267  0.4461 -0.1941 -0.3690
19649TIP3   OH280361   3.320   5.522  13.197  0.2089 -0.9109  0.0090
19649TIP3    H180362   3.362   5.440  13.221  0.0703 -0.8675  0.4175
19649TIP3    H280363   3.226   5.506  13.208  0.0511 -1.2283 -1.5898
19650TIP3   OH280364   4.144   6.109   4.036 -0.6698 -0.0610 -0.2154
19650TIP3    H180365   4.065   6.163   4.032 -1.6002 -1.0332  2.7077
19650TIP3    H280366   4.216   6.171   4.038 -1.6839  1.1359  2.5097
19651TIP3   OH280367   5.426   4.484  13.229 -0.0264  0.0615 -0.1898
19651TIP3    H180368   5.345   4.535  13.228  0.1261  0.3492  0.9669
19651TIP3    H280369   5.471   4.509  13.148  0.4752  2.4573  0.7523
19652TIP3   OH280370   2.546   6.249  16.428  0.0796  0.5153  0.3710
19652TIP3    H180371   2.564   6.163  16.390 -0.4032  0.0532  1.1457
19652TIP3    H280372   2.586   6.245  16.515  0.1609  1.1271  0.3660
19653TIP3   OH280373   5.950   4.434   1.018  0.5349 -0.1319 -0.4608
19653TIP3    H180374   5.906   4.452   0.935 -0.5598  0.2722  0.1972
19653TIP3    H280375   6.042   4.420   0.993  0.5126  1.4055 -1.5747
19654TIP3   OH280376   3.595   0.428   4.580 -0.0486 -0.5060  0.4158
19654TIP3    H180377   3.594   0.367   4.653 -1.0894  0.0730  0.9075
19654TIP3    H280378   3.573   0.513   4.619  0.9729  0.1227 -0.3076
19655TIP3   OH280379   5.045   6.726   4.857 -0.3475  0.0421  0.7099
19655TIP3    H180380   5.016   6.636   4.840 -2.5705  0.6968  0.7188
19655TIP3    H280381   5.067   6.761   4.771  1.4444 -0.7393  0.7961
19656TIP3   OH280382   4.985   6.014   2.174  0.4034 -0.2109  0.2049
19656TIP3    H180383   4.950   5.994   2.087  1.8799 -0.6499 -0.3099
19656TIP3    H280384   5.075   6.041   2.158  0.4882  0.3676  1.5465
19657TIP3   OH280385   3.546   1.418  13.476  0.0428  0.0769 -0.1163
19657TIP3    H180386   3.479   1.486  13.484  0.1180  0.0828  0.4631
19657TIP3    H280387   3.519   1.350  13.538  0.5896  0.0948  0.1488
19658TIP3   OH280388   0.633   6.620   1.295  0.6848  0.0761 -0.2092
19658TIP3    H180389   0.555   6.674   1.282 -0.3821 -1.3965 -0.2480
19658TIP3    H280390   0.607   6.533   1.263  0.9378 -1.4921  3.3631
19659TIP3   OH280391   0.826   0.439   2.811 -0.3534 -0.1168  0.0756
19659TIP3    H180392   0.917   0.456   2.836 -0.6735  2.0949 -0.0055
19659TIP3    H280393   0.775   0.468   2.887 -1.1376  2.5665 -1.3536
19660TIP3   OH280394   3.943   2.330  11.434  0.4705 -0.1162 -0.5400
19660TIP3    H180395   3.896   2.259  11.478  0.9653 -0.1330 -0.0278
19660TIP3    H280396   3.961   2.296  11.347 -0.0933 -0.2703 -0.6011
19661TIP3   OH280397   2.371   6.205  13.138  0.4042  0.2126 -0.0098
19661TIP3    H180398   2.296   6.262  13.119  0.5673  0.3069 -0.3707
19661TIP3    H280399   2.447   6.256  13.112  0.6057  0.1781  0.5113
19662TIP3   OH280400   4.158   4.181  11.530 -0.4464  0.4537 -0.2975
19662TIP3    H180401   4.240   4.193  11.578 -1.1725  2.1271  0.6439
19662TIP3    H280402   4.184   4.171  11.439  0.8611 -0.2665  0.1367
19663TIP3   OH280403   4.745   1.235   2.406  0.2787  0.4215  0.1342
19663TIP3    H180404   4.752   1.258   2.313 -0.7860 -0.2926 -0.1454
19663TIP3    H280405   4.652   1.247   2.427 -0.2287 -2.6658  0.1603
19664TIP3   OH280406   2.444   5.519   2.703 -0.1170  0.3546 -0.7194
19664TIP3    H180407   2.441   5.511   2.607  2.7488 -0.7270 -0.8353
19664TIP3    H280408   2.448   5.428   2.734  1.9574  0.6887  0.1723
19665TIP3   OH280409   6.575   5.232   2.245  0.1071 -0.1242 -0.7056
19665TIP3    H180410   6.508   5.265   2.186 -1.0643  1.8007  1.5038
19665TIP3    H280411   6.526   5.196   2.319  1.4980 -0.7161 -0.0311
19666TIP3   OH280412   1.087   6.202   5.911 -0.1697  0.0891 -0.1574
19666TIP3    H180413   1.087   6.219   5.817  0.8454  0.3388 -0.1307
19666TIP3    H280414   1.141   6.273   5.947  0.4068 -0.6606  0.4772
19667TIP3   OH280415   1.665   2.395   2.813 -0.7874 -0.3256  0.1266
19667TIP3    H180416   1.664   2.428   2.723 -0.7261  0.0336  0.2530
19667TIP3    H280417   1.657   2.300   2.805  0.7115 -0.4339 -0.3090
19668TIP3   OH280418   3.196   1.156   6.370 -0.1699  0.1717 -0.0021
19668TIP3    H180419   3.222   1.197   6.452 -1.7787 -0.1209  0.6969
19668TIP3    H280420   3.271   1.103   6.345  0.9551  1.4891  0.4271
19669TIP3   OH280421   4.272   0.045  14.244 -0.4963  0.5325 -0.0858
19669TIP3    H180422   4.320   0.109  14.191  2.0601 -0.5034  0.8101
19669TIP3    H280423   4.194   0.091  14.273 -1.5211  1.4849 -3.8157
19670TIP3   OH280424   4.815   3.568  12.392  0.4184  0.5658  0.0576
19670TIP3    H180425   4.729   3.536  12.366  0.7979  0.2764 -0.8667
19670TIP3    H280426   4.843   3.625  12.320  0.8506  0.9474  0.5154
19671TIP3   OH280427   1.767   5.715  14.013 -0.4716  0.1035 -0.8184
19671TIP3    H180428   1.756   5.624  13.986 -0.1814 -0.0114 -0.5541
19671TIP3    H280429   1.782   5.763  13.932 -1.1629 -0.0042 -1.0100
19672TIP3   OH280430   4.633   4.614  16.339  0.6717  0.3807  0.5044
19672TIP3    H180431   4.627   4.709  16.337 -0.5061  0.3210  0.4508
19672TIP3    H280432   4.726   4.596  16.352  0.8057  1.5429  1.2630
19673TIP3   OH280433   0.473   0.022  14.889 -0.4035  0.1316  0.0210
19673TIP3    H180434   0.440   0.048  14.975 -3.0805 -1.2433 -0.4880
19673TIP3    H280435   0.493   0.104  14.845  1.6650  0.8485  2.1120
19674TIP3   OH280436   4.978   2.984   5.544  0.0331 -0.1059 -0.9973
19674TIP3    H180437   5.037   3.041   5.592 -0.3534 -0.2755 -0.3110
19674TIP3    H280438   4.978   3.019   5.455  1.5362 -0.3937 -1.1310
19675TIP3   OH280439   0.762   1.435  13.008  0.4301  0.1810 -0.1359
19675TIP3    H180440   0.831   1.481  12.962 -0.0816 -0.8057 -2.0000
19675TIP3    H280441   0.696   1.502  13.027  0.7480  0.6483 -0.6635
19676TIP3   OH280442   0.527   1.319  16.012 -0.2010 -0.4686 -0.0790
19676TIP3    H180443   0.463   1.390  16.019  0.2487  0.1679 -1.8766
19676TIP3    H280444   0.595   1.341  16.076 -1.1665 -0.4967  0.9715
19677TIP3   OH280445   3.399   2.369  13.220  0.1770 -0.5825 -0.2535
19677TIP3    H180446   3.429   2.306  13.154 -3.3324 -1.4983 -1.1558
19677TIP3    H280447   3.326   2.326  13.263 -0.4686  1.7741  1.1622
19678TIP3   OH280448   3.563   6.258  17.183 -0.1255 -0.1694 -0.2283
19678TIP3    H180449   3.498   6.304  17.235  0.6985 -0.1563  0.8123
19678TIP3    H280450   3.647   6.278  17.225  0.8593  1.5499 -2.7323
19679TIP3   OH280451   6.637   6.221   3.088  0.2624 -0.3735 -0.5846
19679TIP3    H180452   6.678   6.286   3.031 -1.4604  1.1822 -0.1470
19679TIP3    H280453   6.547   6.252   3.099  0.1695 -1.3296  1.9149
19680TIP3   OH280454   4.170   6.556  14.330  0.2174 -0.1020  0.2171
19680TIP3    H180455   4.222   6.636  14.327  0.8038 -0.5029 -1.5534
19680TIP3    H280456   4.081   6.586  14.312  0.6991  0.0167 -2.3654
19681TIP3   OH280457   5.243   1.344   0.183 -0.4273 -0.5285  0.1508
19681TIP3    H180458   5.166   1.334   0.127  1.1284 -2.7442 -1.7928
19681TIP3    H280459   5.246   1.263   0.235  0.2895 -0.2250  0.5996
19682TIP3   OH280460   5.547   2.369  13.897  0.2231  0.2977 -0.1598
19682TIP3    H180461   5.465   2.322  13.881  0.9907 -0.4426 -2.2090
19682TIP3    H280462   5.557   2.426  13.821  1.7480  0.1705 -0.0782
19683TIP3   OH280463   2.941   6.285  13.560 -0.4216  0.0078 -0.1174
19683TIP3    H180464   2.940   6.355  13.495 -1.6898 -0.3645 -0.5235
19683TIP3    H280465   2.996   6.319  13.631  1.5712  0.1455 -1.6476
19684TIP3   OH280466   3.265   6.694  13.378 -0.8823 -0.2832 -0.0603
19684TIP3    H180467   3.304   6.608  13.362 -2.1723 -0.7060 -1.0664
19684TIP3    H280468   3.293   6.747  13.303 -0.5066  0.0435  0.3031
19685TIP3   OH280469   2.043   1.518   2.560  0.5374  0.1800 -0.8615
19685TIP3    H180470   2.050   1.430   2.598  2.1936  0.1094 -1.2463
19685TIP3    H280471   1.978   1.562   2.614 -0.7618 -1.4507 -1.0087
19686TIP3   OH280472   0.180   3.980  11.475 -0.0781 -0.0340 -0.0291
19686TIP3    H180473   0.241   4.045  11.512  0.9370 -0.4475 -0.9331
19686TIP3    H280474   0.181   3.998  11.381 -0.7882 -0.5388 -0.1346
19687TIP3   OH280475   5.696   3.929  12.950  0.1839  0.7089 -0.4103
19687TIP3    H180476   5.732   3.926  13.039 -1.8629 -1.5720  0.4992
19687TIP3    H280477   5.691   4.022  12.929  0.7810  1.3358  1.8618
19688TIP3   OH280478   0.136   5.637  12.377  0.2471 -0.3975 -0.5631
19688TIP3    H180479   0.212   5.585  12.352  1.7451  0.9387  1.0184
19688TIP3    H280480   0.088   5.582  12.439 -1.1278 -1.9453 -2.8349
19689TIP3   OH280481   4.230   5.923  14.881  0.0444 -0.1616 -0.1262
19689TIP3    H180482   4.222   5.980  14.957 -0.4165 -0.7137  0.2460
19689TIP3    H280483   4.323   5.906  14.873  0.2051  0.7465 -0.3237
19690TIP3   OH280484   2.528   5.033   2.827 -0.4826  0.3777  0.0130
19690TIP3    H180485   2.521   5.004   2.918 -2.5375  0.5148 -0.0480
19690TIP3    H280486   2.475   5.112   2.823  0.3016  0.8701 -1.1231
19691TIP3   OH280487   6.334   0.110  12.880  0.6047 -0.1554  0.1982
19691TIP3    H180488   6.411   0.122  12.936  0.5835  1.5937 -0.0734
19691TIP3    H280489   6.338   0.019  12.852  1.9074 -0.4234  1.1581
19692TIP3   OH280490   5.831   4.332   5.776 -0.5347  0.1537 -0.3351
19692TIP3    H180491   5.914   4.364   5.742 -0.6867 -1.4160 -2.3227
19692TIP3    H280492   5.767   4.353   5.708 -1.2704 -1.0376 -0.0393
19693TIP3   OH280493   1.578   5.551  15.006 -0.3365 -0.2204 -0.3695
19693TIP3    H180494   1.544   5.501  14.933 -1.9804 -1.7828  1.3567
19693TIP3    H280495   1.646   5.496  15.044 -0.5590 -0.1349  0.1743
19694TIP3   OH280496   2.958   5.214   4.454 -0.4870 -0.2589  0.0585
19694TIP3    H180497   2.995   5.255   4.376 -1.8631  1.6137  0.2991
19694TIP3    H280498   3.020   5.145   4.478  1.6128  1.2161 -0.8394
19695TIP3   OH280499   1.379   2.082   3.310 -0.4616 -0.0187  0.6902
19695TIP3    H180500   1.388   2.028   3.232 -0.2689  2.9965 -1.5988
19695TIP3    H280501   1.304   2.047   3.357 -1.3258 -1.2373 -1.4940
19696TIP3   OH280502   0.657   5.385   5.208  0.4803  0.3361 -0.0081
19696TIP3    H180503   0.659   5.354   5.298  1.2085  0.7838  0.1376
19696TIP3    H280504   0.747   5.378   5.178 -0.1080 -2.1593 -1.5325
19697TIP3   OH280505   2.202   6.605  12.096 -0.1366  0.0978 -0.2787
19697TIP3    H180506   2.121   6.655  12.111  0.4321  1.1296 -0.5445
19697TIP3    H280507   2.269   6.656  12.142  0.7009  0.3547 -1.7270
19698TIP3   OH280508   5.924   3.829   6.341  0.0134 -0.7282 -0.2325
19698TIP3    H180509   6.019   3.819   6.331  0.3999  1.9929  0.0459
19698TIP3    H280510   5.894   3.856   6.254 -0.1706  0.3082  0.1356
19699TIP3   OH280511   2.575   1.304   0.647 -0.2797 -0.3350  0.2426
19699TIP3    H180512   2.481   1.314   0.655 -0.5083 -0.8129 -1.4911
19699TIP3    H280513   2.594   1.319   0.555  1.2555 -0.8935  0.4275
19700TIP3   OH280514   5.374   0.977  16.020  0.4487  0.0281  0.1963
19700TIP3    H180515   5.375   0.952  15.928  1.9014 -0.8332  0.3992
19700TIP3    H280516   5.329   0.905  16.064  0.4005  0.0815  0.2339
19701TIP3   OH280517   5.199   4.201   3.975  0.0156  0.1722 -0.0719
19701TIP3    H180518   5.120   4.147   3.986  1.8594 -2.3285  2.1932
19701TIP3    H280519   5.180   4.281   4.024 -1.2276 -0.2444  0.1617
19702TIP3   OH280520   3.431   1.306  13.165 -0.3324 -0.4622  0.2996
19702TIP3    H180521   3.402   1.394  13.191  0.3750  0.0611 -0.6200
19702TIP3    H280522   3.478   1.273  13.241 -0.4184  0.0484  0.5778
19703TIP3   OH280523   1.950   2.154  16.514  0.0998 -0.1813  0.1888
19703TIP3    H180524   1.945   2.126  16.423 -0.1403  0.8612 -0.1395
19703TIP3    H280525   1.860   2.146  16.547  0.0976 -0.1353  0.1934
19704TIP3   OH280526   0.867   5.886  13.153 -0.1221 -0.4108 -0.6191
19704TIP3    H180527   0.820   5.874  13.235  1.6421 -0.1726  0.4884
19704TIP3    H280528   0.886   5.797  13.123  1.2087 -0.5443  0.4839
19705TIP3   OH280529   6.100   4.404   0.301 -0.2451 -0.1767  0.0360
19705TIP3    H180530   6.044   4.453   0.240  0.8381  0.3454 -0.5832
19705TIP3    H280531   6.174   4.376   0.247 -0.4210 -1.7772  0.5942
19706TIP3   OH280532   4.603   5.483  13.433 -0.3322 -0.5159  0.6908
19706TIP3    H180533   4.512   5.513  13.439  0.2517  1.5349 -0.0062
19706TIP3    H280534   4.651   5.559  13.400  1.7469 -1.3824  1.5904
19707TIP3   OH280535   0.563   2.734  12.950  0.2604 -0.0565 -0.8891
19707TIP3    H180536   0.624   2.783  13.006  0.1531 -1.7881  0.8435
19707TIP3    H280537   0.619   2.687  12.889  0.6468 -0.8446  0.0407
19708TIP3   OH280538   6.745   5.381   2.940 -0.4518  0.8278  0.1366
19708TIP3    H180539   6.684   5.404   3.010 -0.6876 -1.1630  0.6435
19708TIP3    H280540   6.772   5.292   2.960  1.3575  1.0688 -1.0071
19709TIP3   OH280541   1.795   4.668   0.876  0.9273 -0.0093  0.6126
19709TIP3    H180542   1.722   4.704   0.927 -0.3007 -2.5806  0.8077
19709TIP3    H280543   1.862   4.647   0.941  0.8650  0.1204  0.7189
19710TIP3   OH280544   5.402   1.872   5.285  0.4179 -0.3175  0.1838
19710TIP3    H180545   5.338   1.857   5.215  0.3553  3.4187 -0.7966
19710TIP3    H280546   5.354   1.857   5.366 -1.5150  1.3505 -0.5445
19711TIP3   OH280547   2.934   4.319   2.823  0.1991 -0.1786 -0.5909
19711TIP3    H180548   2.928   4.367   2.906 -1.9458 -0.2739 -0.6559
19711TIP3    H280549   2.984   4.377   2.766 -0.2140  0.8665  0.0855
19712TIP3   OH280550   3.978   3.195   5.628 -0.7692 -0.6683  0.4965
19712TIP3    H180551   4.005   3.165   5.714  0.3664  0.1150  0.4453
19712TIP3    H280552   4.040   3.154   5.567 -0.7175 -0.1746  0.2005
19713TIP3   OH280553   4.055   6.659   5.451  0.0228  0.7602 -0.4542
19713TIP3    H180554   4.047   6.689   5.360  1.1496 -3.1828 -2.0270
19713TIP3    H280555   3.969   6.622   5.471  0.3720 -0.1852 -0.6743
19714TIP3   OH280556   5.485   1.881  16.581 -0.0784 -0.2346 -0.0033
19714TIP3    H180557   5.539   1.945  16.533 -0.8660 -0.5153 -1.3096
19714TIP3    H280558   5.480   1.805  16.523 -2.1162 -0.0979 -0.0709
19715TIP3   OH280559   1.885   2.916   3.932  0.4262  0.1974  0.6034
19715TIP3    H180560   1.972   2.876   3.928  0.0378 -0.7245  0.9255
19715TIP3    H280561   1.845   2.878   4.010 -1.6766 -2.4464 -1.5214
19716TIP3   OH280562   6.272   6.449   0.555  0.3257  0.1173 -0.5932
19716TIP3    H180563   6.294   6.422   0.645 -0.0118  0.1691 -0.4919
19716TIP3    H280564   6.279   6.368   0.504 -1.3133 -0.3419 -0.1698
19717TIP3   OH280565   5.534   2.867  16.217  0.0826 -0.3063  0.6858
19717TIP3    H180566   5.508   2.845  16.127 -1.5041  1.0205  0.7745
19717TIP3    H280567   5.554   2.782  16.257  1.3271 -0.8860 -1.0410
19718TIP3   OH280568   5.178   1.677  16.848  0.4626 -0.0068  0.1498
19718TIP3    H180569   5.160   1.761  16.806 -1.1502 -0.3282  0.1427
19718TIP3    H280570   5.245   1.697  16.914  1.5397  0.8873 -1.1513
19719TIP3   OH280571   5.122   1.867  15.647  0.3218  0.1216 -0.0356
19719TIP3    H180572   5.189   1.857  15.580 -0.4783 -1.5968 -0.6636
19719TIP3    H280573   5.104   1.961  15.651  0.4449  0.2875 -2.1951
19720TIP3   OH280574   3.470   1.588   0.293 -0.1767 -0.3694 -0.3742
19720TIP3    H180575   3.435   1.672   0.322  0.9775  0.2061 -0.5750
19720TIP3    H280576   3.393   1.534   0.275 -0.9259  0.4675  0.2644
19721TIP3   OH280577   3.219   3.219   0.192 -0.2525  0.2393  0.0221
19721TIP3    H180578   3.291   3.189   0.248  0.0195 -0.4586 -0.6800
19721TIP3    H280579   3.154   3.254   0.253 -0.1088 -0.8125  0.8086
19722TIP3   OH280580   2.094   0.999  14.100  0.2377 -0.6864 -0.4414
19722TIP3    H180581   2.121   1.065  14.037 -0.9555  0.8806  0.6143
19722TIP3    H280582   1.999   1.011  14.108  0.1556 -1.8174  0.5870
19723TIP3   OH280583   6.328   1.251   6.240  0.0674  0.0527  0.2410
19723TIP3    H180584   6.254   1.270   6.297  0.1106 -2.0279  1.0975
19723TIP3    H280585   6.399   1.228   6.299  0.5849 -0.6144 -0.6039
19724TIP3   OH280586   3.012   3.118   3.544  0.0786  0.1385  0.2355
19724TIP3    H180587   2.965   3.134   3.462  1.3655 -0.5749 -0.6874
19724TIP3    H280588   3.104   3.113   3.518  0.3733 -1.7758  1.4592
19725TIP3   OH280589   3.013   0.711   6.144 -0.0727 -0.2957  0.2308
19725TIP3    H180590   3.097   0.666   6.141  1.6479  2.6869 -1.9141
19725TIP3    H280591   3.021   0.771   6.218 -0.1084  0.2973 -0.2376
19726TIP3   OH280592   0.918   3.298   5.453 -0.2739 -0.3501  0.1175
19726TIP3    H180593   0.824   3.279   5.463 -0.2860  0.1805  1.1591
19726TIP3    H280594   0.951   3.226   5.398 -1.0777 -1.1308  0.6228
19727TIP3   OH280595   0.563   5.232  17.120 -0.0792  0.5569  0.5899
19727TIP3    H180596   0.569   5.274  17.034  0.6753 -0.8087 -0.0653
19727TIP3    H280597   0.546   5.304  17.181  2.9045  2.1076 -0.2207
19728TIP3   OH280598   5.783   5.201   6.274 -0.2235  0.5845  0.6598
19728TIP3    H180599   5.875   5.187   6.297  0.1890  1.2109 -0.5354
19728TIP3    H280600   5.769   5.294   6.288  0.0436  0.9984 -1.5098
19729TIP3   OH280601   0.266   0.358  16.021  0.2107  0.0752  0.4010
19729TIP3    H180602   0.231   0.447  16.028 -0.2893 -0.1995  1.5691
19729TIP3    H280603   0.361   0.369  16.028  0.1119  0.4618  1.1672
19730TIP3   OH280604   1.710   5.813  11.836  0.0125 -0.1025  0.3863
19730TIP3    H180605   1.689   5.721  11.820 -1.8447  0.2026  0.8416
19730TIP3    H280606   1.679   5.859  11.758  2.1925  0.0397 -0.4762
19731TIP3   OH280607   5.057   4.016  16.402  0.4228  0.3604 -0.1103
19731TIP3    H180608   5.068   4.110  16.419  2.4593  0.0946  0.2868
19731TIP3    H280609   5.091   3.973  16.480 -1.9871 -0.7577  0.4231
19732TIP3   OH280610   6.669   3.152   5.449  0.4202  0.1520 -0.2857
19732TIP3    H180611   6.650   3.243   5.474  0.0188 -0.1977  0.6981
19732TIP3    H280612   6.732   3.122   5.515  0.4142 -0.3474 -0.5075
19733TIP3   OH280613   0.613   5.540   1.526  0.2112  0.1119 -0.0636
19733TIP3    H180614   0.698   5.581   1.544  0.4279 -0.2999 -0.1520
19733TIP3    H280615   0.553   5.584   1.586  0.4873  0.3986  0.0093
19734TIP3   OH280616   3.299   6.736  12.426 -0.3405  0.3697  0.0291
19734TIP3    H180617   3.269   6.774  12.509  0.6002 -0.8896  0.9751
19734TIP3    H280618   3.328   6.648  12.448 -0.0614 -0.0064 -1.6567
19735TIP3   OH280619   2.399   5.262   2.887 -0.4442 -0.4476 -0.1803
19735TIP3    H180620   2.426   5.313   2.963  1.7765 -3.2280  1.0864
19735TIP3    H280621   2.311   5.230   2.909 -1.5394  2.0031 -0.6742
19736TIP3   OH280622   1.765   1.747   4.464  0.3487 -0.2939 -0.0488
19736TIP3    H180623   1.758   1.693   4.543  0.7373  0.9130  0.8367
19736TIP3    H280624   1.677   1.748   4.427 -0.1784  0.3048  1.1854
19737TIP3   OH280625   4.336   5.083  16.796  0.0158  0.0418 -0.1652
19737TIP3    H180626   4.322   5.039  16.713 -0.3789 -0.9346  0.3989
19737TIP3    H280627   4.413   5.137  16.782  0.1113 -0.3163 -1.0844
19738TIP3   OH280628   5.178   1.155  13.320 -0.7672 -0.1249  0.6456
19738TIP3    H180629   5.174   1.251  13.320 -1.3699 -0.1451  0.4169
19738TIP3    H280630   5.104   1.128  13.373  0.2620 -0.4558  1.9738
19739TIP3   OH280631   5.348   4.330   4.318  0.2779 -0.2630 -0.0468
19739TIP3    H180632   5.427   4.384   4.324 -0.6852  1.4318 -1.5616
19739TIP3    H280633   5.314   4.327   4.407  0.8645  0.8551  0.2270
19740TIP3   OH280634   2.689   2.471   0.971  0.1758 -0.1655 -0.4376
19740TIP3    H180635   2.695   2.386   1.015  1.6481  0.3954  0.5359
19740TIP3    H280636   2.740   2.530   1.027 -1.1694  1.4607 -0.8700
19741TIP3   OH280637   6.351   3.021  14.424 -0.5217  0.0770  0.6242
19741TIP3    H180638   6.361   2.983  14.337  2.5845 -2.3150  1.8465
19741TIP3    H280639   6.283   2.968  14.466 -3.1221  2.1708 -0.6459
19742TIP3   OH280640   6.681   0.491  12.074 -0.1629 -0.2029  0.5610
19742TIP3    H180641   6.704   0.422  12.012 -1.9785 -1.8695  1.6382
19742TIP3    H280642   6.725   0.466  12.155 -1.3989 -0.5163  1.1511
19743TIP3   OH280643   1.605   4.610   5.659  0.0194 -0.0684 -0.4532
19743TIP3    H180644   1.579   4.582   5.571  0.9637 -0.3407 -0.6575
19743TIP3    H280645   1.525   4.602   5.711 -0.4198 -0.4198 -1.1609
19744TIP3   OH280646   4.937   5.430   3.308 -0.1818 -0.4685 -0.2028
19744TIP3    H180647   4.939   5.518   3.345  1.4225 -0.5838  0.0557
19744TIP3    H280648   5.016   5.425   3.253 -0.2568 -1.7173 -0.2427
19745TIP3   OH280649   2.636   5.093   4.184 -0.1382  0.4505  0.1093
19745TIP3    H180650   2.647   5.038   4.106  1.3882  0.8051  0.0562
19745TIP3    H280651   2.656   5.034   4.257 -1.0381  0.2661  0.2211
19746TIP3   OH280652   6.791   0.088   1.174  0.2655  0.6260  0.2497
19746TIP3    H180653   6.809   0.040   1.254  1.8587  2.5914  1.1582
19746TIP3    H280654   6.823   0.030   1.104 -2.4874 -1.7731  0.7564
19747TIP3   OH280655   4.520   6.733   0.671  0.5094  0.2624  0.1342
19747TIP3    H180656   4.614   6.721   0.688  0.4731 -1.2514 -0.6030
19747TIP3    H280657   4.516   6.798   0.601  0.9595  0.8872  0.6742
19748TIP3   OH280658   3.653   5.250   3.217  0.2868  0.4650  0.6317
19748TIP3    H180659   3.579   5.265   3.159 -0.7463  0.2115  1.8432
19748TIP3    H280660   3.697   5.173   3.182  0.4462  1.0682 -0.5358
19749TIP3   OH280661   4.000   1.632   2.656 -0.7014  0.3579 -0.6666
19749TIP3    H180662   4.033   1.545   2.678 -1.8128 -0.0206 -0.4623
19749TIP3    H280663   4.057   1.662   2.584 -0.0557 -0.3594 -0.4627
19750TIP3   OH280664   3.869   3.905  11.697 -0.3674  0.2390  0.2020
19750TIP3    H180665   3.859   4.000  11.688 -0.3833  0.3288  1.0968
19750TIP3    H280666   3.963   3.892  11.711 -0.7290  0.4971  3.7842
19751TIP3   OH280667   6.323   0.761  16.413 -0.1077 -0.2936  0.3060
19751TIP3    H180668   6.294   0.701  16.344  0.0603  0.1853 -0.1870
19751TIP3    H280669   6.364   0.834  16.366 -1.0523  0.6131  0.8513
19752TIP3   OH280670   6.061   1.651  11.949 -0.1127  0.2468 -0.3327
19752TIP3    H180671   5.973   1.667  11.916  0.3444 -0.7575 -2.2157
19752TIP3    H280672   6.049   1.592  12.023 -1.1145  1.6428  0.6642
19753TIP3   OH280673   3.161   0.548   3.117  0.0177  0.7595 -0.4404
19753TIP3    H180674   3.185   0.526   3.027 -0.2735  0.7408 -0.5127
19753TIP3    H280675   3.244   0.573   3.158  0.5525 -1.4222 -0.0746
19754TIP3   OH280676   4.745   1.114   1.579  0.4359 -0.3199 -0.1291
19754TIP3    H180677   4.715   1.202   1.556  0.4056 -0.7250 -1.7826
19754TIP3    H280678   4.669   1.073   1.619  0.9154  0.8919  2.1747
19755TIP3   OH280679   3.485   0.593   1.314  0.1652 -0.0247  0.1445
19755TIP3    H180680   3.577   0.608   1.293  0.7600 -1.5815  1.4322
19755TIP3    H280681   3.463   0.660   1.378  0.3283  0.4621 -0.2979
19756TIP3   OH280682   3.843   2.256  14.300 -0.9210  0.5272 -0.3760
19756TIP3    H180683   3.817   2.166  14.322 -0.6931  0.4385 -0.4602
19756TIP3    H280684   3.897   2.284  14.374  0.4538 -0.0321 -1.1235
19757TIP3   OH280685   1.536   5.069  12.975 -0.9447  0.3699  0.7430
19757TIP3    H180686   1.515   5.026  12.892  0.6036 -1.0875  1.0633
19757TIP3    H280687   1.453   5.071  13.022 -1.2379 -1.5947  0.3847
19758TIP3   OH280688   4.880   3.464   2.398  0.5047 -0.6296  0.0560
19758TIP3    H180689   4.813   3.525   2.369  0.0902 -1.0738  0.0597
19758TIP3    H280690   4.886   3.477   2.493 -0.4225 -1.4098  0.2307
19759TIP3   OH280691   4.906   3.559   5.664 -0.1857  0.0003 -0.0330
19759TIP3    H180692   4.941   3.631   5.611  1.4559 -1.1150 -0.5162
19759TIP3    H280693   4.851   3.603   5.730 -1.1486  1.5114 -1.7557
19760TIP3   OH280694   4.446   1.681  13.252 -0.0746  0.2449 -0.6152
19760TIP3    H180695   4.464   1.773  13.234 -0.5121  0.5196  0.3292
19760TIP3    H280696   4.487   1.664  13.337 -0.0027 -0.4323 -0.7755
19761TIP3   OH280697   1.963   4.670  12.175  0.0289  0.2819  0.4216
19761TIP3    H180698   1.956   4.576  12.192  1.0516 -0.1737 -1.4106
19761TIP3    H280699   1.936   4.712  12.258 -1.6845 -1.5637  0.8688
19762TIP3   OH280700   5.486   1.163  11.342 -0.0284 -0.1076  0.4577
19762TIP3    H180701   5.475   1.143  11.435  1.3118 -1.4720  0.3629
19762TIP3    H280702   5.540   1.242  11.341 -0.1471 -0.0203  0.8455
19763TIP3   OH280703   5.271   6.383  13.191 -0.4949  0.3070  0.0041
19763TIP3    H180704   5.280   6.291  13.216  1.1354  0.1368 -1.0650
19763TIP3    H280705   5.224   6.380  13.107  1.4135  0.2592 -1.1073
19764TIP3   OH280706   4.327   3.753  16.358 -0.1506 -0.2185 -0.5407
19764TIP3    H180707   4.281   3.697  16.421 -0.2232 -0.7679 -1.0667
19764TIP3    H280708   4.258   3.802  16.314 -0.2669 -1.1661 -1.4476
19765TIP3   OH280709   1.538   0.136   1.611 -0.6092  0.0595 -0.2228
19765TIP3    H180710   1.563   0.046   1.635 -0.7935  0.2937  0.9250
19765TIP3    H280711   1.615   0.188   1.632 -0.2431  0.0807 -1.5778
19766TIP3   OH280712   2.474   2.301   2.839 -0.2786 -0.1985  0.3330
19766TIP3    H180713   2.409   2.261   2.782  0.0286  0.3326 -0.3980
19766TIP3    H280714   2.460   2.395   2.830  2.7145  0.1572 -2.5181
19767TIP3   OH280715   2.164   6.687   1.844 -0.0515  0.3860  0.6620
19767TIP3    H180716   2.088   6.639   1.877 -0.2761  1.2318  1.4372
19767TIP3    H280717   2.211   6.624   1.790 -0.7732 -0.4448  0.9764
19768TIP3   OH280718   6.221   1.030  14.983  0.0697 -0.8408  0.6649
19768TIP3    H180719   6.206   1.012  15.075 -1.2690 -2.6457  0.1421
19768TIP3    H280720   6.299   0.978  14.961  1.3005  0.7549  1.0776
19769TIP3   OH280721   3.406   2.579  13.046  0.0341  0.1493  0.0892
19769TIP3    H180722   3.424   2.673  13.046  1.0419 -0.0287 -0.5365
19769TIP3    H280723   3.435   2.548  13.132  1.0991  0.1705 -0.2526
19770TIP3   OH280724   5.475   1.340  17.210 -0.0699 -0.9336 -0.3352
19770TIP3    H180725   5.391   1.385  17.195 -0.2325 -1.8712 -2.6110
19770TIP3    H280726   5.453   1.270  17.272 -1.1024 -1.4612 -1.2600
19771TIP3   OH280727   6.212   2.785  11.729  0.0211  0.2101  0.0802
19771TIP3    H180728   6.132   2.757  11.685  0.6254 -1.3142 -0.1163
19771TIP3    H280729   6.278   2.720  11.702  0.8931  0.4046  1.6240
19772TIP3   OH280730   3.814   4.983   4.690 -0.1486 -0.4535  0.8436
19772TIP3    H180731   3.776   4.895   4.695  0.2308 -0.5989  1.3016
19772TIP3    H280732   3.739   5.041   4.683 -0.3690 -0.8964 -1.0137
19773TIP3   OH280733   3.138   3.137   0.735 -0.0070  0.4879  1.3202
19773TIP3    H180734   3.215   3.175   0.778 -0.1297 -0.0637  2.0399
19773TIP3    H280735   3.174   3.068   0.679  0.0862  0.7226  1.0882
19774TIP3   OH280736   4.636   5.519  13.941 -0.2515 -0.2981 -1.2928
19774TIP3    H180737   4.623   5.460  13.867 -2.9352  2.5690 -3.4023
19774TIP3    H280738   4.548   5.554  13.958  0.9337  1.9164  0.7939
19775TIP3   OH280739   6.390   0.434   0.560  0.1537 -0.0637 -0.3788
19775TIP3    H180740   6.383   0.368   0.629  0.4309  0.9865  0.6783
19775TIP3    H280741   6.346   0.511   0.596 -0.0380  0.3889 -1.5351
19776TIP3   OH280742   2.060   2.853  16.530  0.2511 -0.1861 -0.4457
19776TIP3    H180743   1.979   2.875  16.578  0.1553  0.4526 -0.8896
19776TIP3    H280744   2.091   2.773  16.572 -0.7960 -0.6267 -0.4812
19777TIP3   OH280745   2.678   4.988  13.682 -0.3703 -0.1143  0.0533
19777TIP3    H180746   2.598   4.944  13.651 -0.1533 -0.7212  0.3454
19777TIP3    H280747   2.648   5.042  13.755 -1.0795  2.1169 -1.7587
19778TIP3   OH280748   1.658   0.723   6.525 -0.2355 -0.0030  0.6979
19778TIP3    H180749   1.728   0.721   6.459 -0.7124  2.6078  0.0298
19778TIP3    H280750   1.592   0.663   6.491 -0.3321  1.0566 -1.1073
19779TIP3   OH280751   4.530   2.516   0.236 -0.3868  0.6761  0.2480
19779TIP3    H180752   4.600   2.465   0.277  0.6654  3.1324  1.7350
19779TIP3    H280753   4.450   2.476   0.269  0.4154  1.1352  3.0643
19780TIP3   OH280754   5.119   4.708   1.517 -0.1291  0.0787  0.4942
19780TIP3    H180755   5.130   4.733   1.426  2.5718  1.6397  1.1335
19780TIP3    H280756   5.102   4.790   1.563  0.6248 -0.3660  1.6263
19781TIP3   OH280757   2.034   5.534  14.396  0.1883 -0.2806 -0.2036
19781TIP3    H180758   1.996   5.521  14.309  0.3051  1.6398 -0.5868
19781TIP3    H280759   1.986   5.474  14.453  0.4697 -1.9806 -1.6612
19782TIP3   OH280760   3.197   1.473   1.777 -0.0121 -0.2522 -0.0745
19782TIP3    H180761   3.185   1.380   1.797 -1.4808 -0.0566  0.0743
19782TIP3    H280762   3.181   1.479   1.682  0.2342 -0.1740 -0.1114
19783TIP3   OH280763   3.603   1.225   5.770 -0.5552  0.2251  0.0241
19783TIP3    H180764   3.531   1.263   5.719  0.2836 -0.1234 -1.4642
19783TIP3    H280765   3.661   1.298   5.789 -1.0567  0.4278  0.8695
19784TIP3   OH280766   0.572   2.493   2.480 -0.0889 -0.3010  0.1817
19784TIP3    H180767   0.577   2.458   2.391 -1.8632  0.9254 -0.4576
19784TIP3    H280768   0.604   2.422   2.535  0.7611 -1.2041 -1.3979
19785TIP3   OH280769   2.850   1.763  14.397 -0.4387  0.5339 -0.1985
19785TIP3    H180770   2.772   1.717  14.427 -0.2479  0.0302 -0.4557
19785TIP3    H280771   2.910   1.693  14.371  0.1694  0.9110  0.1752
19786TIP3   OH280772   4.657   5.115   1.975  0.2701 -0.3367  0.0881
19786TIP3    H180773   4.634   5.186   2.035  0.0462 -0.0061 -0.3761
19786TIP3    H280774   4.740   5.143   1.936 -1.0780  0.9731 -2.0387
19787TIP3   OH280775   1.951   4.565  11.403  0.6697  0.1158  0.3624
19787TIP3    H180776   1.905   4.503  11.348  1.8212  0.0184 -0.5156
19787TIP3    H280777   1.968   4.640  11.346 -0.4655  1.1573  1.3305
19788TIP3   OH280778   2.073   4.541   5.579 -0.2530  0.1730 -0.4761
19788TIP3    H180779   2.150   4.490   5.603 -0.4291  0.2798  0.3486
19788TIP3    H280780   2.088   4.627   5.618 -0.9336  0.0901 -0.0027
19789TIP3   OH280781   0.843   4.239  14.417 -0.1856 -0.2520  0.3088
19789TIP3    H180782   0.857   4.333  14.406  0.2020  0.1024  3.0739
19789TIP3    H280783   0.754   4.223  14.386 -0.0575  0.8882 -0.7058
19790TIP3   OH280784   2.293   6.709  13.908 -0.1064  0.2969 -0.0840
19790TIP3    H180785   2.372   6.730  13.858 -0.3638  0.8589 -0.2647
19790TIP3    H280786   2.229   6.684  13.841 -0.5064  1.2209 -0.0715
19791TIP3   OH280787   3.826   5.812   2.610 -0.0978  0.7780  0.3680
19791TIP3    H180788   3.794   5.885   2.664 -2.7101 -1.5493  2.2147
19791TIP3    H280789   3.791   5.830   2.523  0.7324  2.5281  0.3532
19792TIP3   OH280790   3.617   1.939  10.753 -0.3601  1.0450  0.4237
19792TIP3    H180791   3.528   1.910  10.772 -0.7349  2.0059  0.2031
19792TIP3    H280792   3.610   1.982  10.668  0.5934 -0.0783 -0.2541
19793TIP3   OH280793   1.056   4.279  15.096 -0.1351 -0.3573  0.4057
19793TIP3    H180794   1.115   4.352  15.080  0.0437 -0.4107  0.8235
19793TIP3    H280795   0.968   4.318  15.095 -0.2225 -0.4732 -1.5172
19794TIP3   OH280796   4.354   5.299  11.635 -0.0965 -0.2275 -0.4610
19794TIP3    H180797   4.413   5.363  11.674  0.5492  0.1521 -1.9860
19794TIP3    H280798   4.273   5.348  11.617 -0.3346 -0.3620  0.2340
19795TIP3   OH280799   0.937   0.981  14.415 -0.6831 -0.2791 -0.3741
19795TIP3    H180800   0.916   0.902  14.464  2.2922 -1.9834 -1.5835
19795TIP3    H280801   0.924   0.956  14.323  0.3556  0.5716 -0.7727
19796TIP3   OH280802   3.467   1.207  15.744  0.3995 -0.4602 -0.2767
19796TIP3    H180803   3.561   1.222  15.751  0.3214 -0.4551  0.9995
19796TIP3    H280804   3.441   1.174  15.830 -0.6730 -1.0154 -0.7884
19797TIP3   OH280805   4.162   6.170   1.868  0.1029 -0.0838 -0.6131
19797TIP3    H180806   4.152   6.132   1.780 -0.0045  0.3249 -0.7774
19797TIP3    H280807   4.081   6.146   1.914  0.9846 -2.0300  0.0396
19798TIP3   OH280808   1.180   2.585  13.060  0.2598 -0.6452  0.5028
19798TIP3    H180809   1.247   2.634  13.108 -0.1398  0.2876  0.1235
19798TIP3    H280810   1.125   2.652  13.019 -1.1544 -1.3849  1.1209
19799TIP3   OH280811   2.524   5.472   5.376 -0.0222 -0.3818 -0.4163
19799TIP3    H180812   2.452   5.515   5.422  0.1963 -0.2571 -0.1812
19799TIP3    H280813   2.574   5.429   5.446 -0.8193 -1.9170 -0.7412
19800TIP3   OH280814   1.902   3.884  14.139  0.1782 -0.1164  0.2193
19800TIP3    H180815   1.963   3.816  14.111  1.9662  1.1459  0.8997
19800TIP3    H280816   1.901   3.946  14.066 -0.8880 -0.4711 -0.0904
19801TIP3   OH280817   5.983   3.680  15.959  0.1784 -0.0331 -0.0832
19801TIP3    H180818   5.984   3.744  16.030 -0.2079  0.5246 -0.5766
19801TIP3    H280819   5.891   3.661  15.944  0.1710  0.8191 -1.2826
19802TIP3   OH280820   5.791   4.973  14.246 -0.9625 -0.2250  0.0674
19802TIP3    H180821   5.720   5.006  14.191  0.0989  1.7525 -0.1723
19802TIP3    H280822   5.837   4.910  14.191 -0.0405  1.5686 -1.3052
19803TIP3   OH280823   3.641   1.153  16.650  0.1331  0.2430  0.0851
19803TIP3    H180824   3.634   1.145  16.555 -2.0560 -0.0247  0.2163
19803TIP3    H280825   3.701   1.082  16.676  0.2326 -0.0968 -1.0143
19804TIP3   OH280826   5.180   2.605   2.578  0.2517 -0.5197 -0.2729
19804TIP3    H180827   5.252   2.581   2.519  0.7980  1.4381 -0.4601
19804TIP3    H280828   5.222   2.615   2.663  0.1815  0.4176 -0.3394
19805TIP3   OH280829   5.906   4.574  11.816  0.1190 -0.2684 -0.3121
19805TIP3    H180830   5.956   4.531  11.747  0.5402 -0.2914  0.0043
19805TIP3    H280831   5.971   4.599  11.881 -0.2121  0.2097 -0.1596
19806TIP3   OH280832   5.252   5.498  11.892 -0.0626 -0.0314 -0.1513
19806TIP3    H180833   5.255   5.406  11.920  1.1289 -0.2394 -0.9021
19806TIP3    H280834   5.344   5.522  11.879 -0.4449 -0.0030 -3.9588
19807TIP3   OH280835   4.262   1.272  10.726  0.0324  0.9802  0.4535
19807TIP3    H180836   4.213   1.355  10.723 -1.1670  0.2870 -0.5529
19807TIP3    H280837   4.226   1.221  10.653  1.5491  0.0052  0.3396
19808TIP3   OH280838   3.546   5.905   6.741  0.3747  0.5956 -0.8383
19808TIP3    H180839   3.493   5.970   6.695  1.0371  0.4230 -1.8721
19808TIP3    H280840   3.522   5.821   6.701 -0.6228  0.1461  0.6173
19809TIP3   OH280841   5.273   1.680   1.662  0.1520  0.6124 -0.2930
19809TIP3    H180842   5.325   1.640   1.593  0.2189  1.2000 -0.5953
19809TIP3    H280843   5.334   1.691   1.735 -0.5579 -2.5623  0.9466
19810TIP3   OH280844   5.465   1.226   6.667  0.1643  0.2335 -0.0449
19810TIP3    H180845   5.417   1.151   6.701  1.1707 -0.4930 -0.1724
19810TIP3    H280846   5.399   1.280   6.624 -0.5000 -0.8838 -0.4785
19811TIP3   OH280847   3.075   1.639   6.015  0.1318  0.2787  0.2796
19811TIP3    H180848   3.134   1.573   6.050  1.3040  0.8695 -0.5007
19811TIP3    H280849   2.990   1.621   6.057  0.7694 -0.8096  1.1526
19812TIP3   OH280850   6.784   5.379  17.039  0.7805  0.9755  0.2391
19812TIP3    H180851   6.772   5.376  17.134 -0.4348 -1.3459  0.0763
19812TIP3    H280852   6.713   5.434  17.007 -0.6332 -0.6276  0.4913
19813TIP3   OH280853   6.002   2.693   1.918 -0.3740  0.0580  0.1410
19813TIP3    H180854   6.091   2.704   1.953  0.2422 -0.1818 -1.2650
19813TIP3    H280855   5.945   2.725   1.987  0.7508 -0.8108  1.5489
19814TIP3   OH280856   3.989   0.181  10.844 -0.2705  0.1862  0.3595
19814TIP3    H180857   3.957   0.102  10.800 -0.8103  1.5399 -1.8050
19814TIP3    H280858   4.034   0.230  10.776  0.2843  1.6624  1.7168
19815TIP3   OH280859   4.193   0.702   4.409 -0.2658  0.2146 -0.0042
19815TIP3    H180860   4.230   0.680   4.495  0.8419  1.9715  0.0191
19815TIP3    H280861   4.105   0.735   4.429 -0.5738 -0.7371  0.2843
19816TIP3   OH280862   3.415   1.566  15.547 -0.2099  0.3773 -0.2492
19816TIP3    H180863   3.397   1.657  15.522 -0.6383  0.0886 -0.9998
19816TIP3    H280864   3.329   1.526  15.559 -0.0240  0.1778  0.5249
19817TIP3   OH280865   5.549   6.510  12.222  0.4450  0.6312 -0.2320
19817TIP3    H180866   5.543   6.472  12.135 -0.4665  1.8383 -0.7260
19817TIP3    H280867   5.598   6.592  12.210  3.2304 -0.7402  0.9728
19818TIP3   OH280868   0.370   0.881   2.898 -0.3213  0.3934  0.2254
19818TIP3    H180869   0.313   0.847   2.830 -0.6693  0.1758  0.6176
19818TIP3    H280870   0.409   0.960   2.860 -1.7331  1.1799  0.3356
19819TIP3   OH280871   6.107   4.203  14.637 -0.0696  0.0423 -0.2405
19819TIP3    H180872   6.173   4.211  14.706 -1.6703  0.3775  1.3547
19819TIP3    H280873   6.051   4.131  14.666 -0.3167 -0.3435 -1.6259
19820TIP3   OH280874   4.294   5.572   1.934 -0.2325 -0.0019 -0.0198
19820TIP3    H180875   4.317   5.599   2.024  0.7646 -1.7600  0.3040
19820TIP3    H280876   4.344   5.632   1.878  3.0737 -1.8429  0.6793
19821TIP3   OH280877   4.573   3.904  15.462  0.6680 -0.3671 -0.4572
19821TIP3    H180878   4.515   3.948  15.400 -1.6527 -0.9294  1.1401
19821TIP3    H280879   4.557   3.810  15.448  0.4645 -0.5111  0.6233
19822TIP3   OH280880   5.858   2.817  13.159  0.2348  0.1306 -0.4122
19822TIP3    H180881   5.779   2.861  13.128  0.6966  1.2178 -0.0747
19822TIP3    H280882   5.848   2.726  13.129 -0.4674  0.5838 -1.6207
19823TIP3   OH280883   3.188   2.240   6.397 -0.3396  0.4137 -0.1315
19823TIP3    H180884   3.165   2.148   6.398  0.7721  0.1305  0.8669
19823TIP3    H280885   3.250   2.248   6.324  1.7168 -0.2252  1.4427
19824TIP3   OH280886   3.918   6.488  15.875 -0.6949 -0.0523 -0.0254
19824TIP3    H180887   3.880   6.497  15.963  1.0882  0.7274  0.7134
19824TIP3    H280888   3.875   6.555  15.823  0.1484  1.3350  0.9882
19825TIP3   OH280889   5.464   4.412   1.190  0.0637 -0.0789  0.2440
19825TIP3    H180890   5.526   4.401   1.263  0.5046  1.9331  0.2417
19825TIP3    H280891   5.511   4.381   1.113  1.0379  1.2103  0.2826
19826TIP3   OH280892   6.237   2.615  14.042 -0.3748  0.5030 -0.2573
19826TIP3    H180893   6.156   2.567  14.030 -0.4467  0.7869 -1.0018
19826TIP3    H280894   6.243   2.672  13.965  1.7216 -1.2581 -1.5323
19827TIP3   OH280895   3.517   3.469  16.166  0.7261 -0.8418  0.4219
19827TIP3    H180896   3.459   3.400  16.133  1.8977 -1.3636 -0.6365
19827TIP3    H280897   3.458   3.533  16.206 -0.4338 -2.1615  0.8859
19828TIP3   OH280898   5.507   4.450  10.923  0.2601  0.3584  0.0317
19828TIP3    H180899   5.456   4.522  10.886  1.7918  2.2361  1.3558
19828TIP3    H280900   5.588   4.451  10.873 -0.0082 -1.0079 -0.4614
19829TIP3   OH280901   2.044   1.500  11.335  0.0900  0.3219 -0.1659
19829TIP3    H180902   2.032   1.468  11.245  0.1004  2.1180 -0.8535
19829TIP3    H280903   2.112   1.566  11.328 -1.4983  2.1507  0.7221
19830TIP3   OH280904   2.563   6.309   0.584  0.1537 -0.5310  0.5140
19830TIP3    H180905   2.542   6.347   0.670 -0.9854  0.6822 -0.2593
19830TIP3    H280906   2.522   6.368   0.521 -4.0801 -4.3520 -0.7890
19831TIP3   OH280907   2.512   4.973  16.440  0.5455  0.0577  0.1215
19831TIP3    H180908   2.572   4.899  16.434  1.7808  1.0357  0.1056
19831TIP3    H280909   2.529   5.025  16.362 -0.4923  0.2493  0.0010
19832TIP3   OH280910   6.140   4.546   1.857 -0.0078 -0.3945  0.9617
19832TIP3    H180911   6.227   4.584   1.844  0.6673 -1.8303  1.1569
19832TIP3    H280912   6.091   4.614   1.903  0.6669  0.8486 -0.1013
19833TIP3   OH280913   1.689   4.518   6.176 -0.1214 -0.1672  0.7859
19833TIP3    H180914   1.698   4.457   6.103  0.3815 -0.1834  0.8539
19833TIP3    H280915   1.675   4.603   6.135  2.4252  0.2361  0.5475
19834TIP3   OH280916   1.015   1.421   6.058 -0.6069 -0.0192 -0.4369
19834TIP3    H180917   1.071   1.347   6.082 -0.5513  0.4182  0.8808
19834TIP3    H280918   0.930   1.400   6.098 -0.3685  0.9760  0.6682
19835TIP3   OH280919   2.863   1.315  10.890 -1.4215  0.3427  0.1686
19835TIP3    H180920   2.924   1.268  10.946 -1.1927  0.0959 -0.2820
19835TIP3    H280921   2.777   1.283  10.916 -1.2832 -0.1556  0.0203
19836TIP3   OH280922   0.439   3.843  13.007  0.3845 -0.1111  0.4779
19836TIP3    H180923   0.359   3.827  12.957 -0.4558  0.7155  1.5067
19836TIP3    H280924   0.466   3.757  13.038  0.4035 -0.5099 -0.6136
19837TIP3   OH280925   1.826   2.839  15.006 -0.0338  0.1654  0.3104
19837TIP3    H180926   1.778   2.838  14.923  2.3003 -1.5933 -1.1640
19837TIP3    H280927   1.884   2.915  14.999 -0.1736  0.2953  0.5531
19838TIP3   OH280928   5.160   2.364  12.887  0.1753  0.2098  0.9054
19838TIP3    H180929   5.204   2.324  12.812 -1.0165  1.5488 -0.5735
19838TIP3    H280930   5.215   2.440  12.909  0.3715 -0.0191  1.2103
19839TIP3   OH280931   2.032   1.755   4.560  0.2594  0.2197  0.3761
19839TIP3    H180932   2.019   1.833   4.614  1.1261  0.6611 -0.0265
19839TIP3    H280933   1.955   1.752   4.502  0.3057  0.8707  0.2811
19840TIP3   OH280934   4.065   5.017   0.174  0.0230 -0.9382 -0.3016
19840TIP3    H180935   4.124   5.085   0.206  0.3169 -0.9071 -0.8854
19840TIP3    H280936   4.122   4.942   0.156 -0.3839 -1.5624  0.9286
19841TIP3   OH280937   1.436   1.100  14.082  0.2651 -0.5692 -0.4253
19841TIP3    H180938   1.361   1.141  14.038  1.2193  1.8725  0.1120
19841TIP3    H280939   1.428   1.007  14.059 -0.4499  0.2143 -4.0743
19842TIP3   OH280940   2.350   0.371   5.367 -0.0848 -0.0620  0.6058
19842TIP3    H180941   2.303   0.338   5.290 -0.4354  1.4514  0.1535
19842TIP3    H280942   2.311   0.456   5.385  1.6547  0.6949  0.9711
19843TIP3   OH280943   4.575   5.286  12.447  0.3765 -0.0105 -0.3993
19843TIP3    H180944   4.532   5.367  12.476  0.5135  0.0336 -0.3171
19843TIP3    H280945   4.574   5.230  12.525 -0.8781 -0.5827 -0.8097
19844TIP3   OH280946   3.961   4.920   6.059 -0.4470 -0.2614 -0.2456
19844TIP3    H180947   4.030   4.856   6.041  0.6861  1.0103 -0.6229
19844TIP3    H280948   4.008   5.000   6.083 -1.8312  0.0979  1.5053
19845TIP3   OH280949   0.026   4.238   0.509 -0.2457  0.5459 -0.1192
19845TIP3    H180950   0.010   4.174   0.439  0.1292  0.4020 -0.0727
19845TIP3    H280951   0.082   4.304   0.468  0.2379  0.2983  0.1328
19846TIP3   OH280952   1.895   4.441  15.436 -1.0055  0.2468 -0.2216
19846TIP3    H180953   1.938   4.421  15.519 -2.1969  1.1576  0.6287
19846TIP3    H280954   1.938   4.521  15.405  1.9341 -1.9139 -2.3349
19847TIP3   OH280955   1.352   0.826   3.565  0.4262 -0.3916  0.0562
19847TIP3    H180956   1.309   0.826   3.480 -0.0175  0.0913  0.2713
19847TIP3    H280957   1.316   0.750   3.611  0.2195 -0.3089  0.0297
19848TIP3   OH280958   4.275   1.018   3.527 -0.4020  0.1167  0.2348
19848TIP3    H180959   4.295   0.940   3.474 -0.8261 -0.0053  0.2481
19848TIP3    H280960   4.297   1.092   3.470  0.4523 -0.0061  0.3931
19849TIP3   OH280961   0.509   6.359  14.311  0.2466 -0.2748 -0.2566
19849TIP3    H180962   0.527   6.351  14.405  1.6287  0.3231 -0.4472
19849TIP3    H280963   0.525   6.271  14.276  0.4930 -0.3101 -0.0561
19850TIP3   OH280964   2.616   3.140  11.889 -0.0778  0.2908  0.1608
19850TIP3    H180965   2.585   3.230  11.900 -0.3143  0.1265  0.8918
19850TIP3    H280966   2.667   3.123  11.968  1.4650  0.3788 -0.7709
19851TIP3   OH280967   2.186   3.286   4.123  0.2545 -0.5672  0.2189
19851TIP3    H180968   2.244   3.291   4.047  0.2225 -2.3505  0.0418
19851TIP3    H280969   2.242   3.310   4.197  0.3925  0.7665 -0.2845
19852TIP3   OH280970   5.415   5.852  15.875 -0.3315 -0.6027 -0.4368
19852TIP3    H180971   5.398   5.770  15.828 -1.4994 -1.2263  1.0098
19852TIP3    H280972   5.490   5.832  15.930 -1.8047 -1.4020  1.3970
19853TIP3   OH280973   2.193   6.477   2.613 -0.4456 -0.6254  0.6951
19853TIP3    H180974   2.216   6.460   2.522 -2.9657 -0.3799 -0.0581
19853TIP3    H280975   2.174   6.391   2.650  0.4913 -0.7155  1.0060
19854TIP3   OH280976   1.655   1.587   3.653 -0.1920  0.1613 -0.2072
19854TIP3    H180977   1.679   1.678   3.669 -0.3924 -0.1264  2.0086
19854TIP3    H280978   1.699   1.565   3.571 -1.3596  2.6588 -1.6292
19855TIP3   OH280979   3.472   6.017   0.830 -0.1482  0.0602 -0.0874
19855TIP3    H180980   3.378   6.010   0.816 -0.3414  1.2237  0.5067
19855TIP3    H280981   3.489   5.962   0.906 -0.6038  0.9907  0.7099
19856TIP3   OH280982   5.904   5.656   0.660 -0.0884 -0.2037  0.1594
19856TIP3    H180983   5.976   5.598   0.685  1.8460  2.2836  0.7744
19856TIP3    H280984   5.882   5.629   0.571  0.4136 -2.1215  0.5639
19857TIP3   OH280985   5.180   4.314  13.291  0.4563 -0.2441 -0.7915
19857TIP3    H180986   5.125   4.359  13.227  0.6912  0.7875 -0.2876
19857TIP3    H280987   5.227   4.384  13.336  1.3406 -1.0419 -0.4405
19858TIP3   OH280988   2.713   0.327  12.691  0.5085  0.6950 -0.1038
19858TIP3    H180989   2.760   0.399  12.734  0.1201  0.7738  0.1996
19858TIP3    H280990   2.622   0.355  12.692  0.1054 -0.5501  1.5699
19859TIP3   OH280991   2.042   4.146   3.195 -0.3925  0.1589  0.2360
19859TIP3    H180992   2.034   4.201   3.272 -0.6537 -0.7902  0.9116
19859TIP3    H280993   2.121   4.094   3.210 -0.2023  0.2667 -0.3443
19860TIP3   OH280994   4.274   2.836   5.992  0.1737  0.4588  0.2375
19860TIP3    H180995   4.180   2.853   5.989 -0.6560 -3.1073  0.5794
19860TIP3    H280996   4.291   2.809   6.082  0.4055 -3.2155 -0.7171
19861TIP3   OH280997   4.863   5.194   3.925  0.3116 -0.3302 -0.0338
19861TIP3    H180998   4.949   5.152   3.921  0.0220 -0.8209 -1.7753
19861TIP3    H280999   4.810   5.137   3.980  1.4984  0.8106  2.4329
19862TIP3   OH281000   2.052   3.565   1.647  0.0062 -0.0893  0.1228
19862TIP3    H181001   2.081   3.544   1.558  0.1961  2.0627 -0.3803
19862TIP3    H281002   2.073   3.487   1.698  2.4528 -0.3826 -1.1638
19863TIP3   OH281003   6.365   6.043  11.973 -0.3671 -0.0244 -0.1631
19863TIP3    H181004   6.276   6.018  11.997 -0.2321  0.5882  1.0053
19863TIP3    H281005   6.420   6.009  12.044  0.2713  0.1185 -0.5792
19864TIP3   OH281006   1.936   5.018   1.413 -0.3453  0.0564 -0.4590
19864TIP3    H181007   2.024   5.046   1.437  0.7564 -0.7197 -3.1807
19864TIP3    H281008   1.931   4.926   1.440  0.0199 -0.1388 -1.0296
19865TIP3   OH281009   4.447   5.023   4.239 -0.3743 -0.2415  0.7666
19865TIP3    H181010   4.354   5.012   4.258 -0.5407  1.3067  0.9536
19865TIP3    H281011   4.485   5.052   4.321  0.0712  0.2117  0.4046
19866TIP3   OH281012   0.489   3.098   3.844  0.0560 -0.2504  0.1644
19866TIP3    H181013   0.416   3.038   3.860  1.1692 -1.5241  0.6400
19866TIP3    H281014   0.558   3.068   3.903  0.2671  2.2835  1.3348
19867TIP3   OH281015   3.820   2.290   3.706 -0.0952 -0.1044  0.4289
19867TIP3    H181016   3.849   2.374   3.742  0.1615  0.1365 -0.3327
19867TIP3    H281017   3.818   2.304   3.611 -1.4412 -0.5198  0.3789
19868TIP3   OH281018   4.280   2.747  16.783  0.5800  0.2303 -0.1122
19868TIP3    H181019   4.268   2.836  16.816  1.4096 -0.6567  2.8128
19868TIP3    H281020   4.354   2.713  16.832  0.4715 -2.0228 -1.3793
19869TIP3   OH281021   0.150   6.175   5.143  0.3082 -0.3347 -0.2236
19869TIP3    H181022   0.243   6.152   5.134  0.0728 -1.4967  0.1777
19869TIP3    H281023   0.150   6.270   5.153  1.5076 -0.3751  0.3735
19870TIP3   OH281024   0.299   2.818   3.464 -0.3649  0.4017 -0.7988
19870TIP3    H181025   0.391   2.822   3.492 -0.5574  0.9100 -0.2252
19870TIP3    H281026   0.272   2.909   3.455 -0.6653  0.2561 -1.5059
19871TIP3   OH281027   6.790   0.125   0.799 -0.1881  0.7064 -0.3023
19871TIP3    H181028   6.745   0.093   0.720 -1.6621 -1.3599  1.2665
19871TIP3    H281029   6.862   0.064   0.812  0.3454  1.3281 -0.2685
19872TIP3   OH281030   1.284   6.493   2.138  0.2668  0.2735 -0.0922
19872TIP3    H181031   1.279   6.581   2.176 -0.6415  1.0102 -1.8273
19872TIP3    H281032   1.198   6.455   2.155  1.1321 -0.9538  2.0319
19873TIP3   OH281033   4.482   2.739   5.434  0.8340  0.1966  0.2748
19873TIP3    H181034   4.485   2.690   5.352 -1.1677  0.8015 -0.2162
19873TIP3    H281035   4.448   2.677   5.498  0.7122  0.2248  0.2375
19874TIP3   OH281036   4.437   1.267  15.332  0.0328 -0.3947  0.1084
19874TIP3    H181037   4.515   1.253  15.279  0.1463  0.2313  0.1005
19874TIP3    H281038   4.416   1.360  15.319 -0.6976 -0.5525  0.1281
19875TIP3   OH281039   0.391   5.510  12.289 -0.1920  0.0811 -0.3540
19875TIP3    H181040   0.403   5.465  12.373  0.8850  2.5207  0.8813
19875TIP3    H281041   0.478   5.509  12.249  0.8572  4.0780  1.3942
19876TIP3   OH281042   5.152   0.803   4.215 -0.3385  0.3955 -0.2486
19876TIP3    H181043   5.134   0.754   4.135  0.9220 -0.4117 -0.0786
19876TIP3    H281044   5.119   0.747   4.285 -1.4120  1.0866 -0.1795
19877TIP3   OH281045   0.614   1.637   4.564  0.3133  0.0591  0.3274
19877TIP3    H181046   0.607   1.597   4.477 -4.1383  0.6144  0.1973
19877TIP3    H281047   0.647   1.726   4.547 -1.0213  0.3457 -0.9145
19878TIP3   OH281048   4.509   3.048   2.447  0.5002 -0.1475  0.0142
19878TIP3    H181049   4.450   2.998   2.503  1.3304 -0.2015  0.8516
19878TIP3    H281050   4.501   3.006   2.361  1.0541 -1.6344  0.6619
19879TIP3   OH281051   0.871   2.082   1.624  0.1309  0.4250 -0.5441
19879TIP3    H181052   0.905   2.076   1.534 -1.4103  0.6332 -1.1751
19879TIP3    H281053   0.777   2.092   1.613 -0.1141  0.2045  1.1272
19880TIP3   OH281054   3.756   1.661   2.108 -0.0366 -0.5272  0.5766
19880TIP3    H181055   3.678   1.713   2.090 -1.0454 -2.1692 -0.0288
19880TIP3    H281056   3.823   1.725   2.132 -1.2702  1.0055  0.0751
19881TIP3   OH281057   5.871   0.213   1.688  0.0106  0.1287  0.7379
19881TIP3    H181058   5.943   0.230   1.628 -0.0316  0.2406  0.7195
19881TIP3    H281059   5.813   0.154   1.640 -0.1195  0.3704  0.5972
19882TIP3   OH281060   3.520   6.769  13.811  0.1200 -0.0580 -0.5152
19882TIP3    H181061   3.470   6.718  13.746  1.3086  0.6941 -2.0926
19882TIP3    H281062   3.597   6.799  13.763 -0.6379  3.4802  0.2473
19883TIP3   OH281063   6.666   1.867   1.520  0.2193  0.4502 -0.5251
19883TIP3    H181064   6.684   1.892   1.611 -1.5391  0.5844 -0.1746
19883TIP3    H281065   6.634   1.946   1.478  1.9640  0.6465 -1.5865
19884TIP3   OH281066   3.376   3.032   2.948  0.0158  0.3831 -0.1235
19884TIP3    H181067   3.342   2.950   2.913 -1.0556  2.0831 -3.4578
19884TIP3    H281068   3.471   3.021   2.945 -0.0519 -0.0426 -2.5900
19885TIP3   OH281069   3.759   6.297   1.474 -0.1183  0.3693  0.2374
19885TIP3    H181070   3.733   6.369   1.532 -2.3016 -0.0110 -0.1523
19885TIP3    H281071   3.687   6.234   1.482 -0.5909  0.3503 -2.9459
19886TIP3   OH281072   3.457   1.949  16.893  0.4502 -1.0882  0.0606
19886TIP3    H181073   3.375   1.977  16.853  0.3615 -0.9317  0.3448
19886TIP3    H281074   3.467   1.857  16.868  0.5331 -0.9215 -0.5349
19887TIP3   OH281075   6.772   5.972  12.983 -0.1648  0.2915 -0.0035
19887TIP3    H181076   6.838   5.987  12.916 -0.4179  0.0703 -0.3043
19887TIP3    H281077   6.688   5.973  12.936 -0.2291 -1.8416 -0.0443
19888TIP3   OH281078   2.138   0.290  13.016  0.3897 -0.0292 -0.0460
19888TIP3    H181079   2.058   0.327  12.980  0.4965 -1.3249 -1.7446
19888TIP3    H281080   2.148   0.332  13.102 -2.5072 -0.4071  0.5859
19889TIP3   OH281081   5.372   0.165  13.402 -0.3477 -0.4055  0.3525
19889TIP3    H181082   5.404   0.079  13.375 -0.9195 -0.3822 -0.4252
19889TIP3    H281083   5.287   0.174  13.358  0.4900  1.2923 -1.0601
19890TIP3   OH281084   0.061   0.076  12.996 -0.2053  0.0907 -0.7504
19890TIP3    H181085   0.086   0.083  13.088  1.0376  0.9855 -1.1113
19890TIP3    H281086   0.027  -0.012  12.986 -0.8211  0.1415  0.6652
19891TIP3   OH281087   3.991   1.138  12.439  0.2800 -0.4507  0.2720
19891TIP3    H181088   3.998   1.073  12.370 -1.8066  0.0659 -0.4803
19891TIP3    H281089   3.935   1.207  12.403  3.1710  2.3264  0.6571
19892TIP3   OH281090   3.950   1.247  16.966  0.0555 -0.2700 -0.3432
19892TIP3    H181091   3.950   1.156  16.935 -1.0344 -1.2685  2.2980
19892TIP3    H281092   4.031   1.256  17.015 -0.7976 -0.5423  1.1768
19893TIP3   OH281093   1.642   0.747  17.251  0.2997 -0.3471 -0.1351
19893TIP3    H181094   1.729   0.785  17.264 -0.2305  1.2210 -0.9778
19893TIP3    H281095   1.591   0.778  17.326 -0.6006  2.1414 -1.6772
19894TIP3   OH281096   5.001   2.119   0.132 -0.1699 -0.0012 -0.1902
19894TIP3    H181097   5.079   2.067   0.114  0.2179  0.8051 -0.8853
19894TIP3    H281098   4.967   2.085   0.215 -0.1608 -1.6401 -0.8302
19895TIP3   OH281099   3.383   2.734  11.611 -0.0194 -0.3157  0.3085
19895TIP3    H181100   3.455   2.728  11.673 -0.0610 -1.5558  0.2658
19895TIP3    H281101   3.348   2.645  11.607 -0.9004  0.0506 -0.4436
19896TIP3   OH281102   4.881   0.362   2.821  0.0280  0.1902  0.3353
19896TIP3    H181103   4.821   0.321   2.883 -0.7750 -0.6400 -0.9772
19896TIP3    H281104   4.962   0.311   2.829 -0.2943 -0.3437  0.2052
19897TIP3   OH281105   4.060   3.366  11.799 -0.3319  0.0911  0.1519
19897TIP3    H181106   4.061   3.459  11.819 -1.0545 -0.0217  0.7625
19897TIP3    H281107   4.149   3.346  11.769  0.0600  0.7894  0.8349
19898TIP3   OH281108   1.743   5.395  15.497  0.4929  0.6116  0.3058
19898TIP3    H181109   1.751   5.308  15.458 -0.9160  0.5511  0.0826
19898TIP3    H281110   1.833   5.427  15.504  0.9783 -0.5541 -0.2978
19899TIP3   OH281111   6.429   4.147  16.104  0.9311 -0.5174  0.6496
19899TIP3    H181112   6.478   4.218  16.143 -1.4051  0.8290  1.3484
19899TIP3    H281113   6.454   4.069  16.154  3.1578 -0.1735  0.1812
19900TIP3   OH281114   6.743   1.863   6.350  0.1421  0.1697 -0.2455
19900TIP3    H181115   6.652   1.843   6.329  0.5262 -1.8017 -0.1894
19900TIP3    H281116   6.750   1.844   6.444  0.5124  0.7750 -0.1437
19901TIP3   OH281117   2.372   4.277   2.638 -0.4955  0.0414 -0.2759
19901TIP3    H181118   2.399   4.320   2.719  0.3395  0.9538 -1.0165
19901TIP3    H281119   2.361   4.185   2.662 -1.7193  0.5416  1.2032
19902TIP3   OH281120   5.378   5.338   0.611 -0.2338  0.2267 -0.5460
19902TIP3    H181121   5.353   5.255   0.569 -2.3507  0.3184  0.4210
19902TIP3    H281122   5.296   5.378   0.637  0.8174  0.2279  3.5902
19903TIP3   OH281123   3.326   0.217  11.870 -0.0075  0.2630 -0.1562
19903TIP3    H181124   3.272   0.138  11.862 -3.4755  1.9871  3.0922
19903TIP3    H281125   3.321   0.259  11.785 -2.1205 -0.7115 -0.5761
19904TIP3   OH281126   0.336   3.315   2.396  0.3276 -0.3658  0.3454
19904TIP3    H181127   0.268   3.382   2.395  1.0164  0.3638  0.7976
19904TIP3    H281128   0.294   3.237   2.360 -0.5394  0.2601 -0.0289
19905TIP3   OH281129   4.557   2.151   0.273  0.3698 -0.1268 -0.2802
19905TIP3    H181130   4.633   2.115   0.228  1.2686  0.0327  1.0661
19905TIP3    H281131   4.505   2.074   0.298  2.0561 -0.5678  2.1852
19906TIP3   OH281132   0.087   2.727   5.718  0.0398 -0.1735 -0.1476
19906TIP3    H181133   0.130   2.661   5.771  1.5513  0.7049 -0.2169
19906TIP3    H281134   0.034   2.777   5.780 -1.2527 -1.5023 -0.1222
19907TIP3   OH281135   3.067   0.061  16.318 -0.2970 -0.0671 -0.3318
19907TIP3    H181136   3.125   0.038  16.246 -2.2441 -0.6243 -1.8171
19907TIP3    H281137   3.102   0.013  16.393  1.9988  0.8183 -0.7397
19908TIP3   OH281138   0.321   0.132   4.399 -0.0970  0.2161  0.1184
19908TIP3    H181139   0.349   0.054   4.448  0.8714  1.5084  1.6978
19908TIP3    H281140   0.264   0.179   4.460 -1.9558  0.0065 -1.3780
19909TIP3   OH281141   3.688   5.700  12.279 -0.1887 -0.5093  0.0233
19909TIP3    H181142   3.622   5.767  12.262  0.7432  1.3329  2.9522
19909TIP3    H281143   3.641   5.617  12.267 -2.2573  0.6845 -0.6591
19910TIP3   OH281144   0.984   1.981  13.876  0.4971 -0.5386  0.0599
19910TIP3    H181145   1.013   1.915  13.939  0.8155  0.8162  1.3813
19910TIP3    H281146   0.962   1.931  13.797  0.8092 -2.2013  0.9865
19911TIP3   OH281147   5.881   5.165  12.468 -0.5445 -0.0637  0.4564
19911TIP3    H181148   5.954   5.110  12.442  0.5545  1.5923 -0.1557
19911TIP3    H281149   5.823   5.167  12.392 -1.0850 -1.0901  0.8179
19912TIP3   OH281150   4.302   5.230   2.383  0.0694 -0.2332 -0.0649
19912TIP3    H181151   4.283   5.317   2.348 -2.4448 -0.4357  0.5840
19912TIP3    H281152   4.305   5.174   2.305  3.2903  0.5760 -0.6471
19913TIP3   OH281153   3.597   1.687   0.780 -0.1295  0.1535 -0.0538
19913TIP3    H181154   3.583   1.679   0.874  0.9464  0.1109  0.1061
19913TIP3    H281155   3.523   1.640   0.741  0.2047 -1.1176  0.7777
19914TIP3   OH281156   5.608   0.591  13.146 -0.0336  0.5292  0.5623
19914TIP3    H181157   5.701   0.598  13.125 -0.4151  1.1493 -1.1570
19914TIP3    H281158   5.600   0.626  13.235  1.4642 -0.2691  1.0376
19915TIP3   OH281159   3.107   2.729   6.311 -0.0603  0.0209 -0.2059
19915TIP3    H181160   3.169   2.665   6.276 -2.4858 -2.1612 -0.8583
19915TIP3    H281161   3.097   2.793   6.241  2.6089  1.4188  0.5565
19916TIP3   OH281162   1.396   3.843  13.919  0.3851  0.4110 -0.3066
19916TIP3    H181163   1.356   3.929  13.933 -1.3065 -0.2020 -1.0456
19916TIP3    H281164   1.335   3.782  13.959  0.9232 -0.5383 -0.8951
19917TIP3   OH281165   3.744   4.380  14.395 -0.2281  0.2401 -0.3665
19917TIP3    H181166   3.730   4.389  14.301 -0.8884 -1.8508 -0.5137
19917TIP3    H281167   3.655   4.380  14.432 -0.1110 -1.4038 -0.0321
19918TIP3   OH281168   5.788   5.508   0.411 -0.2910 -0.0924  0.3938
19918TIP3    H181169   5.790   5.416   0.386 -0.2837 -0.6936  2.4204
19918TIP3    H281170   5.701   5.521   0.448 -0.8070  1.1216 -1.1566
19919TIP3   OH281171   2.047   4.774  14.594 -0.0208  0.1471  0.4436
19919TIP3    H181172   2.070   4.800  14.505 -0.4809  3.6800  1.2060
19919TIP3    H281173   1.952   4.789  14.599 -0.1502 -0.8613  1.3173
19920TIP3   OH281174   1.065   1.066   1.472  0.3131  0.4644  0.0582
19920TIP3    H181175   1.038   1.038   1.559  0.0869 -1.0170 -0.4553
19920TIP3    H281176   1.020   1.149   1.457 -1.2721 -0.2824  0.5488
19921TIP3   OH281177   3.775   5.137   1.089 -0.0824  0.0940 -0.1792
19921TIP3    H181178   3.697   5.115   1.140 -0.4305 -0.4187 -0.9223
19921TIP3    H281179   3.768   5.230   1.073 -1.5314 -0.2638 -1.8582
19922TIP3   OH281180   0.203   0.307   1.948  0.0582 -0.3154  0.3475
19922TIP3    H181181   0.285   0.258   1.937  1.2013  1.5339  0.2165
19922TIP3    H281182   0.185   0.344   1.861 -1.9101 -2.0956 -0.0770
19923TIP3   OH281183   5.866   3.660  13.668  0.1427 -0.2618  0.7707
19923TIP3    H181184   5.803   3.629  13.603  0.5165  0.3354  0.0999
19923TIP3    H281185   5.942   3.602  13.658 -0.2895 -0.9792  1.5764
19924TIP3   OH281186   6.737   5.276   3.243 -0.0119  0.1941  0.0709
19924TIP3    H181187   6.670   5.341   3.221  0.7660  1.0854  0.2590
19924TIP3    H281188   6.819   5.318   3.217  0.9061  0.8875  3.5577
19925TIP3   OH281189   6.385   4.364  10.241  0.3462  0.1695 -0.1614
19925TIP3    H181190   6.412   4.447  10.201 -0.4362  0.9434  0.8537
19925TIP3    H281191   6.314   4.333  10.185  1.5356 -0.5387 -1.3298
19926TIP3   OH281192   6.692   1.117   5.343  0.6695  0.3031 -0.4416
19926TIP3    H181193   6.663   1.206   5.323 -2.5026  1.0193  5.2861
19926TIP3    H281194   6.769   1.129   5.398 -0.9052 -0.1671  2.0063
19927TIP3   OH281195   6.722   5.336  14.140  0.2521  0.2998  0.0156
19927TIP3    H181196   6.649   5.397  14.140  1.5678  1.9582 -0.3168
19927TIP3    H281197   6.755   5.338  14.230 -0.1892 -0.5579  0.2023
19928TIP3   OH281198   0.782   4.692  14.556 -0.5812 -0.0043  0.1589
19928TIP3    H181199   0.721   4.728  14.619 -1.0695 -1.5058  0.5800
19928TIP3    H281200   0.786   4.758  14.486 -2.8570  0.0458 -0.0019
19929TIP3   OH281201   5.734   5.160  13.418 -0.4568  0.7031 -0.0061
19929TIP3    H181202   5.710   5.069  13.432 -0.5487  0.9619  1.7286
19929TIP3    H281203   5.742   5.169  13.323 -0.9041 -0.9813 -0.2224
19930TIP3   OH281204   1.409   1.517  12.950  0.6796  0.0593 -0.4964
19930TIP3    H181205   1.465   1.440  12.962  2.0699  0.6161 -2.7623
19930TIP3    H281206   1.455   1.588  12.995  1.1854  0.2352 -1.2568
19931TIP3   OH281207   0.693   1.157   5.126  0.2713 -0.1239 -0.7204
19931TIP3    H181208   0.707   1.250   5.112 -0.9976  0.0841 -0.6408
19931TIP3    H281209   0.608   1.139   5.087 -0.6198 -0.7519  1.4033
19932TIP3   OH281210   1.330   2.327  14.491 -0.0100  0.1412 -0.4535
19932TIP3    H181211   1.302   2.412  14.456 -0.2229  0.8332  1.2867
19932TIP3    H281212   1.264   2.305  14.556  2.1920  0.7555  2.1933
19933TIP3   OH281213   0.781   0.752   1.016  0.3610 -0.3087 -0.1698
19933TIP3    H181214   0.810   0.679   1.071 -1.7715 -0.2969  1.0440
19933TIP3    H281215   0.732   0.710   0.945  2.5999 -0.2767 -1.8770
19934TIP3   OH281216   0.610   2.414   5.414  0.3283  0.0076 -0.4340
19934TIP3    H181217   0.703   2.417   5.391  0.6330 -2.5952  0.1346
19934TIP3    H281218   0.570   2.483   5.362  2.7168  1.8973  0.0947
19935TIP3   OH281219   5.911   0.648   2.619  0.0743  0.7948  0.0973
19935TIP3    H181220   5.910   0.555   2.594  0.2339  0.5729  0.9000
19935TIP3    H281221   5.913   0.647   2.714  0.7819  1.6169  0.1003
19936TIP3   OH281222   4.927   2.643  13.963  0.0526  0.3528  0.1684
19936TIP3    H181223   4.841   2.652  14.005  0.0188 -0.1629  0.2096
19936TIP3    H281224   4.907   2.618  13.873  0.1781 -0.9712  0.4888
19937TIP3   OH281225   2.392   5.281   4.244 -0.1922  0.0238 -0.0354
19937TIP3    H181226   2.484   5.259   4.233  0.1177 -0.4209  2.6391
19937TIP3    H281227   2.390   5.377   4.240  0.2999  0.0163 -0.5872
19938TIP3   OH281228   1.048   0.291  14.508 -0.4450 -0.7777  0.5048
19938TIP3    H181229   0.961   0.295  14.548 -0.3611  0.6126  0.5956
19938TIP3    H281230   1.087   0.377  14.526  0.7140 -1.1614 -0.0638
19939TIP3   OH281231   3.631   5.568  11.922 -0.1047 -0.4961  0.0269
19939TIP3    H181232   3.646   5.486  11.875  1.2869  0.2667 -0.9349
19939TIP3    H281233   3.717   5.593  11.955 -0.5019  0.6003  0.2660
19940TIP3   OH281234   5.511   2.178  13.667  0.2506  0.1542 -0.2990
19940TIP3    H181235   5.486   2.260  13.624 -1.5276 -1.1425 -1.8941
19940TIP3    H281236   5.468   2.182  13.752 -2.1428 -0.2227 -1.4151
19941TIP3   OH281237   1.062   6.650   1.059 -0.4213  0.3486 -0.3354
19941TIP3    H181238   0.981   6.688   1.094 -0.2200  0.2312  0.2807
19941TIP3    H281239   1.056   6.663   0.965 -1.1641  0.3223 -0.2956
19942TIP3   OH281240   2.616   2.629  12.857  0.6766 -0.0630 -0.0372
19942TIP3    H181241   2.643   2.542  12.828  0.3459 -0.3904  0.6059
19942TIP3    H281242   2.696   2.681  12.858  0.7346 -0.1148 -1.2708
19943TIP3   OH281243   3.338   6.617   5.951  0.0669  0.5825  0.2198
19943TIP3    H181244   3.419   6.667   5.950  0.2492  0.2853  0.2092
19943TIP3    H281245   3.351   6.551   6.019 -0.3244  0.7992  0.5086
19944TIP3   OH281246   2.533   3.938   5.617 -0.5075 -0.0857  0.0226
19944TIP3    H181247   2.477   3.890   5.556  0.3526 -1.8005  0.5223
19944TIP3    H281248   2.591   3.990   5.561 -0.0247 -1.3005 -0.6341
19945TIP3   OH281249   2.313   2.805   2.955  0.6249  0.5067  0.0934
19945TIP3    H181250   2.313   2.900   2.954 -1.0260  0.5594  1.0182
19945TIP3    H281251   2.395   2.781   2.998  1.2196  1.4857 -0.4784
19946TIP3   OH281252   0.310   2.111  13.540 -0.1274 -0.6505 -0.3563
19946TIP3    H181253   0.355   2.059  13.607 -0.9360 -0.1786  0.5755
19946TIP3    H281254   0.349   2.082  13.457 -0.3200 -2.5123  0.1550
19947TIP3   OH281255   5.535   4.130   0.584  0.1414 -0.0640 -0.1068
19947TIP3    H181256   5.487   4.187   0.645 -0.2007 -0.9295  0.4448
19947TIP3    H281257   5.582   4.069   0.641 -1.9395 -2.3431 -0.6934
19948TIP3   OH281258   4.140   5.929  15.631  0.4759  0.0858  0.0070
19948TIP3    H181259   4.072   5.918  15.565 -1.8612 -1.3289  2.4626
19948TIP3    H281260   4.120   6.012  15.673  1.0403  0.2718 -0.0855
19949TIP3   OH281261   1.508   2.529   6.325  0.0046 -0.3541 -0.9498
19949TIP3    H181262   1.524   2.616   6.361  2.0840 -1.2227  0.4028
19949TIP3    H281263   1.413   2.520   6.326 -0.1896  0.3389  2.9071
19950TIP3   OH281264   1.978   0.105   3.078  0.3476  0.2235 -0.2737
19950TIP3    H181265   1.921   0.028   3.076 -0.8933  1.1010 -2.2204
19950TIP3    H281266   2.048   0.084   3.016  0.5148  0.2788 -0.1016
19951TIP3   OH281267   0.952   6.460  12.012  0.0880 -0.4971  0.1812
19951TIP3    H181268   0.990   6.519  11.946  0.8944 -2.4965 -1.2502
19951TIP3    H281269   1.028   6.419  12.054 -0.4326 -2.0360 -0.3208
19952TIP3   OH281270   2.397   1.554  11.068 -0.3947 -0.4585  0.1007
19952TIP3    H181271   2.423   1.479  11.015 -2.8872 -0.3542 -1.4234
19952TIP3    H281272   2.467   1.618  11.054  0.4600 -1.5185 -0.6779
19953LIG      S81273   4.516   3.459  11.205  0.2344  0.0014  0.4121
19953LIG     F181274   3.253   3.867  11.084 -0.4394  0.4328 -0.0852
19953LIG     F281275   3.285   3.612  10.967  0.8472 -0.0436 -0.2191
19953LIG     N181276   4.433   3.737  11.016  0.0636  0.2831  0.2182
19953LIG     N281277   3.751   4.023  10.751  0.0347  0.5383  0.3461
19953LIG     C181278   4.292   3.731  10.980  0.1187 -0.9128  0.5301
19953LIG     C281279   4.518   3.627  10.967  0.5782 -0.3150  0.1591
19953LIG     C381280   4.452   3.741  11.157  0.6927 -0.4619 -0.0372
19953LIG     C481281   4.222   3.861  11.025  0.1379  0.2210 -0.6092
19953LIG     C581282   4.488   3.476  11.021  0.8494 -0.3488  1.0073
19953LIG     C681283   4.417   3.610  11.238 -0.4572 -0.5589 -0.4587
19953LIG     C781284   4.098   3.898  10.952  0.0289 -0.3018 -0.3488
19953LIG     C881285   3.617   4.062  10.819  0.6585  1.2166 -0.0555
19953LIG     C981286   4.094   3.905  10.815  0.1539 -0.2389  0.4465
19953LIG    C1081287   3.990   3.950  11.026 -0.2530 -0.1259 -0.2815
19953LIG    C1181288   3.873   4.002  10.817 -0.3370  0.1491 -0.3413
19953LIG    C1281289   3.981   3.951  10.742 -0.2657  0.2126 -0.4618
19953LIG    C1381290   3.878   3.999  10.955  0.4060 -0.2482  0.4496
19953LIG    C1481291   3.531   3.936  10.860 -0.2982 -0.0795 -0.8927
19953LIG    C1581292   3.536   4.128  10.704 -0.7927  0.0452 -0.1585
19953LIG    C1681293   3.435   3.956  10.964  0.3011  0.0486 -0.1816
19953LIG    C1781294   3.545   3.803  10.808 -0.1305 -0.4876 -0.2549
19953LIG    C1881295   3.350   3.849  10.997  0.5988 -0.0052 -0.2230
19953LIG    C1981296   3.461   3.702  10.846 -0.2146  0.8660  0.1689
19953LIG    C2081297   3.365   3.720  10.943  0.6735 -0.3346 -0.3070
19953LIG     H181298   4.234   3.641  11.009 -0.9119  0.1384  1.8985
19953LIG     H281299   4.297   3.737  10.869  0.3604 -1.9810  0.4681
19953LIG     H381300   4.623   3.657  10.989 -0.1063  1.1039  1.6849
19953LIG     H481301   4.518   3.608  10.857 -0.1255  1.0856 -0.1067
19953LIG     H581302   4.398   3.819  11.216  2.7639 -0.0442  1.4181
19953LIG     H681303   4.561   3.758  11.169  0.7473  0.3805 -1.5089
19953LIG     H781304   4.299   3.941  11.024  0.1162  0.2342 -1.1349
19953LIG     H881305   4.199   3.848  11.133 -2.3021 -0.7962 -1.1863
19953LIG     H981306   4.388   3.458  10.977  1.1587  1.0744 -0.3905
19953LIG    H1081307   4.569   3.418  10.972  0.7788 -1.1319  1.7864
19953LIG    H1181308   4.433   3.638  11.344 -3.5514  0.6008 -0.1830
19953LIG    H1281309   4.309   3.590  11.223 -0.4014 -1.1628 -0.0733
19953LIG    H1381310   3.636   4.133  10.903 -0.2052  0.3007  0.9336
19953LIG    H1481311   4.185   3.878  10.764  0.1259  2.4406 -1.2305
19953LIG    H1581312   3.994   3.941  11.133 -1.9944 -2.0767 -0.3177
19953LIG    H1681313   3.747   3.982  10.657 -1.7256 -0.6262  0.8828
19953LIG    H1781314   3.986   3.950  10.634  0.5429 -0.8753 -0.4278
19953LIG    H1881315   3.795   4.040  11.010  1.3446  1.1002  0.9167
19953LIG    H1981316   3.597   4.211  10.662  1.6402 -2.6447 -2.3817
19953LIG    H2081317   3.437   4.164  10.740 -1.3099  0.2276 -1.6754
19953LIG    H2181318   3.516   4.053  10.624  0.5167 -0.4503 -0.0403
19953LIG    H2281319   3.419   4.051  11.014  0.3993 -1.4644  2.9600
19953LIG    H2381320   3.620   3.790  10.731 -0.5692 -1.0974 -0.5883
19953LIG    H2481321   3.460   3.605  10.798 -2.6681  2.5742 -3.7257
   6.81311   6.81311  17.25258
